Title
81329
    1CHL1    C3    1   0.153   4.680  10.142  0.4027 -0.2173 -0.1723
    1CHL1    H3    2   0.103   4.766  10.092  1.5678  0.9463  0.6005
    1CHL1    O3    3   0.160   4.688  10.283 -0.2452  0.6693 -0.0892
    1CHL1   H3'    4   0.106   4.618  10.320  2.3304 -1.9450 -0.8587
    1CHL1    C4    5   0.077   4.547  10.110 -0.0924  0.4302 -0.0694
    1CHL1   H4A    6   0.139   4.459  10.137  2.1115  1.9424  0.0250
    1CHL1   H4B    7  -0.015   4.550  10.173  0.9264  0.5954  1.4621
    1CHL1    C5    8   0.047   4.537   9.963 -0.2383  0.0734  0.6085
    1CHL1    C6    9  -0.077   4.513   9.926  0.6284 -0.9215 -0.3235
    1CHL1    H6   10  -0.156   4.517  10.003  2.0758  4.3976  1.3037
    1CHL1    C7   11  -0.113   4.490   9.781  0.0173 -0.2763 -0.0951
    1CHL1   H7A   12  -0.181   4.402   9.781 -0.1917 -0.3272  4.0262
    1CHL1   H7B   13  -0.174   4.577   9.748  1.3806  2.3131  3.4823
    1CHL1    C8   14   0.011   4.477   9.689  0.4658  0.2538 -0.2566
    1CHL1    H8   15   0.035   4.369   9.696  0.7997  0.3784  0.6753
    1CHL1   C14   16  -0.027   4.509   9.545 -0.2176 -0.0994  0.5433
    1CHL1   H14   17  -0.055   4.616   9.545 -0.5452 -0.1781  1.1401
    1CHL1   C15   18  -0.148   4.438   9.484  0.1182 -0.0737  0.0838
    1CHL1  H15A   19  -0.160   4.331   9.512 -2.8932  0.3044  0.5375
    1CHL1  H15B   20  -0.244   4.491   9.499  0.7514  1.7950 -1.8543
    1CHL1   C16   21  -0.119   4.444   9.333  1.1850 -0.5135  0.1718
    1CHL1  H16A   22  -0.117   4.341   9.291  0.4974 -0.6457  0.4456
    1CHL1  H16B   23  -0.207   4.493   9.287  0.4957 -1.7534  0.1269
    1CHL1   C17   24   0.009   4.525   9.311 -0.7858  0.1785  0.2422
    1CHL1   H17   25  -0.027   4.630   9.307 -0.5925  0.3057  1.5010
    1CHL1   C13   26   0.082   4.497   9.441  0.4356 -0.6071 -0.6144
    1CHL1   C18   27   0.143   4.355   9.443  0.8056 -0.0323  0.8917
    1CHL1  H18A   28   0.207   4.332   9.355 -2.2844 -0.6329 -1.3505
    1CHL1  H18B   29   0.205   4.341   9.534  2.4265  2.0382  0.1722
    1CHL1  H18C   30   0.072   4.269   9.449  1.4871 -0.6794  0.0163
    1CHL1   C12   31   0.183   4.607   9.479 -0.1985 -0.5504  0.0543
    1CHL1  H12A   32   0.269   4.607   9.409 -1.7743 -1.2650 -2.0036
    1CHL1  H12B   33   0.150   4.713   9.466  1.7453  0.2058  0.9451
    1CHL1   C11   34   0.240   4.587   9.624  0.0534  0.0679 -0.0326
    1CHL1  H11A   35   0.313   4.504   9.612  2.5801  2.4219 -2.5099
    1CHL1  H11B   36   0.300   4.675   9.655  2.6618 -1.1784 -1.1590
    1CHL1    C9   37   0.125   4.574   9.725  0.7666 -0.2160 -0.2578
    1CHL1    H9   38   0.078   4.675   9.731  0.0645 -0.5284 -0.4501
    1CHL1   C10   39   0.174   4.555   9.869  0.1640 -0.4971 -0.3069
    1CHL1   C19   40   0.247   4.416   9.869 -0.2478 -0.3789 -0.0578
    1CHL1  H19A   41   0.335   4.423   9.800 -1.4186  4.6582 -1.4491
    1CHL1  H19B   42   0.286   4.404   9.972 -0.6715 -0.9197  0.0424
    1CHL1  H19C   43   0.169   4.340   9.845  1.5669 -1.8717 -1.5991
    1CHL1    C1   44   0.260   4.672   9.915 -1.0318 -0.4620 -0.2211
    1CHL1   H1A   45   0.364   4.666   9.875 -0.4662  1.5621  0.7950
    1CHL1   H1B   46   0.207   4.766   9.886 -1.9366 -0.9506 -0.1890
    1CHL1    C2   47   0.287   4.679  10.071 -0.4324 -0.4333 -0.7556
    1CHL1   H2A   48   0.307   4.787  10.083 -2.3567  0.0734 -1.6447
    1CHL1   H2B   49   0.369   4.617  10.112  0.2009  0.8487 -0.0304
    1CHL1   C20   50   0.070   4.490   9.176 -0.2401 -0.2155  0.7010
    1CHL1   H20   51   0.089   4.381   9.171 -0.0168 -0.1445 -3.0868
    1CHL1   C21   52   0.217   4.562   9.141 -0.1650 -0.0567  0.1788
    1CHL1  H21A   53   0.259   4.533   9.042  3.2182  2.3418  0.7402
    1CHL1  H21B   54   0.293   4.528   9.215  0.5052  2.2582  0.6277
    1CHL1  H21C   55   0.203   4.672   9.141 -1.7403 -0.2288  0.2143
    1CHL1   C22   56  -0.031   4.516   9.062  0.3092 -0.4238 -0.6055
    1CHL1  H22A   57  -0.124   4.457   9.075 -1.4220  2.5508  2.2182
    1CHL1  H22B   58  -0.071   4.620   9.071  0.2238 -0.3762 -1.4082
    1CHL1   C23   59   0.027   4.476   8.924 -0.1339  0.0402  0.1666
    1CHL1  H23A   60   0.106   4.547   8.891 -0.3313 -0.2220 -0.9186
    1CHL1  H23B   61   0.082   4.381   8.942 -0.5316 -0.6777 -2.0041
    1CHL1   C24   62  -0.075   4.453   8.811  0.4247 -0.1665  0.2138
    1CHL1  H24A   63  -0.140   4.368   8.840 -2.3534  1.2843 -1.3240
    1CHL1  H24B   64  -0.150   4.535   8.805 -0.5002 -1.0593 -0.8307
    1CHL1   C25   65  -0.004   4.420   8.678  0.2674  0.5550 -0.2800
    1CHL1   H25   66   0.073   4.341   8.690  1.1956  1.4688 -0.1507
    1CHL1   C26   67  -0.107   4.372   8.572 -0.0614  0.4657  0.2084
    1CHL1  H26A   68  -0.174   4.291   8.609  0.2473 -0.4977 -1.2778
    1CHL1  H26B   69  -0.181   4.447   8.536 -0.0586 -0.9258 -2.9657
    1CHL1  H26C   70  -0.058   4.335   8.480  1.2897  0.5513  0.8677
    1CHL1   C27   71   0.063   4.544   8.619  0.1106 -0.0639 -0.2611
    1CHL1  H27A   72   0.158   4.568   8.671 -1.5531  2.2348  1.9085
    1CHL1  H27B   73   0.069   4.548   8.508  0.5583  2.8651 -0.1965
    1CHL1  H27C   74   0.006   4.635   8.645 -0.5115 -0.7964  1.0417
    2CHL1    C3   75   0.136   3.243  10.109 -0.1531 -0.5377 -0.0571
    2CHL1    H3   76   0.143   3.351  10.085 -0.3790 -0.9855 -2.3941
    2CHL1    O3   77   0.182   3.218  10.233  0.1696 -0.2394 -0.3593
    2CHL1   H3'   78   0.236   3.139  10.223  0.0353 -0.1560 -1.9551
    2CHL1    C4   79  -0.006   3.188  10.099  0.2236 -0.4389 -0.2664
    2CHL1   H4A   80   0.011   3.080  10.119  3.3156 -0.1346 -0.7826
    2CHL1   H4B   81  -0.074   3.229  10.177  1.0222 -0.7848  0.6397
    2CHL1    C5   82  -0.068   3.219   9.962  1.0782  0.2066 -0.0696
    2CHL1    C6   83  -0.176   3.293   9.946 -0.1186  0.2366  0.1220
    2CHL1    H6   84  -0.230   3.334  10.033 -0.6108  0.8173 -0.4427
    2CHL1    C7   85  -0.251   3.315   9.818  0.5992 -0.0812 -0.4454
    2CHL1   H7A   86  -0.361   3.300   9.829  0.2966  1.6643 -0.7718
    2CHL1   H7B   87  -0.239   3.416   9.774 -1.0728  1.3000  1.9792
    2CHL1    C8   88  -0.208   3.205   9.717 -0.9622  0.2050 -0.6937
    2CHL1    H8   89  -0.246   3.108   9.756 -0.7903  0.0845 -0.8257
    2CHL1   C14   90  -0.262   3.233   9.576  0.1231  0.0574 -0.3655
    2CHL1   H14   91  -0.218   3.333   9.553 -1.0067  0.1947 -2.1816
    2CHL1   C15   92  -0.415   3.226   9.558 -0.1690 -0.1530 -0.4614
    2CHL1  H15A   93  -0.462   3.132   9.593 -0.6760 -0.8908 -2.9015
    2CHL1  H15B   94  -0.452   3.317   9.610 -1.5136  0.3207 -2.1193
    2CHL1   C16   95  -0.442   3.247   9.408  0.0165  0.2112 -0.0952
    2CHL1  H16A   96  -0.508   3.166   9.372 -0.9972  0.3747  1.2960
    2CHL1  H16B   97  -0.477   3.340   9.359 -1.5330 -0.7508 -0.8989
    2CHL1   C17   98  -0.302   3.210   9.344  0.1980  0.3862  0.1379
    2CHL1   H17   99  -0.241   3.302   9.331  0.8649  0.0946  1.1094
    2CHL1   C13  100  -0.216   3.147   9.466  0.4419 -0.4102  1.3084
    2CHL1   C18  101  -0.248   2.998   9.481  0.6307 -0.2043  0.5449
    2CHL1  H18A  102  -0.197   2.942   9.399  1.9565  0.3087  0.9862
    2CHL1  H18B  103  -0.211   2.951   9.574  3.2179 -0.3645 -0.4892
    2CHL1  H18C  104  -0.357   2.976   9.488  0.3811  0.2452 -1.4062
    2CHL1   C12  105  -0.068   3.173   9.454  0.6301 -0.0389 -0.3827
    2CHL1  H12A  106  -0.025   3.106   9.376 -1.9709 -0.2476 -1.7603
    2CHL1  H12B  107  -0.053   3.281   9.436  0.9219  0.1310  0.8155
    2CHL1   C11  108  -0.002   3.132   9.590 -0.1558 -0.3230  0.3222
    2CHL1  H11A  109  -0.003   3.021   9.593  0.4678 -0.3668 -0.7823
    2CHL1  H11B  110   0.101   3.169   9.576 -0.9971  1.6519 -0.9906
    2CHL1    C9  111  -0.055   3.204   9.710  0.5953  0.2059 -0.1030
    2CHL1    H9  112  -0.025   3.310   9.692  3.3139 -0.8875 -2.8758
    2CHL1   C10  113   0.006   3.164   9.843 -0.1579 -0.0033 -0.0196
    2CHL1   C19  114   0.001   3.007   9.853  0.0044  0.5983 -0.2964
    2CHL1  H19A  115   0.072   2.958   9.783  0.6699  1.4379 -0.2356
    2CHL1  H19B  116   0.037   2.972   9.952  2.7292 -1.2144 -1.8184
    2CHL1  H19C  117  -0.104   2.971   9.846 -0.0714  0.9147 -0.8563
    2CHL1    C1  118   0.146   3.213   9.855  0.2329 -0.0882 -0.0479
    2CHL1   H1A  119   0.191   3.143   9.781 -2.7725 -0.7761 -1.3344
    2CHL1   H1B  120   0.156   3.318   9.820  0.8093 -0.5337 -1.3096
    2CHL1    C2  121   0.219   3.178   9.998  0.2973 -0.4068  0.1405
    2CHL1   H2A  122   0.321   3.221   9.996  0.8076 -1.2455  3.2174
    2CHL1   H2B  123   0.231   3.069  10.018  2.9567  0.3367  3.7212
    2CHL1   C20  124  -0.305   3.133   9.212  0.1938 -0.7335 -0.4222
    2CHL1   H20  125  -0.340   3.032   9.242 -0.1262 -0.2382  0.9650
    2CHL1   C21  126  -0.168   3.104   9.148 -0.0108 -0.1720 -0.3094
    2CHL1  H21A  127  -0.107   3.196   9.142 -3.1546  2.0078 -1.2559
    2CHL1  H21B  128  -0.183   3.062   9.047 -0.2192  1.2700 -0.8949
    2CHL1  H21C  129  -0.110   3.028   9.205  0.9816  1.2108  0.6173
    2CHL1   C22  130  -0.400   3.196   9.112  0.3268 -0.6524  0.2214
    2CHL1  H22A  131  -0.420   3.127   9.027 -0.6620 -0.9197  0.6586
    2CHL1  H22B  132  -0.501   3.220   9.150  0.2151  1.4442 -1.2097
    2CHL1   C23  133  -0.343   3.336   9.064 -0.3078  0.3331  0.0906
    2CHL1  H23A  134  -0.318   3.389   9.158  2.4112  0.8161 -0.7943
    2CHL1  H23B  135  -0.252   3.310   9.005 -0.2368 -2.2381  1.2048
    2CHL1   C24  136  -0.434   3.424   8.978  0.4180 -0.4028 -0.3480
    2CHL1  H24A  137  -0.436   3.384   8.874 -1.9349  2.1442 -1.4313
    2CHL1  H24B  138  -0.536   3.425   9.023  1.3560 -0.7802  1.8925
    2CHL1   C25  139  -0.393   3.572   8.954 -0.4489  0.8026  0.2596
    2CHL1   H25  140  -0.395   3.624   9.052 -1.6426  0.9097  0.1872
    2CHL1   C26  141  -0.245   3.587   8.918 -0.3407  0.0059  0.1275
    2CHL1  H26A  142  -0.182   3.544   8.998  2.4954  0.0891 -1.9004
    2CHL1  H26B  143  -0.214   3.546   8.819  2.2207  1.4343  0.2316
    2CHL1  H26C  144  -0.228   3.697   8.905 -0.0153  0.0956  1.2069
    2CHL1   C27  145  -0.487   3.662   8.862 -0.9162 -0.4018 -0.0554
    2CHL1  H27A  146  -0.578   3.689   8.919 -0.5466  0.8009 -0.0066
    2CHL1  H27B  147  -0.435   3.758   8.843 -1.9785  0.9592  3.1460
    2CHL1  H27C  148  -0.515   3.610   8.768  0.0546 -0.5279 -0.2837
    3CHL1    C3  149   1.824   3.170  10.077 -0.7307 -0.0957  0.3930
    3CHL1    H3  150   1.911   3.101  10.070 -1.7837 -1.5178  1.1092
    3CHL1    O3  151   1.798   3.164  10.216 -0.2740 -0.1820  0.1687
    3CHL1   H3'  152   1.703   3.150  10.215 -0.4751 -0.2291  4.1085
    3CHL1    C4  153   1.870   3.311  10.032  0.0763  0.1993  0.3609
    3CHL1   H4A  154   1.780   3.375  10.042 -1.0919 -1.6940  2.8525
    3CHL1   H4B  155   1.945   3.354  10.102 -0.2369 -0.4437  1.0936
    3CHL1    C5  156   1.923   3.295   9.894 -0.3117  0.4594  0.0806
    3CHL1    C6  157   2.053   3.332   9.857 -0.3086 -0.4694 -0.6326
    3CHL1    H6  158   2.113   3.381   9.936 -3.9546  1.0732  1.4206
    3CHL1    C7  159   2.101   3.327   9.713  0.0005  0.4119  0.5305
    3CHL1   H7A  160   2.160   3.418   9.689  1.9323 -0.9914 -0.2919
    3CHL1   H7B  161   2.158   3.233   9.696 -1.9535 -0.4528 -1.8853
    3CHL1    C8  162   1.986   3.320   9.605  0.5239  0.1108  0.8045
    3CHL1    H8  163   1.928   3.413   9.585  1.0489  0.1742 -0.5124
    3CHL1   C14  164   2.052   3.278   9.470  0.1394 -0.3706  0.1448
    3CHL1   H14  165   2.100   3.181   9.492  2.6069  0.5128 -0.9395
    3CHL1   C15  166   2.160   3.369   9.414 -0.2389  0.2870 -0.1459
    3CHL1  H15A  167   2.135   3.475   9.435  1.5240  0.7908 -0.3944
    3CHL1  H15B  168   2.261   3.355   9.458  0.7763 -0.2488 -2.4576
    3CHL1   C16  169   2.168   3.334   9.267 -0.2637  0.4735 -0.3188
    3CHL1  H16A  170   2.171   3.434   9.220 -0.3155  0.7558  0.2693
    3CHL1  H16B  171   2.266   3.287   9.243 -1.0064 -0.3047 -1.9803
    3CHL1   C17  172   2.058   3.226   9.237 -0.0663  0.5365  0.5777
    3CHL1   H17  173   2.106   3.127   9.251 -0.7607 -0.5360 -3.4272
    3CHL1   C13  174   1.956   3.252   9.354  0.1912 -0.1592 -0.1785
    3CHL1   C18  175   1.874   3.378   9.317  0.1131 -0.0385 -0.9116
    3CHL1  H18A  176   1.838   3.355   9.214  2.4586 -1.5176 -1.4577
    3CHL1  H18B  177   1.792   3.404   9.387  0.5774 -2.0738  0.4852
    3CHL1  H18C  178   1.938   3.464   9.289  0.7300 -0.5248 -1.0004
    3CHL1   C12  179   1.870   3.125   9.396 -0.1125 -0.1046 -0.5276
    3CHL1  H12A  180   1.801   3.112   9.310 -0.6286  1.6072 -0.4237
    3CHL1  H12B  181   1.936   3.036   9.407  2.3130  1.6714  0.2043
    3CHL1   C11  182   1.795   3.164   9.525 -0.4032  0.0036 -0.4238
    3CHL1  H11A  183   1.712   3.236   9.513  0.0505  0.3526 -1.6333
    3CHL1  H11B  184   1.756   3.065   9.557 -3.0422  0.1498 -2.7849
    3CHL1    C9  185   1.882   3.214   9.646 -0.2220 -0.2509 -0.2465
    3CHL1    H9  186   1.945   3.123   9.655  0.7027  0.3516 -0.4658
    3CHL1   C10  187   1.816   3.237   9.783 -0.4070  0.1767 -0.3808
    3CHL1   C19  188   1.710   3.347   9.768  0.5941  0.2375 -0.1141
    3CHL1  H19A  189   1.682   3.382   9.870 -1.1559 -2.1081  0.2838
    3CHL1  H19B  190   1.728   3.434   9.702  0.7603  0.5563  0.3399
    3CHL1  H19C  191   1.620   3.301   9.722  0.2115  1.3051 -0.4551
    3CHL1    C1  192   1.755   3.105   9.836  0.3771 -0.0919 -0.7108
    3CHL1   H1A  193   1.658   3.086   9.787 -1.5556 -0.4458  2.9111
    3CHL1   H1B  194   1.829   3.022   9.836  0.5979 -0.0134  2.0401
    3CHL1    C2  195   1.709   3.120   9.986  0.1676 -1.2619  0.3516
    3CHL1   H2A  196   1.668   3.024  10.023 -3.3691 -1.0513 -2.4483
    3CHL1   H2B  197   1.625   3.192   9.974  0.4522 -1.0686 -0.6209
    3CHL1   C20  198   2.010   3.224   9.091  0.2979 -0.0891 -0.1584
    3CHL1   H20  199   1.977   3.325   9.060 -1.0008 -0.3871  0.2034
    3CHL1   C21  200   1.891   3.129   9.068  0.3557 -0.5408 -0.1978
    3CHL1  H21A  201   1.902   3.034   9.125  1.4502 -0.1125  0.3238
    3CHL1  H21B  202   1.865   3.109   8.962  4.2095 -1.8986 -1.0321
    3CHL1  H21C  203   1.803   3.175   9.118 -0.8715 -0.7453 -2.0819
    3CHL1   C22  204   2.136   3.194   9.006 -0.6641 -0.1363 -0.0456
    3CHL1  H22A  205   2.224   3.258   9.026  0.3656 -1.2404 -0.9096
    3CHL1  H22B  206   2.167   3.092   9.037  0.8701  0.5527  0.8138
    3CHL1   C23  207   2.117   3.189   8.854  0.1208  0.0299  0.2245
    3CHL1  H23A  208   2.073   3.090   8.830  0.7330  0.1215 -1.4025
    3CHL1  H23B  209   2.042   3.270   8.838  0.1236 -0.2062 -1.0866
    3CHL1   C24  210   2.253   3.208   8.782  0.2793 -0.3527 -0.1054
    3CHL1  H24A  211   2.300   3.308   8.797  0.0053 -0.4337  1.4479
    3CHL1  H24B  212   2.314   3.129   8.831  0.6485 -0.5939 -0.9412
    3CHL1   C25  213   2.247   3.179   8.636 -0.0771 -0.0901  0.0377
    3CHL1   H25  214   2.221   3.072   8.617 -1.9081  0.5474 -1.2373
    3CHL1   C26  215   2.153   3.277   8.576 -1.3807  0.3320  0.0992
    3CHL1  H26A  216   2.188   3.380   8.599 -2.4957  0.2772  2.3765
    3CHL1  H26B  217   2.145   3.264   8.466 -1.1066 -1.9046  0.2983
    3CHL1  H26C  218   2.052   3.251   8.616 -0.1624 -0.8081  2.6869
    3CHL1   C27  219   2.382   3.212   8.577 -0.0213  0.5501 -0.1720
    3CHL1  H27A  220   2.473   3.171   8.626  0.4915  1.2536 -0.4991
    3CHL1  H27B  221   2.381   3.181   8.470  3.3166 -1.1283  0.1559
    3CHL1  H27C  222   2.395   3.322   8.587 -2.1903  0.8649 -0.2949
    4CHL1    C3  223   0.965   3.785  10.549  0.7487  0.8368 -0.2027
    4CHL1    H3  224   1.012   3.690  10.514  1.4500  1.1524 -0.1308
    4CHL1    O3  225   0.958   3.778  10.695 -0.5264 -0.2855 -0.4991
    4CHL1   H3'  226   0.926   3.862  10.730 -1.5763 -0.6535 -0.5439
    4CHL1    C4  227   1.050   3.896  10.510  0.0139  0.0372  0.4425
    4CHL1   H4A  228   1.008   3.986  10.558 -3.9506 -0.7780 -1.1203
    4CHL1   H4B  229   1.150   3.876  10.555  0.8782 -0.0928 -1.4038
    4CHL1    C5  230   1.058   3.905  10.360  0.3459 -0.3885 -0.9951
    4CHL1    C6  231   1.179   3.889  10.308 -0.6423 -0.4551 -0.2750
    4CHL1    H6  232   1.274   3.890  10.362  0.4317  1.1488 -2.0742
    4CHL1    C7  233   1.192   3.901  10.152 -0.0322 -0.1607 -0.5577
    4CHL1   H7A  234   1.276   3.970  10.128  0.2258 -0.8137 -1.6461
    4CHL1   H7B  235   1.217   3.804  10.104 -0.2678 -0.4897 -0.0149
    4CHL1    C8  236   1.066   3.966  10.088 -0.0061 -0.1972  0.0254
    4CHL1    H8  237   1.090   4.071  10.115 -0.0711 -0.2124  0.1450
    4CHL1   C14  238   1.069   3.937   9.935  0.4281 -0.9690  0.1229
    4CHL1   H14  239   1.055   3.829   9.916  0.7802 -0.6459 -2.2523
    4CHL1   C15  240   1.201   3.964   9.857 -0.2258 -0.4159  1.2848
    4CHL1  H15A  241   1.252   4.057   9.891 -1.1802  0.4705  0.3569
    4CHL1  H15B  242   1.271   3.878   9.860 -0.9293 -1.0470  0.2741
    4CHL1   C16  243   1.153   3.997   9.710 -0.5541 -0.0178 -0.4888
    4CHL1  H16A  244   1.173   4.104   9.689 -0.8805 -0.1929 -1.7581
    4CHL1  H16B  245   1.217   3.936   9.642 -0.1019 -1.3244  1.0529
    4CHL1   C17  246   1.004   3.965   9.707  0.6281 -0.1995  0.3281
    4CHL1   H17  247   0.999   3.855   9.698 -0.7758 -0.2618  1.3686
    4CHL1   C13  248   0.955   4.001   9.853 -0.2600 -0.2382  0.1653
    4CHL1   C18  249   0.966   4.152   9.876  0.1087 -0.3603  0.5042
    4CHL1  H18A  250   0.908   4.183   9.965  1.9326  0.6585  1.4099
    4CHL1  H18B  251   1.073   4.173   9.898  0.6575 -1.4467 -0.9271
    4CHL1  H18C  252   0.930   4.217   9.793  1.3200  2.2827  1.9069
    4CHL1   C12  253   0.821   3.941   9.901 -0.1722 -0.3673  0.3421
    4CHL1  H12A  254   0.740   4.003   9.858 -1.7197 -1.1813  1.9398
    4CHL1  H12B  255   0.814   3.831   9.884  1.2941 -0.1891 -1.9469
    4CHL1   C11  256   0.810   3.961  10.052  0.0314  0.0297 -0.6787
    4CHL1  H11A  257   0.791   4.068  10.078  1.4582 -0.1115  1.2531
    4CHL1  H11B  258   0.725   3.903  10.092  0.2243  0.4569  0.4029
    4CHL1    C9  259   0.932   3.905  10.137  0.3655 -0.6242  0.2063
    4CHL1    H9  260   0.945   3.797  10.120 -0.3586 -0.8127  0.7758
    4CHL1   C10  261   0.924   3.919  10.289 -0.1251  0.3165 -0.8685
    4CHL1   C19  262   0.871   4.059  10.326 -0.5311 -0.4489  0.0077
    4CHL1  H19A  263   0.884   4.089  10.432  0.5460  1.8708 -0.7058
    4CHL1  H19B  264   0.929   4.132  10.265  1.0385 -1.1130  0.6470
    4CHL1  H19C  265   0.768   4.065  10.287  0.0895  0.6187 -1.5939
    4CHL1    C1  266   0.827   3.806  10.345  0.3664  0.3923 -0.0740
    4CHL1   H1A  267   0.721   3.829  10.318  0.1971  0.0379  0.2714
    4CHL1   H1B  268   0.870   3.717  10.295  1.5920  1.0782 -0.2676
    4CHL1    C2  269   0.818   3.798  10.501 -0.6877 -0.0245  0.0038
    4CHL1   H2A  270   0.752   3.711  10.523  0.7725 -1.5305 -1.3369
    4CHL1   H2B  271   0.779   3.893  10.544 -2.0821 -1.1719  1.4240
    4CHL1   C20  272   0.927   4.012   9.581  0.0944  0.1489  0.1085
    4CHL1   H20  273   0.904   4.120   9.579  1.3849  0.4244 -1.0676
    4CHL1   C21  274   0.797   3.931   9.568  0.2247 -0.5662 -0.5446
    4CHL1  H21A  275   0.809   3.822   9.549  0.2415 -0.8991  1.2344
    4CHL1  H21B  276   0.742   3.989   9.491  0.4926  0.9611  0.3776
    4CHL1  H21C  277   0.738   3.950   9.660  0.3425 -1.4365 -0.2801
    4CHL1   C22  278   1.011   4.010   9.451 -0.2614 -0.6121 -0.3509
    4CHL1  H22A  279   1.104   4.070   9.464 -0.2488 -0.4493 -1.1215
    4CHL1  H22B  280   1.044   3.908   9.421  2.5090 -0.5743  2.1300
    4CHL1   C23  281   0.944   4.081   9.333 -0.0939 -0.6967  0.1895
    4CHL1  H23A  282   0.851   4.027   9.307 -0.5700  0.0744  0.2594
    4CHL1  H23B  283   0.904   4.181   9.362  0.5167  0.4573 -2.6393
    4CHL1   C24  284   1.035   4.086   9.206 -0.2710 -0.5281  0.1428
    4CHL1  H24A  285   1.124   4.131   9.255  0.0132 -0.5391 -0.3660
    4CHL1  H24B  286   1.053   3.985   9.164 -1.0380 -0.8124  0.4693
    4CHL1   C25  287   1.002   4.182   9.087  0.3459  0.5884  0.0850
    4CHL1   H25  288   0.913   4.141   9.033 -1.3779  1.2114  2.3046
    4CHL1   C26  289   0.970   4.328   9.117 -0.1013 -0.4689  0.9583
    4CHL1  H26A  290   1.037   4.366   9.197 -2.5027 -2.4229  4.1495
    4CHL1  H26B  291   0.969   4.393   9.027  0.6111 -0.3251  1.0459
    4CHL1  H26C  292   0.870   4.339   9.163 -2.1021 -1.6436 -2.7330
    4CHL1   C27  293   1.119   4.177   8.984  0.1941 -0.8911  0.3570
    4CHL1  H27A  294   1.111   4.071   8.950 -2.3045 -1.8930  3.5882
    4CHL1  H27B  295   1.092   4.252   8.907 -0.6215 -1.9975 -0.4751
    4CHL1  H27C  296   1.218   4.187   9.033  0.9542 -0.9514 -1.1159
    5CHL1    C3  297   2.068   0.808  10.145 -0.7993 -0.1379 -0.2926
    5CHL1    H3  298   2.169   0.789  10.103  0.5175  2.4043  1.4938
    5CHL1    O3  299   2.078   0.797  10.280 -0.5015  0.2970 -0.3239
    5CHL1   H3'  300   2.052   0.709  10.308  1.1367  0.8621  3.5875
    5CHL1    C4  301   2.031   0.953  10.103  0.2929 -0.9748  0.1206
    5CHL1   H4A  302   1.935   0.990  10.145 -0.3487 -0.3449 -1.8044
    5CHL1   H4B  303   2.114   1.013  10.143  1.4550 -3.0212  0.9486
    5CHL1    C5  304   2.018   0.973   9.958 -0.3746 -0.1879  0.0887
    5CHL1    C6  305   2.084   1.075   9.897 -0.4913 -0.4240  0.4020
    5CHL1    H6  306   2.147   1.146   9.953 -1.3580  1.6327 -1.1328
    5CHL1    C7  307   2.076   1.096   9.748 -0.3348 -0.0589 -0.4119
    5CHL1   H7A  308   2.086   1.204   9.721 -0.9076  0.4725  1.3503
    5CHL1   H7B  309   2.166   1.038   9.720  0.4958  1.3648 -0.8154
    5CHL1    C8  310   1.948   1.033   9.684  0.5302 -0.2648  0.7443
    5CHL1    H8  311   1.854   1.082   9.720 -0.9210 -1.2339 -1.5358
    5CHL1   C14  312   1.961   1.029   9.535 -0.4472 -0.3757 -0.6759
    5CHL1   H14  313   2.052   0.965   9.521  1.1035  0.5625  3.5369
    5CHL1   C15  314   1.983   1.164   9.458  0.6483  0.1120 -0.3190
    5CHL1  H15A  315   1.908   1.237   9.494 -3.1051 -3.5476  0.1186
    5CHL1  H15B  316   2.083   1.209   9.469  1.0152 -0.8455  0.3957
    5CHL1   C16  317   1.960   1.128   9.317 -0.2542  0.5010  0.5650
    5CHL1  H16A  318   1.881   1.195   9.278 -0.8774  0.4587  1.7358
    5CHL1  H16B  319   2.052   1.129   9.253 -1.6965 -0.2824 -1.6579
    5CHL1   C17  320   1.907   0.977   9.314 -0.1897 -0.4710 -1.2103
    5CHL1   H17  321   1.995   0.910   9.304  0.1937 -0.1389 -0.1817
    5CHL1   C13  322   1.853   0.956   9.458  1.1526  0.4519 -0.3939
    5CHL1   C18  323   1.725   1.034   9.469  0.3012 -0.0858 -0.1605
    5CHL1  H18A  324   1.726   1.128   9.411 -2.2596  0.9545  1.3229
    5CHL1  H18B  325   1.650   0.963   9.428  1.2204 -1.8204  1.0385
    5CHL1  H18C  326   1.697   1.054   9.574 -1.7372 -4.4136  0.3598
    5CHL1   C12  327   1.844   0.811   9.506 -0.3593  0.3276  0.1619
    5CHL1  H12A  328   1.767   0.745   9.459  2.0365 -2.0445 -0.6502
    5CHL1  H12B  329   1.941   0.758   9.495 -1.5765 -2.4046  1.5702
    5CHL1   C11  330   1.820   0.800   9.658 -0.3891 -0.4180 -0.4489
    5CHL1  H11A  331   1.717   0.838   9.677 -0.1929 -0.2351  0.2810
    5CHL1  H11B  332   1.821   0.691   9.683 -0.5457  0.2356  2.9270
    5CHL1    C9  333   1.922   0.884   9.735 -0.0629  0.2941 -0.5001
    5CHL1    H9  334   2.019   0.833   9.719 -1.1260 -1.6647 -0.9510
    5CHL1   C10  335   1.922   0.870   9.891 -0.1252 -0.9876 -0.2849
    5CHL1   C19  336   1.788   0.900   9.944 -0.6147  0.0400  0.5202
    5CHL1  H19A  337   1.715   0.821   9.916 -0.7748  0.7095 -1.0345
    5CHL1  H19B  338   1.785   0.907  10.055 -0.1119 -1.5385  0.6569
    5CHL1  H19C  339   1.739   0.992   9.904 -0.0091 -0.4448 -1.4414
    5CHL1    C1  340   1.963   0.731   9.938 -0.2355  0.5100  0.5701
    5CHL1   H1A  341   1.905   0.655   9.882  2.2499  1.0691 -3.1486
    5CHL1   H1B  342   2.064   0.720   9.892 -1.4738  0.2009 -2.3023
    5CHL1    C2  343   1.973   0.707  10.087  0.1260 -0.0984  0.0297
    5CHL1   H2A  344   2.026   0.611  10.107  0.0840 -0.9971 -3.4648
    5CHL1   H2B  345   1.873   0.704  10.136  0.1263  4.1561  0.6196
    5CHL1   C20  346   1.819   0.946   9.191 -0.5866  0.0763  0.3659
    5CHL1   H20  347   1.714   0.977   9.213 -0.7351  0.8862 -1.2541
    5CHL1   C21  348   1.811   0.794   9.163 -0.1548  0.7893  0.0221
    5CHL1  H21A  349   1.737   0.776   9.083  0.0358  1.5098 -0.3169
    5CHL1  H21B  350   1.783   0.743   9.258  3.3878 -0.9944  0.2756
    5CHL1  H21C  351   1.905   0.747   9.128  1.3100  2.0367  2.0807
    5CHL1   C22  352   1.860   1.026   9.062 -0.0982  0.0279  0.4853
    5CHL1  H22A  353   1.870   1.136   9.075  1.4119  0.1984 -1.5345
    5CHL1  H22B  354   1.955   0.990   9.017 -1.1618 -1.4700 -0.6424
    5CHL1   C23  355   1.758   1.019   8.945  0.1022  0.2593 -0.4437
    5CHL1  H23A  356   1.809   1.069   8.860  1.2560 -0.5683 -0.2724
    5CHL1  H23B  357   1.741   0.910   8.926  1.1818 -0.2456  1.2924
    5CHL1   C24  358   1.624   1.090   8.978 -0.0926 -0.3788  0.0455
    5CHL1  H24A  359   1.567   1.090   8.883 -3.0094  0.2636  1.6912
    5CHL1  H24B  360   1.573   1.023   9.050 -3.1052 -1.0984 -2.5766
    5CHL1   C25  361   1.636   1.238   9.020 -0.1443 -0.6815 -0.0795
    5CHL1   H25  362   1.696   1.249   9.112 -0.1335  2.6969 -0.3710
    5CHL1   C26  363   1.705   1.323   8.914 -1.0977 -0.1806 -0.3198
    5CHL1  H26A  364   1.641   1.334   8.825  0.5370  0.8035 -1.4333
    5CHL1  H26B  365   1.710   1.429   8.950 -0.7534 -0.0948 -0.6174
    5CHL1  H26C  366   1.810   1.292   8.896 -1.3769  0.7526 -4.4786
    5CHL1   C27  367   1.499   1.305   9.038 -0.3258 -0.4536  0.8364
    5CHL1  H27A  368   1.461   1.319   8.935  1.1070  1.4545  0.5351
    5CHL1  H27B  369   1.421   1.242   9.086 -0.9616 -2.7515 -2.8205
    5CHL1  H27C  370   1.510   1.405   9.085  2.7202  1.1193 -2.6933
    6CHL1    C3  371   5.660   6.696  10.185 -0.6903  0.3850 -0.5003
    6CHL1    H3  372   5.762   6.656  10.196  0.3972  2.9483 -0.5600
    6CHL1    O3  373   5.604   6.709  10.314 -0.5234  0.3571 -0.2798
    6CHL1   H3'  374   5.512   6.731  10.302 -0.3508 -0.1174 -3.3319
    6CHL1    C4  375   5.670   6.833  10.128  0.4668 -0.1952  0.0384
    6CHL1   H4A  376   5.571   6.884  10.139  1.3614  1.1445  2.8581
    6CHL1   H4B  377   5.747   6.891  10.183  0.2611  1.1458 -1.0244
    6CHL1    C5  378   5.692   6.835   9.978 -0.9098  0.3886 -0.8068
    6CHL1    C6  379   5.770   6.933   9.919  0.5125  0.6566  0.1406
    6CHL1    H6  380   5.818   7.014   9.977 -0.9030  1.9712 -0.4651
    6CHL1    C7  381   5.800   6.937   9.774  0.1083 -1.2622 -0.1913
    6CHL1   H7A  382   5.791   7.044   9.746  0.4827 -1.5735 -1.6065
    6CHL1   H7B  383   5.910   6.919   9.769  1.2677  3.8949  0.7529
    6CHL1    C8  384   5.726   6.843   9.683 -0.3147 -0.6453  0.1162
    6CHL1    H8  385   5.627   6.887   9.659  0.3292  0.2641 -0.9419
    6CHL1   C14  386   5.796   6.834   9.549  0.1488  0.2911  0.4076
    6CHL1   H14  387   5.898   6.792   9.565 -0.1940 -0.4662  0.6117
    6CHL1   C15  388   5.840   6.960   9.481 -0.5292  0.0073 -0.0856
    6CHL1  H15A  389   5.765   7.042   9.483 -1.4422 -0.6459 -2.7848
    6CHL1  H15B  390   5.939   7.003   9.508  0.3176  0.0598 -2.9041
    6CHL1   C16  391   5.850   6.914   9.337 -0.7431  0.0096  1.2250
    6CHL1  H16A  392   5.772   6.971   9.282  1.5742  3.4188  1.1805
    6CHL1  H16B  393   5.951   6.931   9.295 -0.9446 -1.4182  0.0914
    6CHL1   C17  394   5.810   6.765   9.323 -0.1470 -0.4708  0.0780
    6CHL1   H17  395   5.896   6.698   9.345  1.0690  1.7561  2.6886
    6CHL1   C13  396   5.719   6.749   9.445 -0.3711  0.3447  0.2914
    6CHL1   C18  397   5.584   6.809   9.422 -0.5903 -0.3509 -0.1486
    6CHL1  H18A  398   5.573   6.913   9.384 -2.3540 -0.8025 -0.9582
    6CHL1  H18B  399   5.528   6.750   9.346 -0.5402 -0.8811  0.2205
    6CHL1  H18C  400   5.527   6.796   9.516  0.2321 -3.1402  0.0540
    6CHL1   C12  401   5.710   6.607   9.507 -0.1806 -0.4346 -0.3130
    6CHL1  H12A  402   5.643   6.535   9.455 -2.4204  1.8599 -0.7888
    6CHL1  H12B  403   5.813   6.564   9.508 -0.1815 -0.4618 -0.8191
    6CHL1   C11  404   5.651   6.603   9.654 -0.7054 -0.0163 -0.0828
    6CHL1  H11A  405   5.546   6.636   9.642 -0.6921  0.2371  0.4739
    6CHL1  H11B  406   5.654   6.501   9.696  1.2414 -0.8328 -1.9641
    6CHL1    C9  407   5.714   6.702   9.756 -0.2401 -0.6943  0.5853
    6CHL1    H9  408   5.818   6.673   9.780  0.2636  0.2634 -0.3680
    6CHL1   C10  409   5.636   6.715   9.894 -0.6412 -0.2739 -0.2618
    6CHL1   C19  410   5.485   6.755   9.867  0.3605 -0.2083 -0.7438
    6CHL1  H19A  411   5.430   6.679   9.808 -2.5913  0.6456  0.7456
    6CHL1  H19B  412   5.435   6.775   9.964  0.6505 -0.1114 -0.6118
    6CHL1  H19C  413   5.473   6.848   9.807 -3.0002 -0.0799 -0.0514
    6CHL1    C1  414   5.651   6.578   9.971 -0.0117 -0.0602 -0.1529
    6CHL1   H1A  415   5.607   6.491   9.917 -0.6154 -0.9563  1.6901
    6CHL1   H1B  416   5.758   6.561   9.997  0.1652  1.5141  0.2580
    6CHL1    C2  417   5.586   6.584  10.113 -0.5308 -0.6081  0.0946
    6CHL1   H2A  418   5.582   6.484  10.162 -0.2973 -0.6266  0.0742
    6CHL1   H2B  419   5.478   6.610  10.109 -0.4563  0.1497  1.8980
    6CHL1   C20  420   5.741   6.730   9.186 -0.1616 -0.2713 -0.1571
    6CHL1   H20  421   5.648   6.783   9.156 -0.7881 -0.4335  1.4091
    6CHL1   C21  422   5.709   6.584   9.179 -0.2047  0.1522  0.4878
    6CHL1  H21A  423   5.675   6.557   9.077 -3.3051  2.4877  0.7567
    6CHL1  H21B  424   5.631   6.564   9.256 -0.3464  2.8971  1.1367
    6CHL1  H21C  425   5.792   6.514   9.204 -1.2658 -1.0801  0.7028
    6CHL1   C22  426   5.843   6.763   9.070  0.4453  0.0639  0.2766
    6CHL1  H22A  427   5.932   6.812   9.114  1.6053 -3.4107  2.2410
    6CHL1  H22B  428   5.874   6.669   9.019  1.5037 -0.2806  1.5092
    6CHL1   C23  429   5.785   6.850   8.962  0.7628  0.6696  0.4121
    6CHL1  H23A  430   5.740   6.936   9.016 -1.1923  0.1747 -0.3450
    6CHL1  H23B  431   5.862   6.888   8.892 -0.4176  0.1266 -1.2543
    6CHL1   C24  432   5.668   6.790   8.876 -0.6871 -0.0383  0.2633
    6CHL1  H24A  433   5.714   6.733   8.793 -2.5799 -1.5574  0.1685
    6CHL1  H24B  434   5.599   6.726   8.935  1.2415 -2.3397  0.1514
    6CHL1   C25  435   5.584   6.898   8.805 -0.2917  0.6683  0.1288
    6CHL1   H25  436   5.553   6.983   8.870  2.5052  2.2940 -0.4896
    6CHL1   C26  437   5.672   6.974   8.702 -0.4456  0.6107  0.9700
    6CHL1  H26A  438   5.772   6.993   8.747  0.0904  0.0126  0.0569
    6CHL1  H26B  439   5.698   6.906   8.618  1.1323 -0.4764  2.2730
    6CHL1  H26C  440   5.618   7.064   8.665  0.9813  1.3155  0.5559
    6CHL1   C27  441   5.462   6.838   8.751  0.3919  0.0932  0.5973
    6CHL1  H27A  442   5.411   6.776   8.828  0.2350  0.0210  0.4383
    6CHL1  H27B  443   5.380   6.910   8.728 -1.6787 -2.1377  0.5677
    6CHL1  H27C  444   5.474   6.780   8.657 -0.2338  1.9341 -0.6769
    7CHL1    C3  445   3.010   1.834  10.261 -0.0840  0.2135  0.4784
    7CHL1    H3  446   2.984   1.729  10.235  0.1985  0.0726  0.7571
    7CHL1    O3  447   3.018   1.843  10.403  0.1291  0.1308 -0.0032
    7CHL1   H3'  448   3.013   1.938  10.412 -3.7708  0.0331  0.4884
    7CHL1    C4  449   3.143   1.867  10.194 -0.0742  0.1185  0.2509
    7CHL1   H4A  450   3.190   1.960  10.232  0.8857 -0.3455  0.2355
    7CHL1   H4B  451   3.207   1.779  10.218 -0.9417 -1.2779 -2.1262
    7CHL1    C5  452   3.126   1.858  10.038 -0.2376 -0.2626 -0.2308
    7CHL1    C6  453   3.214   1.788   9.965 -0.4569 -0.1190  0.4039
    7CHL1    H6  454   3.282   1.731  10.029 -1.5481 -1.7058  0.1912
    7CHL1    C7  455   3.219   1.785   9.809 -0.1624  0.1931  0.1943
    7CHL1   H7A  456   3.322   1.795   9.767 -0.1482  0.0179  0.1872
    7CHL1   H7B  457   3.189   1.685   9.772 -1.3124  0.9733 -1.0872
    7CHL1    C8  458   3.127   1.894   9.747  0.3866 -0.4747 -0.1059
    7CHL1    H8  459   3.183   1.990   9.738  0.2437 -0.4527 -0.8936
    7CHL1   C14  460   3.085   1.852   9.600 -0.0171  0.3911 -1.1326
    7CHL1   H14  461   3.020   1.762   9.610 -0.1263  0.2824 -2.6038
    7CHL1   C15  462   3.197   1.814   9.502 -0.1391 -0.6558 -0.3018
    7CHL1  H15A  463   3.282   1.885   9.501 -1.1842  0.6400  0.8153
    7CHL1  H15B  464   3.243   1.714   9.521  0.2082 -0.5793 -0.7171
    7CHL1   C16  465   3.139   1.830   9.362 -0.0846  0.7310  0.6995
    7CHL1  H16A  466   3.207   1.885   9.293 -0.3552  0.2215  0.0143
    7CHL1  H16B  467   3.132   1.728   9.318  0.3888  0.3391  1.5048
    7CHL1   C17  468   2.994   1.881   9.376 -0.2017 -0.5355  1.2402
    7CHL1   H17  469   2.937   1.786   9.385  0.9620 -1.3910 -0.0404
    7CHL1   C13  470   2.997   1.943   9.517 -0.1315  0.3123  0.3589
    7CHL1   C18  471   3.062   2.084   9.503 -0.4481  0.2208 -0.4843
    7CHL1  H18A  472   3.094   2.118   9.603  0.2566 -1.4385 -0.1077
    7CHL1  H18B  473   3.149   2.067   9.435  1.3850 -1.5662  2.1037
    7CHL1  H18C  474   2.993   2.161   9.462 -0.2360  0.1554 -0.9714
    7CHL1   C12  475   2.868   1.962   9.596  0.4089 -0.3970  0.5552
    7CHL1  H12A  476   2.809   2.047   9.554 -0.7062 -0.2794  2.2846
    7CHL1  H12B  477   2.808   1.871   9.617  1.7704 -1.3151  0.5831
    7CHL1   C11  478   2.905   2.010   9.747  0.2031  0.1411  0.1248
    7CHL1  H11A  479   2.946   2.113   9.747 -1.6089  0.9668 -2.4924
    7CHL1  H11B  480   2.808   2.018   9.799  1.2450 -0.0639  2.1999
    7CHL1    C9  481   3.002   1.915   9.828  0.8269 -0.4503  0.3656
    7CHL1    H9  482   2.944   1.821   9.821 -1.4063  0.7799  1.2403
    7CHL1   C10  483   3.023   1.946   9.978  0.0699  0.2439  0.4526
    7CHL1   C19  484   3.051   2.095   9.984  0.1185  0.4779  0.4413
    7CHL1  H19A  485   2.977   2.160   9.934  1.0403 -0.2057 -1.9643
    7CHL1  H19B  486   3.062   2.132  10.088  3.4130  0.9219  0.0595
    7CHL1  H19C  487   3.152   2.113   9.941  0.1174 -2.3036 -0.9956
    7CHL1    C1  488   2.884   1.917  10.058 -0.1423 -0.2872  0.6792
    7CHL1   H1A  489   2.804   1.986  10.025  0.3272 -0.2339 -0.3698
    7CHL1   H1B  490   2.866   1.814  10.022 -1.4589  0.4324 -0.8144
    7CHL1    C2  491   2.901   1.926  10.209 -0.0085  0.4459  0.4335
    7CHL1   H2A  492   2.803   1.898  10.253 -0.4311  1.4857  0.1936
    7CHL1   H2B  493   2.919   2.031  10.241 -2.5387  0.1139  3.4054
    7CHL1   C20  494   2.959   1.959   9.251 -0.4751 -0.3645 -0.4211
    7CHL1   H20  495   3.014   2.055   9.249  0.9491 -1.1003  0.9549
    7CHL1   C21  496   2.818   2.002   9.253  0.0702 -0.0281 -0.5448
    7CHL1  H21A  497   2.800   2.065   9.342  1.6268  0.5938 -0.6285
    7CHL1  H21B  498   2.753   1.913   9.262  1.1597 -1.0087 -1.8702
    7CHL1  H21C  499   2.786   2.060   9.164 -1.7253 -0.5335 -0.2531
    7CHL1   C22  500   2.995   1.901   9.111 -0.3904  0.3298  0.5181
    7CHL1  H22A  501   3.039   1.800   9.126  1.3002  1.1627  1.4098
    7CHL1  H22B  502   2.899   1.883   9.058  0.2568 -0.1500 -0.5192
    7CHL1   C23  503   3.094   1.973   9.014  0.5847 -0.8674 -0.0032
    7CHL1  H23A  504   3.053   2.075   8.998 -0.9184 -1.3208  0.8421
    7CHL1  H23B  505   3.197   1.977   9.055  0.4181 -2.0504  0.5636
    7CHL1   C24  506   3.101   1.895   8.876  0.0140  0.2621  0.0094
    7CHL1  H24A  507   3.126   1.788   8.897  1.0558  0.3510 -0.7054
    7CHL1  H24B  508   3.010   1.899   8.813  0.9201  2.4360 -1.2656
    7CHL1   C25  509   3.205   1.940   8.771 -0.3101 -0.0810 -0.0390
    7CHL1   H25  510   3.309   1.927   8.806  1.1427  0.9560 -3.5151
    7CHL1   C26  511   3.185   1.853   8.641  0.2529  0.3238 -0.9923
    7CHL1  H26A  512   3.276   1.875   8.581  2.2966  0.8750  2.0818
    7CHL1  H26B  513   3.195   1.746   8.668  0.3100  1.1818  3.0520
    7CHL1  H26C  514   3.092   1.889   8.592 -0.5874  1.5895  1.3772
    7CHL1   C27  515   3.183   2.094   8.741  0.1251  0.2898 -0.1478
    7CHL1  H27A  516   3.271   2.137   8.688 -0.0145  0.6227 -0.1116
    7CHL1  H27B  517   3.093   2.099   8.676 -1.4843 -1.5668  1.8299
    7CHL1  H27C  518   3.173   2.150   8.836  0.2384 -2.0477  1.3116
    8CHL1    C3  519   2.642   3.800  10.320 -0.0109 -0.1721 -0.3907
    8CHL1    H3  520   2.732   3.862  10.301  1.0903 -1.5510  0.1143
    8CHL1    O3  521   2.634   3.793  10.465 -0.4880  0.3427  0.1930
    8CHL1   H3'  522   2.607   3.881  10.493  2.7667  2.0421 -1.4318
    8CHL1    C4  523   2.515   3.858  10.250 -0.9970 -0.1495 -0.2566
    8CHL1   H4A  524   2.430   3.797  10.287 -1.6125 -0.4476 -2.0524
    8CHL1   H4B  525   2.500   3.960  10.292 -0.4159 -0.5333  0.9199
    8CHL1    C5  526   2.530   3.866  10.095 -0.3527  0.5131 -0.4894
    8CHL1    C6  527   2.503   3.982  10.028  0.5388 -0.3465 -0.1987
    8CHL1    H6  528   2.476   4.076  10.078  1.3052  0.3388 -1.0390
    8CHL1    C7  529   2.522   3.991   9.877  0.3885 -0.1381  0.4322
    8CHL1   H7A  530   2.442   4.062   9.846 -0.8650 -1.7161 -0.1045
    8CHL1   H7B  531   2.623   4.032   9.856  0.5338 -1.2842 -1.2936
    8CHL1    C8  532   2.515   3.855   9.808  0.0775 -0.3342 -0.6155
    8CHL1    H8  533   2.412   3.817   9.824  0.2774 -1.0649 -1.0184
    8CHL1   C14  534   2.549   3.867   9.661 -0.4065 -1.0300 -0.5033
    8CHL1   H14  535   2.653   3.906   9.659 -1.2116  1.2782 -0.6989
    8CHL1   C15  536   2.466   3.966   9.574  0.4801  0.3880  0.6362
    8CHL1  H15A  537   2.361   3.954   9.609  0.5932  0.1935  0.9084
    8CHL1  H15B  538   2.513   4.064   9.598  1.3912  0.0126  0.3974
    8CHL1   C16  539   2.484   3.924   9.431 -0.4042  0.3346 -0.2106
    8CHL1  H16A  540   2.383   3.894   9.395 -0.1328  0.1580 -0.8359
    8CHL1  H16B  541   2.524   3.993   9.353 -1.5116  1.2882  0.0309
    8CHL1   C17  542   2.574   3.794   9.437  0.3637  0.9091  0.4231
    8CHL1   H17  543   2.681   3.820   9.421  0.4104  1.1822  1.1792
    8CHL1   C13  544   2.554   3.739   9.578 -0.3156  0.5143 -0.4703
    8CHL1   C18  545   2.418   3.667   9.582  0.0720 -0.0051  0.3531
    8CHL1  H18A  546   2.415   3.564   9.541  1.7667 -0.4315  1.2241
    8CHL1  H18B  547   2.375   3.668   9.684  5.0170  0.2382  2.7104
    8CHL1  H18C  548   2.346   3.719   9.515  0.3480 -0.2481 -0.1363
    8CHL1   C12  549   2.669   3.665   9.652  0.1254 -0.7121  0.7885
    8CHL1  H12A  550   2.701   3.571   9.601  1.6922 -0.1825  0.7400
    8CHL1  H12B  551   2.761   3.725   9.666  0.1011 -0.3888 -0.3918
    8CHL1   C11  552   2.633   3.632   9.798  0.2257  0.7213 -0.0866
    8CHL1  H11A  553   2.543   3.567   9.793 -0.4871  1.7071 -0.2929
    8CHL1  H11B  554   2.719   3.576   9.843 -0.1672  0.3909  0.2629
    8CHL1    C9  555   2.613   3.762   9.885 -0.1937  0.2922 -0.1136
    8CHL1    H9  556   2.716   3.801   9.888  0.3173 -1.0483  1.0018
    8CHL1   C10  557   2.569   3.732  10.026  0.6548  0.0223 -0.6532
    8CHL1   C19  558   2.461   3.626  10.039  0.1281 -0.5287 -0.1730
    8CHL1  H19A  559   2.431   3.604  10.143 -0.0272 -1.0544 -0.3255
    8CHL1  H19B  560   2.363   3.638   9.988 -0.3733  0.9719  1.0864
    8CHL1  H19C  561   2.509   3.528  10.015 -0.3063 -0.9176  0.5135
    8CHL1    C1  562   2.690   3.679  10.111  0.4654 -0.0400  0.4889
    8CHL1   H1A  563   2.714   3.580  10.065  1.1729  0.2120  0.3082
    8CHL1   H1B  564   2.770   3.748  10.079 -0.4639  0.6520 -0.3761
    8CHL1    C2  565   2.672   3.662  10.265  0.5852 -0.9924  0.3212
    8CHL1   H2A  566   2.764   3.635  10.321  0.9373 -1.4275 -0.4538
    8CHL1   H2B  567   2.594   3.589  10.294  2.2183 -2.8107  0.3556
    8CHL1   C20  568   2.553   3.691   9.313  0.0354  0.1768 -0.5290
    8CHL1   H20  569   2.452   3.648   9.330  0.2154  0.5046  1.7561
    8CHL1   C21  570   2.638   3.562   9.315  0.0315 -0.4442 -0.0661
    8CHL1  H21A  571   2.670   3.532   9.416 -0.5602  0.8121  0.5235
    8CHL1  H21B  572   2.731   3.593   9.262 -0.3128  0.5563 -0.1204
    8CHL1  H21C  573   2.583   3.479   9.266 -0.9421  0.5847 -0.7903
    8CHL1   C22  574   2.563   3.764   9.182  0.1815  0.0118 -0.1734
    8CHL1  H22A  575   2.487   3.845   9.187  0.7210  0.5640 -0.7120
    8CHL1  H22B  576   2.668   3.792   9.163  0.3269 -0.3644  0.0690
    8CHL1   C23  577   2.532   3.679   9.060  0.4338  0.1835 -0.8433
    8CHL1  H23A  578   2.541   3.569   9.062 -1.7204 -0.0635 -1.5123
    8CHL1  H23B  579   2.423   3.688   9.038  0.1397 -1.5756 -0.2340
    8CHL1   C24  580   2.626   3.725   8.951  0.0843  0.4775  0.5950
    8CHL1  H24A  581   2.635   3.835   8.961  0.1796  0.2873  3.1134
    8CHL1  H24B  582   2.727   3.683   8.967 -0.9072 -1.4055  2.3695
    8CHL1   C25  583   2.587   3.679   8.805  0.4254 -0.5623  0.2932
    8CHL1   H25  584   2.483   3.707   8.780  1.0420  0.7420 -1.0283
    8CHL1   C26  585   2.686   3.745   8.715  0.3618 -0.0626  0.1675
    8CHL1  H26A  586   2.781   3.759   8.770  0.4832 -1.9657  0.4952
    8CHL1  H26B  587   2.710   3.691   8.621 -1.6411 -0.9332  0.1061
    8CHL1  H26C  588   2.643   3.848   8.708  0.1249  0.0460  2.3891
    8CHL1   C27  589   2.605   3.530   8.781 -0.0466  0.5666 -0.2999
    8CHL1  H27A  590   2.585   3.496   8.677  1.1106  0.9123 -0.6531
    8CHL1  H27B  591   2.703   3.491   8.816 -0.7323 -1.0512 -0.1103
    8CHL1  H27C  592   2.533   3.482   8.850 -0.1079 -0.3930 -1.0147
    9CHL1    C3  593   6.445   1.122   9.953 -0.1818 -0.1210 -0.3238
    9CHL1    H3  594   6.550   1.158   9.946 -0.3083  0.5096  0.8018
    9CHL1    O3  595   6.412   1.097  10.090  0.1978  0.0257  0.3972
    9CHL1   H3'  596   6.317   1.103  10.100  0.3391  2.5080  0.6897
    9CHL1    C4  597   6.368   1.244   9.916  0.2614 -0.2402  0.9576
    9CHL1   H4A  598   6.258   1.230   9.925  0.2427 -1.8013 -1.0053
    9CHL1   H4B  599   6.410   1.322   9.982  1.1273 -1.5708  2.0304
    9CHL1    C5  600   6.394   1.286   9.768  0.6552  0.2466 -1.1225
    9CHL1    C6  601   6.446   1.402   9.735 -0.3121  0.1814 -0.1121
    9CHL1    H6  602   6.462   1.475   9.814 -0.9553  0.6395 -0.3929
    9CHL1    C7  603   6.476   1.445   9.594  0.0085 -0.4797  0.4662
    9CHL1   H7A  604   6.443   1.547   9.564 -1.1913 -1.3199 -1.2857
    9CHL1   H7B  605   6.584   1.444   9.567 -0.0783 -0.3133  0.1005
    9CHL1    C8  606   6.407   1.352   9.487  0.8565 -0.0611 -0.1538
    9CHL1    H8  607   6.297   1.366   9.480  0.9866  1.1937  0.0980
    9CHL1   C14  608   6.460   1.378   9.348  0.8158  0.4925 -0.3123
    9CHL1   H14  609   6.565   1.343   9.363  0.5847 -0.5949 -1.0672
    9CHL1   C15  610   6.473   1.516   9.301  0.2455 -0.2460  0.4444
    9CHL1  H15A  611   6.375   1.568   9.303 -0.2588 -1.1529 -0.3292
    9CHL1  H15B  612   6.549   1.570   9.362  0.2015  0.4337 -0.0933
    9CHL1   C16  613   6.527   1.503   9.160 -0.3656 -0.7584 -0.0582
    9CHL1  H16A  614   6.467   1.572   9.097  0.2027 -0.3964 -0.2085
    9CHL1  H16B  615   6.633   1.531   9.147 -0.5796  0.1407  0.0309
    9CHL1   C17  616   6.515   1.352   9.126 -0.6353 -0.5440 -0.1682
    9CHL1   H17  617   6.612   1.302   9.147 -0.5628 -0.3597 -0.0680
    9CHL1   C13  618   6.420   1.291   9.236 -0.5024 -0.3060 -0.0638
    9CHL1   C18  619   6.276   1.328   9.201  0.1915  0.3780 -0.3073
    9CHL1  H18A  620   6.210   1.317   9.290  0.8978  0.2839  0.2091
    9CHL1  H18B  621   6.266   1.426   9.149  1.5763  1.6782  1.7548
    9CHL1  H18C  622   6.247   1.255   9.122  1.5318  0.6691 -1.0931
    9CHL1   C12  623   6.450   1.145   9.277 -0.1357  0.6160 -0.4022
    9CHL1  H12A  624   6.404   1.076   9.202  1.4244  1.4402 -2.2157
    9CHL1  H12B  625   6.556   1.123   9.298 -0.5068 -0.3468  0.5886
    9CHL1   C11  626   6.376   1.106   9.410  0.4782  0.2922 -0.1992
    9CHL1  H11A  627   6.267   1.106   9.390  0.4213 -2.0015 -0.1711
    9CHL1  H11B  628   6.404   1.002   9.436 -0.3388 -0.6712 -2.8820
    9CHL1    C9  629   6.428   1.203   9.524  0.1358  0.0767  1.1374
    9CHL1    H9  630   6.537   1.186   9.537 -0.2497 -1.0628  3.4889
    9CHL1   C10  631   6.362   1.176   9.663  0.0400 -0.3131 -0.2833
    9CHL1   C19  632   6.205   1.162   9.663 -0.3658  0.6260 -0.3177
    9CHL1  H19A  633   6.176   1.146   9.769 -0.5641 -1.9121 -0.6900
    9CHL1  H19B  634   6.155   1.255   9.628 -1.5020 -0.0222 -0.4514
    9CHL1  H19C  635   6.168   1.074   9.606  3.2146 -1.4472  0.2687
    9CHL1    C1  636   6.420   1.046   9.710  0.6390 -0.0988 -1.2279
    9CHL1   H1A  637   6.375   0.963   9.652 -0.0320  0.2293 -1.1867
    9CHL1   H1B  638   6.530   1.045   9.690  0.3828  3.0088 -3.6192
    9CHL1    C2  639   6.400   1.013   9.865 -0.1977 -0.4846  0.3782
    9CHL1   H2A  640   6.457   0.920   9.885 -0.5515 -0.3377  2.1885
    9CHL1   H2B  641   6.292   0.995   9.887  0.3156 -1.9944  1.9607
    9CHL1   C20  642   6.496   1.321   8.981 -0.6149 -1.1964 -0.3020
    9CHL1   H20  643   6.394   1.349   8.948 -0.4688  1.0257  0.9767
    9CHL1   C21  644   6.531   1.172   8.956  0.7513 -0.1657  0.0858
    9CHL1  H21A  645   6.460   1.105   9.008 -0.0943 -1.1562 -2.1916
    9CHL1  H21B  646   6.635   1.141   8.982  0.7898 -0.8730 -0.8468
    9CHL1  H21C  647   6.522   1.139   8.850 -0.2918 -2.3070  0.7731
    9CHL1   C22  648   6.591   1.417   8.892 -0.4590 -0.3249 -0.6667
    9CHL1  H22A  649   6.635   1.505   8.944  0.5680 -1.5732  0.6652
    9CHL1  H22B  650   6.674   1.346   8.869  1.1542  0.5958  1.8970
    9CHL1   C23  651   6.510   1.465   8.764 -0.7176 -0.5285  0.5820
    9CHL1  H23A  652   6.418   1.524   8.785 -0.1308  1.3152 -1.6007
    9CHL1  H23B  653   6.580   1.531   8.709  0.8705 -2.4139  0.2171
    9CHL1   C24  654   6.484   1.345   8.660 -0.5341  0.4360 -1.3129
    9CHL1  H24A  655   6.580   1.289   8.656 -0.8305 -0.2154  0.1592
    9CHL1  H24B  656   6.410   1.268   8.690  1.6979 -0.9372  1.1398
    9CHL1   C25  657   6.454   1.384   8.511  0.0024  0.0184  0.0095
    9CHL1   H25  658   6.535   1.450   8.472  1.0453 -0.9290  0.4821
    9CHL1   C26  659   6.467   1.258   8.426  0.8543  0.5475  0.4277
    9CHL1  H26A  660   6.449   1.298   8.324 -1.0878 -1.3487 -0.0243
    9CHL1  H26B  661   6.567   1.209   8.428 -0.0625 -1.4407 -0.0127
    9CHL1  H26C  662   6.389   1.184   8.453 -0.2146  2.0452  1.6219
    9CHL1   C27  663   6.322   1.459   8.493  0.2767  0.0065 -0.1775
    9CHL1  H27A  664   6.242   1.389   8.525  0.9891 -0.7402  0.0269
    9CHL1  H27B  665   6.326   1.553   8.551 -1.1035  0.1176 -0.2323
    9CHL1  H27C  666   6.308   1.483   8.386 -0.1914 -1.3045 -0.4258
   10CHL1    C3  667   4.671   3.700  10.241 -0.6009 -0.4324  0.0544
   10CHL1    H3  668   4.695   3.592  10.236  2.4896  0.0552  1.7525
   10CHL1    O3  669   4.701   3.734  10.374  0.1751 -0.6737 -0.9024
   10CHL1   H3'  670   4.620   3.749  10.423  0.0059  1.5836 -1.7165
   10CHL1    C4  671   4.757   3.773  10.135 -0.3948  0.6231 -0.5271
   10CHL1   H4A  672   4.747   3.880  10.163  1.1060  0.2225  1.8064
   10CHL1   H4B  673   4.862   3.764  10.171 -0.2268  1.1938 -0.8472
   10CHL1    C5  674   4.732   3.739   9.996  0.4285  0.2300  1.1011
   10CHL1    C6  675   4.833   3.685   9.916 -0.2415 -0.1217  0.5546
   10CHL1    H6  676   4.933   3.668   9.958 -0.1681 -0.4850  0.2395
   10CHL1    C7  677   4.808   3.638   9.773 -0.0374 -0.5513  0.1845
   10CHL1   H7A  678   4.902   3.655   9.717  1.0139 -1.4678  1.6066
   10CHL1   H7B  679   4.772   3.533   9.777 -2.4304  0.0822 -1.9846
   10CHL1    C8  680   4.699   3.728   9.707  0.1819  0.0538 -0.4097
   10CHL1    H8  681   4.730   3.835   9.711 -0.8257  0.3221  0.7154
   10CHL1   C14  682   4.676   3.677   9.562  0.0280  0.2559 -0.3820
   10CHL1   H14  683   4.651   3.569   9.567  0.6855  0.0999 -0.3283
   10CHL1   C15  684   4.793   3.704   9.464 -0.6442  0.3290  0.0683
   10CHL1  H15A  685   4.847   3.800   9.456  0.6283 -0.0452  2.9433
   10CHL1  H15B  686   4.871   3.628   9.488 -1.5006 -0.4489  0.4747
   10CHL1   C16  687   4.721   3.670   9.333 -0.2081  0.4049  0.5505
   10CHL1  H16A  688   4.753   3.731   9.245 -3.1897  0.7738 -0.3750
   10CHL1  H16B  689   4.747   3.563   9.314  0.2828  0.1350  2.5341
   10CHL1   C17  690   4.569   3.682   9.357  0.3087  0.1789  0.4657
   10CHL1   H17  691   4.539   3.576   9.366 -0.2060  0.2131 -0.7625
   10CHL1   C13  692   4.560   3.745   9.498 -0.3811  0.1132  0.3815
   10CHL1   C18  693   4.575   3.901   9.494  0.3464  0.3368  0.6989
   10CHL1  H18A  694   4.489   3.956   9.452  1.2404  0.7869 -0.5789
   10CHL1  H18B  695   4.581   3.945   9.596 -2.5507  0.3647  0.9455
   10CHL1  H18C  696   4.661   3.934   9.433 -0.6681  3.0375  0.6119
   10CHL1   C12  697   4.432   3.716   9.584 -0.4970  0.9652  0.6908
   10CHL1  H12A  698   4.338   3.757   9.541 -0.0529  0.1701 -1.1467
   10CHL1  H12B  699   4.425   3.605   9.579  0.2359  0.8883  1.1748
   10CHL1   C11  700   4.443   3.763   9.734  0.0078  0.1373 -0.0298
   10CHL1  H11A  701   4.433   3.873   9.742 -0.1499  0.0918  0.4379
   10CHL1  H11B  702   4.365   3.707   9.790  0.5562 -0.5541  0.0539
   10CHL1    C9  703   4.575   3.723   9.801 -0.1964  0.9075  0.4091
   10CHL1    H9  704   4.564   3.613   9.810  1.7961  0.2595 -3.2533
   10CHL1   C10  705   4.598   3.774   9.948  0.1997 -0.0523 -0.3963
   10CHL1   C19  706   4.578   3.928   9.955  0.6171 -0.4873  0.4646
   10CHL1  H19A  707   4.639   3.989   9.885  0.7832  1.1122  1.9309
   10CHL1  H19B  708   4.472   3.959   9.940  1.1361  2.9527  2.8231
   10CHL1  H19C  709   4.599   3.964  10.058 -1.2534  0.6716  0.4881
   10CHL1    C1  710   4.504   3.696  10.054 -0.3892 -0.1658 -0.7133
   10CHL1   H1A  711   4.405   3.737  10.027  0.1783  1.1368 -0.8824
   10CHL1   H1B  712   4.516   3.586  10.037  1.3802 -0.0211 -0.6156
   10CHL1    C2  713   4.525   3.735  10.203  0.4252  1.0002 -0.2856
   10CHL1   H2A  714   4.455   3.680  10.270 -0.2263  1.2915 -0.7149
   10CHL1   H2B  715   4.510   3.845  10.211 -2.7987  0.7327 -1.4260
   10CHL1   C20  716   4.491   3.746   9.237  0.5018  0.4621 -0.0444
   10CHL1   H20  717   4.530   3.849   9.224 -0.0026  0.5127 -1.3210
   10CHL1   C21  718   4.341   3.750   9.269 -0.0184 -0.3948  0.1333
   10CHL1  H21A  719   4.282   3.778   9.179 -0.1379 -1.2761 -0.0748
   10CHL1  H21B  720   4.320   3.830   9.343  1.2029  0.4577 -0.4181
   10CHL1  H21C  721   4.292   3.660   9.313 -1.2651  1.4856  2.8820
   10CHL1   C22  722   4.514   3.660   9.110  0.3785  0.2614 -1.0803
   10CHL1  H22A  723   4.620   3.628   9.100  0.1336 -0.7454 -0.6761
   10CHL1  H22B  724   4.454   3.568   9.127 -1.1827  1.7212  2.2081
   10CHL1   C23  725   4.483   3.735   8.982 -0.0821  1.2260  0.5026
   10CHL1  H23A  726   4.373   3.747   8.989 -0.4591 -0.6489 -1.3281
   10CHL1  H23B  727   4.549   3.823   8.964  1.9124 -0.0520  1.1468
   10CHL1   C24  728   4.497   3.643   8.861 -1.0515 -0.7071 -0.2648
   10CHL1  H24A  729   4.598   3.598   8.874 -1.6183 -1.6625  1.2115
   10CHL1  H24B  730   4.414   3.569   8.854 -1.7042  0.0752 -0.9328
   10CHL1   C25  731   4.503   3.729   8.733  0.4788 -0.0132  0.0492
   10CHL1   H25  732   4.591   3.796   8.727  0.3991  0.0103 -1.1448
   10CHL1   C26  733   4.513   3.625   8.618 -1.0488 -0.9567  0.0277
   10CHL1  H26A  734   4.415   3.573   8.608 -0.6568 -1.8107  0.4939
   10CHL1  H26B  735   4.551   3.673   8.525  0.5577  0.5639  1.4046
   10CHL1  H26C  736   4.598   3.557   8.639  2.1816  2.3658 -1.1656
   10CHL1   C27  737   4.380   3.827   8.714 -0.1638 -0.1679 -0.0603
   10CHL1  H27A  738   4.362   3.863   8.610 -1.8865  1.4132  0.7302
   10CHL1  H27B  739   4.287   3.770   8.738  0.7369 -1.4479  0.5004
   10CHL1  H27C  740   4.379   3.910   8.788  1.9317  0.9026 -1.1583
   11CHL1    C3  741   0.533   1.757  10.074 -0.0921  0.0153  0.2507
   11CHL1    H3  742   0.424   1.740  10.083  0.2829 -2.8550  0.2166
   11CHL1    O3  743   0.578   1.813  10.198  0.7870  0.2302  0.6111
   11CHL1   H3'  744   0.547   1.745  10.259 -1.3941  1.2755  0.7520
   11CHL1    C4  745   0.600   1.614  10.044  0.2327 -0.0216  0.5675
   11CHL1   H4A  746   0.710   1.619  10.058  0.6104 -3.1494 -0.5090
   11CHL1   H4B  747   0.557   1.539  10.112 -1.9923 -0.0373 -0.7539
   11CHL1    C5  748   0.590   1.563   9.901  0.8767 -0.0513  0.9877
   11CHL1    C6  749   0.554   1.438   9.865 -0.4981 -0.3281 -0.0485
   11CHL1    H6  750   0.539   1.365   9.946  0.5512  0.0412  0.4872
   11CHL1    C7  751   0.548   1.378   9.724 -0.0785 -0.3168 -0.2356
   11CHL1   H7A  752   0.602   1.281   9.721 -2.4870 -1.8230  1.5830
   11CHL1   H7B  753   0.447   1.355   9.685 -0.1623 -1.2951  0.5390
   11CHL1    C8  754   0.619   1.471   9.624  0.7722 -0.5147 -0.4306
   11CHL1    H8  755   0.729   1.456   9.627  0.5611 -2.1513  0.3026
   11CHL1   C14  756   0.573   1.426   9.484  0.8801  0.3227 -0.5025
   11CHL1   H14  757   0.463   1.441   9.478  0.5715 -1.7773 -0.7377
   11CHL1   C15  758   0.603   1.281   9.445 -1.2946  0.8681 -0.1569
   11CHL1  H15A  759   0.698   1.250   9.494 -0.1086  0.9666 -2.2386
   11CHL1  H15B  760   0.526   1.207   9.475  1.3815 -2.3461 -0.6823
   11CHL1   C16  761   0.612   1.273   9.293  0.3671  0.5850 -0.0379
   11CHL1  H16A  762   0.706   1.220   9.266 -1.2934 -1.9235 -1.2172
   11CHL1  H16B  763   0.525   1.215   9.256  0.2640  0.7067  0.0171
   11CHL1   C17  764   0.594   1.424   9.245 -1.0609  0.6651  0.3870
   11CHL1   H17  765   0.486   1.446   9.230 -0.9235  1.0202 -0.1022
   11CHL1   C13  766   0.632   1.505   9.371  0.1968  0.1075 -0.4652
   11CHL1   C18  767   0.790   1.512   9.380  0.4361 -0.4954  0.1443
   11CHL1  H18A  768   0.829   1.597   9.321  1.1065  0.4752  1.9079
   11CHL1  H18B  769   0.829   1.530   9.483  0.3656 -0.6630  0.2006
   11CHL1  H18C  770   0.832   1.412   9.353  0.6035 -0.8527  1.6207
   11CHL1   C12  771   0.574   1.651   9.394  0.3376 -0.8116 -0.1271
   11CHL1  H12A  772   0.617   1.712   9.312 -1.4810  1.7260  0.6735
   11CHL1  H12B  773   0.465   1.649   9.375  0.3728 -0.3898 -0.3963
   11CHL1   C11  774   0.610   1.713   9.534  0.0584 -0.6861 -0.1861
   11CHL1  H11A  775   0.717   1.741   9.533  0.3845 -1.8157  0.7987
   11CHL1  H11B  776   0.550   1.806   9.544  0.7393 -0.3655  1.0760
   11CHL1    C9  777   0.575   1.620   9.653  0.1232  0.2423  0.2718
   11CHL1    H9  778   0.464   1.613   9.653  0.0667  0.9668 -0.4568
   11CHL1   C10  779   0.622   1.672   9.795 -0.1845 -0.0460 -0.1472
   11CHL1   C19  780   0.778   1.689   9.798  0.3513  0.1577 -0.6691
   11CHL1  H19A  781   0.813   1.707   9.902  0.1321  1.7171 -0.8486
   11CHL1  H19B  782   0.823   1.591   9.770  1.5380  0.2688  0.7435
   11CHL1  H19C  783   0.810   1.772   9.733 -1.3143  1.4827  0.1167
   11CHL1    C1  784   0.544   1.806   9.831  0.1401  0.5133  0.4312
   11CHL1   H1A  785   0.556   1.870   9.741 -3.4958  0.0688 -0.5552
   11CHL1   H1B  786   0.435   1.789   9.814 -0.1741  2.7230 -0.0489
   11CHL1    C2  787   0.571   1.859   9.966 -0.2778  0.5696 -0.1607
   11CHL1   H2A  788   0.513   1.952   9.979  1.3567  1.8436 -1.4615
   11CHL1   H2B  789   0.679   1.888   9.971 -0.3634  1.1791 -1.5106
   11CHL1   C20  790   0.664   1.444   9.104  0.2349  0.2486 -0.7323
   11CHL1   H20  791   0.774   1.432   9.108  0.3104  0.8693 -0.8711
   11CHL1   C21  792   0.644   1.595   9.069  0.2312  0.5218 -0.0207
   11CHL1  H21A  793   0.675   1.620   8.965  1.7664 -2.6493 -0.4533
   11CHL1  H21B  794   0.694   1.661   9.143 -0.0578 -0.2542  0.8888
   11CHL1  H21C  795   0.536   1.619   9.059  0.6105  2.0883 -0.6329
   11CHL1   C22  796   0.611   1.339   9.002 -0.0946  0.3461  0.4510
   11CHL1  H22A  797   0.671   1.246   9.012  0.7568  0.7933 -0.3124
   11CHL1  H22B  798   0.506   1.317   9.030  0.3376 -3.0002 -0.1867
   11CHL1   C23  799   0.617   1.383   8.854  0.6417 -0.0831  0.8362
   11CHL1  H23A  800   0.539   1.458   8.829 -0.2337 -1.3818 -0.5192
   11CHL1  H23B  801   0.724   1.414   8.847  0.4660  0.2047 -2.0664
   11CHL1   C24  802   0.602   1.265   8.753  0.1123  0.0285  0.3138
   11CHL1  H24A  803   0.673   1.190   8.794 -1.0608 -0.9074  0.6778
   11CHL1  H24B  804   0.499   1.225   8.748 -0.2418  0.9639 -0.1485
   11CHL1   C25  805   0.653   1.286   8.613  0.2316 -0.2804  0.3358
   11CHL1   H25  806   0.754   1.330   8.619  0.2820 -0.4994  1.3443
   11CHL1   C26  807   0.657   1.152   8.537 -0.1923 -0.2612  0.0704
   11CHL1  H26A  808   0.578   1.084   8.577 -0.1139  0.9531  2.4706
   11CHL1  H26B  809   0.665   1.164   8.427  3.3738 -0.6358  0.1668
   11CHL1  H26C  810   0.759   1.113   8.558 -0.5345 -1.8131 -0.9872
   11CHL1   C27  811   0.569   1.379   8.538  0.7101 -0.0466  0.7809
   11CHL1  H27A  812   0.609   1.398   8.436 -2.0341 -1.2049 -0.6100
   11CHL1  H27B  813   0.464   1.346   8.528  0.5130  1.1713 -1.6685
   11CHL1  H27C  814   0.561   1.479   8.585  0.5471  0.4643 -0.3259
   12CHL1    C3  815   2.485   4.496  10.256  0.1406 -0.2171 -0.2718
   12CHL1    H3  816   2.580   4.535  10.297  0.7766 -1.7652 -0.1955
   12CHL1    O3  817   2.387   4.469  10.354 -0.2294 -0.3343 -0.0474
   12CHL1   H3'  818   2.427   4.388  10.386  1.4772  1.2426  2.2220
   12CHL1    C4  819   2.415   4.593  10.163 -0.4174 -0.0678  0.4374
   12CHL1   H4A  820   2.309   4.564  10.146 -0.0999 -0.4134 -1.1027
   12CHL1   H4B  821   2.416   4.696  10.206  0.5495  0.6957 -1.3263
   12CHL1    C5  822   2.502   4.607  10.039  0.3289 -0.3363 -0.1912
   12CHL1    C6  823   2.552   4.724  10.005  0.4755  0.5014 -0.8461
   12CHL1    H6  824   2.531   4.816  10.061  3.9847 -0.5894  2.7246
   12CHL1    C7  825   2.621   4.743   9.879 -0.1936  0.4661  0.4024
   12CHL1   H7A  826   2.575   4.834   9.834 -0.4708  0.1017 -0.0452
   12CHL1   H7B  827   2.729   4.765   9.894  0.3910  0.3415 -2.8935
   12CHL1    C8  828   2.599   4.636   9.774 -0.0298 -0.0482 -0.1064
   12CHL1    H8  829   2.496   4.643   9.733 -0.0633 -0.2547 -0.0597
   12CHL1   C14  830   2.698   4.666   9.664  0.1363  0.5506 -0.3843
   12CHL1   H14  831   2.792   4.665   9.723 -0.7025  2.7441  1.1162
   12CHL1   C15  832   2.692   4.802   9.599 -0.3862  0.0592  0.2829
   12CHL1  H15A  833   2.586   4.825   9.575  0.1077  0.6429 -1.4637
   12CHL1  H15B  834   2.733   4.882   9.664  0.7075 -0.5231  0.3238
   12CHL1   C16  835   2.767   4.782   9.468  0.2091 -0.2648  0.2551
   12CHL1  H16A  836   2.702   4.810   9.382  0.9218  1.2964  0.1853
   12CHL1  H16B  837   2.851   4.850   9.445  1.0325 -2.1534 -3.0225
   12CHL1   C17  838   2.807   4.628   9.462 -0.0611  0.5125  0.5979
   12CHL1   H17  839   2.904   4.624   9.516  0.0899  2.3611  0.5537
   12CHL1   C13  840   2.711   4.557   9.555  1.1730  0.0243 -0.2977
   12CHL1   C18  841   2.578   4.548   9.475 -0.6962  0.3105  1.0381
   12CHL1  H18A  842   2.487   4.555   9.538 -1.1464 -2.7700  0.8877
   12CHL1  H18B  843   2.583   4.631   9.401 -0.1086  0.0376  0.7659
   12CHL1  H18C  844   2.564   4.454   9.418 -0.8379 -0.3035  2.0695
   12CHL1   C12  845   2.747   4.421   9.618  0.0495  0.0697  0.0285
   12CHL1  H12A  846   2.735   4.332   9.554  0.8920 -0.7522  0.9623
   12CHL1  H12B  847   2.848   4.422   9.666  1.2899 -0.3622 -2.4388
   12CHL1   C11  848   2.639   4.395   9.729  0.2964  0.2259  0.7491
   12CHL1  H11A  849   2.540   4.379   9.679 -0.0553 -1.5488  1.9147
   12CHL1  H11B  850   2.659   4.297   9.777 -0.6771 -1.2317 -1.6474
   12CHL1    C9  851   2.626   4.499   9.835  0.0715  0.0595 -0.0461
   12CHL1    H9  852   2.724   4.523   9.880  0.1705  2.5160 -1.3869
   12CHL1   C10  853   2.522   4.478   9.949 -0.1411 -0.2146 -0.2073
   12CHL1   C19  854   2.386   4.423   9.902  0.2597 -0.3862 -0.5105
   12CHL1  H19A  855   2.310   4.443   9.980  0.2590 -1.1759 -0.3008
   12CHL1  H19B  856   2.344   4.465   9.808 -0.9433 -0.7129 -0.1289
   12CHL1  H19C  857   2.386   4.320   9.858 -1.7761 -0.4832 -0.3460
   12CHL1    C1  858   2.587   4.375  10.053  0.0255 -0.0168  0.1445
   12CHL1   H1A  859   2.612   4.280  10.001  2.1462 -0.2187  1.4242
   12CHL1   H1B  860   2.690   4.412  10.071 -0.3696  2.0189 -1.3737
   12CHL1    C2  861   2.510   4.357  10.184 -0.4045 -0.3238 -0.0007
   12CHL1   H2A  862   2.565   4.290  10.253  1.8332  0.4182 -0.9647
   12CHL1   H2B  863   2.415   4.310  10.150 -0.8097  0.3238  0.2048
   12CHL1   C20  864   2.836   4.566   9.323 -0.4785 -0.5095  1.2322
   12CHL1   H20  865   2.748   4.550   9.259  0.5477  0.4553 -0.4931
   12CHL1   C21  866   2.904   4.427   9.340  0.1908  0.2368 -0.7392
   12CHL1  H21A  867   2.931   4.388   9.240  1.1203 -1.4074  0.1009
   12CHL1  H21B  868   2.833   4.351   9.377  1.6240 -0.6504  0.3120
   12CHL1  H21C  869   2.996   4.424   9.403  0.0085  1.1705 -0.4014
   12CHL1   C22  870   2.923   4.667   9.239  0.6455 -0.2789 -0.3024
   12CHL1  H22A  871   2.861   4.758   9.226 -1.1128 -1.1419  1.4711
   12CHL1  H22B  872   3.023   4.689   9.283  0.6875 -0.9847 -0.0212
   12CHL1   C23  873   2.948   4.618   9.095  0.8467  0.3929 -0.2020
   12CHL1  H23A  874   3.012   4.527   9.100  1.3643  0.7636  0.0721
   12CHL1  H23B  875   2.855   4.570   9.058  1.4472  0.4828 -1.9032
   12CHL1   C24  876   2.999   4.724   8.996 -0.0353  0.4981 -0.5540
   12CHL1  H24A  877   2.914   4.795   8.984 -0.5561  0.0472  0.3617
   12CHL1  H24B  878   3.086   4.773   9.044  0.3715 -1.3037  0.6557
   12CHL1   C25  879   3.050   4.675   8.856  0.0272 -0.2626 -0.1821
   12CHL1   H25  880   3.120   4.589   8.856  0.2755 -0.0681 -1.1485
   12CHL1   C26  881   2.928   4.630   8.769 -0.6532 -0.4921  0.7026
   12CHL1  H26A  882   2.883   4.725   8.734  1.3896 -0.1515 -1.1713
   12CHL1  H26B  883   2.958   4.579   8.675 -2.8872  0.2971 -0.5106
   12CHL1  H26C  884   2.859   4.571   8.833 -1.8704 -0.9497 -0.9667
   12CHL1   C27  885   3.126   4.784   8.784  0.2290  0.0733 -0.2119
   12CHL1  H27A  886   3.226   4.798   8.831 -0.3440 -0.0423  1.0771
   12CHL1  H27B  887   3.133   4.768   8.674 -0.2812  2.2071 -0.6071
   12CHL1  H27C  888   3.060   4.870   8.811 -0.1585 -0.9190  2.2769
   13CHL1    C3  889   2.833   0.024   9.712 -0.0065 -0.5897 -0.2229
   13CHL1    H3  890   2.895  -0.044   9.650  4.4508  2.4615  0.3732
   13CHL1    O3  891   2.871   0.014   9.848 -0.5648 -0.2380  0.1673
   13CHL1   H3'  892   2.812   0.075   9.894 -0.6911  0.2079 -0.5764
   13CHL1    C4  893   2.870   0.166   9.667  0.5564  0.0604 -0.3060
   13CHL1   H4A  894   2.808   0.247   9.710  2.0864  1.5016 -0.6848
   13CHL1   H4B  895   2.975   0.202   9.675 -0.8428  4.5387  1.1835
   13CHL1    C5  896   2.849   0.162   9.517  0.7656 -0.4483  0.4195
   13CHL1    C6  897   2.956   0.180   9.431  0.5180  0.0354 -0.2826
   13CHL1    H6  898   3.057   0.194   9.472  0.1368 -0.6803  0.9854
   13CHL1    C7  899   2.936   0.188   9.279  0.4627 -0.0651 -0.4269
   13CHL1   H7A  900   2.980   0.283   9.242  1.6551 -0.4787 -0.0837
   13CHL1   H7B  901   2.989   0.098   9.241  2.6766  0.4570  1.2297
   13CHL1    C8  902   2.786   0.186   9.229 -0.0666  0.3384  0.2363
   13CHL1    H8  903   2.756   0.292   9.216  0.2268  0.4769  0.6633
   13CHL1   C14  904   2.783   0.123   9.089  0.0018  0.4093 -0.1422
   13CHL1   H14  905   2.818   0.019   9.102 -0.7489 -0.0587 -1.6538
   13CHL1   C15  906   2.863   0.191   8.985  0.2575  0.1762 -0.1095
   13CHL1  H15A  907   2.861   0.299   9.013 -0.0315  0.0544  0.3517
   13CHL1  H15B  908   2.967   0.153   8.991 -0.1173 -0.8282  0.2601
   13CHL1   C16  909   2.787   0.165   8.846  0.4728  0.7055  0.3635
   13CHL1  H16A  910   2.744   0.249   8.787  0.4575 -0.8126 -1.9450
   13CHL1  H16B  911   2.867   0.121   8.782 -0.1555 -1.3903  0.9691
   13CHL1   C17  912   2.674   0.067   8.880 -0.0946 -0.8557 -0.1981
   13CHL1   H17  913   2.733  -0.026   8.898  3.9842  1.5090 -0.2809
   13CHL1   C13  914   2.637   0.110   9.031  0.1582  0.1782 -0.3998
   13CHL1   C18  915   2.566   0.248   9.026 -0.8414  1.2193 -0.4340
   13CHL1  H18A  916   2.607   0.323   8.955  2.7667  0.1669  0.3329
   13CHL1  H18B  917   2.459   0.232   9.004 -1.2229  0.1973  1.8633
   13CHL1  H18C  918   2.569   0.298   9.125  1.9868  0.4843 -0.0547
   13CHL1   C12  919   2.559   0.011   9.109 -0.2097  0.0983 -0.0593
   13CHL1  H12A  920   2.456   0.001   9.071  0.1617 -1.8122 -0.6684
   13CHL1  H12B  921   2.609  -0.088   9.100 -2.6365 -1.0440 -1.7562
   13CHL1   C11  922   2.557   0.056   9.256 -0.7837  0.2263 -0.5004
   13CHL1  H11A  923   2.479   0.135   9.269 -1.0230 -0.2175  0.9943
   13CHL1  H11B  924   2.512  -0.030   9.310 -0.6486  0.1487 -0.5100
   13CHL1    C9  925   2.697   0.101   9.320  0.2004 -1.1066  0.3196
   13CHL1    H9  926   2.759   0.009   9.317 -0.1334 -1.5188  3.4053
   13CHL1   C10  927   2.704   0.141   9.469  0.2454  0.1953 -0.1531
   13CHL1   C19  928   2.610   0.261   9.487  0.9520 -0.1756  0.3594
   13CHL1  H19A  929   2.638   0.343   9.417 -0.1326  0.5966  0.7834
   13CHL1  H19B  930   2.505   0.238   9.457  1.1152  1.2394 -1.4822
   13CHL1  H19C  931   2.615   0.297   9.592  1.0980  2.1307 -0.3732
   13CHL1    C1  932   2.657   0.017   9.545 -0.2251 -0.0339  0.0655
   13CHL1   H1A  933   2.549  -0.003   9.533 -0.1731 -0.4887  0.3051
   13CHL1   H1B  934   2.706  -0.067   9.490  1.0207 -0.1853  1.3465
   13CHL1    C2  935   2.680   0.007   9.695 -0.6015 -1.0834 -0.9002
   13CHL1   H2A  936   2.643  -0.087   9.742 -1.1651 -0.0733  0.7709
   13CHL1   H2B  937   2.625   0.094   9.736 -1.5938 -1.4064 -1.5125
   13CHL1   C20  938   2.561   0.042   8.777  0.4198 -0.7225 -0.0926
   13CHL1   H20  939   2.473  -0.010   8.821  1.3688 -2.4866 -0.1596
   13CHL1   C21  940   2.610  -0.077   8.678  0.4143  0.2522 -0.0174
   13CHL1  H21A  941   2.687  -0.027   8.615 -0.6318  1.3055 -0.5153
   13CHL1  H21B  942   2.523  -0.112   8.617  0.2021 -1.3863  1.1690
   13CHL1  H21C  943   2.637  -0.163   8.742 -1.1967  1.2352  2.1040
   13CHL1   C22  944   2.519   0.164   8.700  0.4899 -0.1869  0.5570
   13CHL1  H22A  945   2.489   0.236   8.779 -1.1685  1.0580 -1.1129
   13CHL1  H22B  946   2.605   0.198   8.637  0.4758  1.1813  1.2473
   13CHL1   C23  947   2.416   0.154   8.588 -0.0520  0.1173  0.2119
   13CHL1  H23A  948   2.424   0.248   8.529 -1.9970  0.5677  0.5892
   13CHL1  H23B  949   2.437   0.073   8.515  0.7125 -0.0008  0.5520
   13CHL1   C24  950   2.272   0.135   8.645  0.1120 -0.3293 -0.1623
   13CHL1  H24A  951   2.270   0.063   8.730  0.2566 -2.1211 -1.6316
   13CHL1  H24B  952   2.243   0.241   8.663 -2.4332 -0.5816 -2.2599
   13CHL1   C25  953   2.169   0.076   8.547 -0.1257 -0.0554  0.0020
   13CHL1   H25  954   2.066   0.092   8.587  0.0963 -1.9695  1.5056
   13CHL1   C26  955   2.167   0.146   8.404 -0.0998  0.5018 -0.3782
   13CHL1  H26A  956   2.272   0.153   8.370  1.9319 -1.9256  4.3590
   13CHL1  H26B  957   2.112   0.080   8.334 -1.5507  3.1747 -1.8885
   13CHL1  H26C  958   2.110   0.241   8.398 -1.7278 -0.4443 -0.4881
   13CHL1   C27  959   2.189  -0.069   8.524  0.0832  1.0387  0.4837
   13CHL1  H27A  960   2.142  -0.118   8.613 -1.8740  1.1591 -0.4248
   13CHL1  H27B  961   2.143  -0.116   8.435  1.2796  0.5097  0.1293
   13CHL1  H27C  962   2.295  -0.102   8.518 -0.5364 -0.8273 -2.7508
   14CHL1    C3  963   1.921   2.518  10.136  0.4818 -0.0052  0.4494
   14CHL1    H3  964   2.008   2.587  10.146 -1.5767  2.8504 -0.0755
   14CHL1    O3  965   1.896   2.464  10.262  0.0367  0.7881 -0.4814
   14CHL1   H3'  966   1.978   2.425  10.294 -1.0350 -1.5813 -0.4158
   14CHL1    C4  967   1.790   2.591  10.082  0.9103  0.0260 -0.8601
   14CHL1   H4A  968   1.711   2.524  10.123  2.9476 -0.8973  1.8333
   14CHL1   H4B  969   1.776   2.683  10.143 -0.1549 -0.2274 -0.7069
   14CHL1    C5  970   1.779   2.625   9.937 -0.7109  0.1150 -0.0745
   14CHL1    C6  971   1.745   2.745   9.887  0.2437  0.1653 -0.3511
   14CHL1    H6  972   1.723   2.834   9.947 -0.1930  1.6451 -2.5563
   14CHL1    C7  973   1.711   2.776   9.743 -0.6430 -0.1128  0.6027
   14CHL1   H7A  974   1.611   2.821   9.722 -0.3990  0.6534  1.0520
   14CHL1   H7B  975   1.792   2.842   9.707 -0.9672 -0.5140 -0.9374
   14CHL1    C8  976   1.713   2.643   9.660  1.1452  0.3872 -0.0260
   14CHL1    H8  977   1.612   2.600   9.675  0.9810 -0.3723 -2.7939
   14CHL1   C14  978   1.731   2.667   9.507  0.1059  0.2824 -0.3703
   14CHL1   H14  979   1.836   2.698   9.490  0.8768 -0.8522  1.9062
   14CHL1   C15  980   1.645   2.781   9.455  1.0564  1.1913 -0.1398
   14CHL1  H15A  981   1.539   2.758   9.477  0.5833  1.3427 -2.1444
   14CHL1  H15B  982   1.672   2.882   9.493  3.1674  0.5574  0.2170
   14CHL1   C16  983   1.651   2.771   9.305 -0.4768  0.4999  0.4201
   14CHL1  H16A  984   1.551   2.770   9.256 -1.0940 -4.0651  1.2482
   14CHL1  H16B  985   1.714   2.854   9.268  0.1474 -0.5747 -1.0560
   14CHL1   C17  986   1.733   2.633   9.276 -0.0781 -0.2700 -0.4795
   14CHL1   H17  987   1.838   2.666   9.263 -0.1590  0.3911  0.4114
   14CHL1   C13  988   1.713   2.558   9.406  0.5079  0.6070 -0.0898
   14CHL1   C18  989   1.576   2.483   9.408 -0.3306  0.0429 -0.4531
   14CHL1  H18A  990   1.582   2.393   9.344 -0.5085 -0.0117 -0.3938
   14CHL1  H18B  991   1.546   2.449   9.510  0.2998  1.0628  0.0882
   14CHL1  H18C  992   1.498   2.556   9.378  0.6607  0.9335 -0.9414
   14CHL1   C12  993   1.831   2.458   9.448  0.0865 -0.3851 -0.4993
   14CHL1  H12A  994   1.833   2.365   9.386 -1.6066  0.2231 -1.5444
   14CHL1  H12B  995   1.928   2.508   9.425 -0.3427  0.5496 -0.3248
   14CHL1   C11  996   1.830   2.427   9.603  0.7604  0.2667  0.5820
   14CHL1  H11A  997   1.743   2.359   9.613  1.4912 -0.9319 -0.9602
   14CHL1  H11B  998   1.915   2.359   9.624 -0.9319 -1.6735  1.6126
   14CHL1    C9  999   1.824   2.545   9.695  0.0518 -0.6533 -0.3538
   14CHL1    H9 1000   1.906   2.619   9.696  0.0802 -0.5747  2.6456
   14CHL1   C10 1001   1.824   2.498   9.845  1.0588 -0.6932  0.6986
   14CHL1   C19 1002   1.715   2.384   9.860 -0.7199 -0.2199  0.3164
   14CHL1  H19A 1003   1.756   2.291   9.814  1.7581 -0.0080  1.9322
   14CHL1  H19B 1004   1.686   2.373   9.967 -0.7977  0.7168  0.4001
   14CHL1  H19C 1005   1.621   2.403   9.803 -1.2675 -0.2925  1.1753
   14CHL1    C1 1006   1.970   2.460   9.888 -0.1702 -0.0187  0.0803
   14CHL1   H1A 1007   2.003   2.379   9.820  1.0357  0.3468  0.2107
   14CHL1   H1B 1008   2.036   2.548   9.870 -0.5150 -0.3896 -3.7309
   14CHL1    C2 1009   1.970   2.405  10.034 -0.1238 -0.0027  0.4009
   14CHL1   H2A 1010   2.073   2.369  10.058  0.3986  1.9658  1.3451
   14CHL1   H2B 1011   1.901   2.318  10.041  0.0443 -0.0650  1.4613
   14CHL1   C20 1012   1.695   2.576   9.139  0.8484  0.6960  0.0252
   14CHL1   H20 1013   1.592   2.534   9.137  0.8682  0.6684 -0.5041
   14CHL1   C21 1014   1.784   2.446   9.108 -0.3952 -0.1454  0.2775
   14CHL1  H21A 1015   1.765   2.368   9.185  0.0067  0.2662  0.8001
   14CHL1  H21B 1016   1.891   2.468   9.127 -0.3529 -0.5512  0.5288
   14CHL1  H21C 1017   1.770   2.397   9.010 -1.6446 -0.0570  0.3988
   14CHL1   C22 1018   1.703   2.669   9.020  0.1348  0.3159 -0.2432
   14CHL1  H22A 1019   1.657   2.601   8.945  2.3640 -1.1121 -0.4356
   14CHL1  H22B 1020   1.641   2.760   9.031  1.2136  0.8256  2.2867
   14CHL1   C23 1021   1.844   2.710   8.978 -0.7710  0.4223  0.3061
   14CHL1  H23A 1022   1.893   2.746   9.071  0.9128 -0.7006 -0.1104
   14CHL1  H23B 1023   1.905   2.621   8.955 -0.2585  1.1147 -1.1059
   14CHL1   C24 1024   1.853   2.816   8.868 -0.2279  1.0638 -0.3464
   14CHL1  H24A 1025   1.801   2.909   8.898 -0.5583  0.9942 -0.6987
   14CHL1  H24B 1026   1.956   2.851   8.846 -0.9421  2.9738 -0.8447
   14CHL1   C25 1027   1.800   2.757   8.742 -0.4959 -0.3057  0.3054
   14CHL1   H25 1028   1.689   2.747   8.736 -0.5641  0.1533  0.7603
   14CHL1   C26 1029   1.846   2.852   8.629  0.7420  0.0694 -0.3904
   14CHL1  H26A 1030   1.956   2.852   8.620  0.8137 -1.8004  0.0779
   14CHL1  H26B 1031   1.800   2.822   8.532 -1.2684  0.2916  0.4372
   14CHL1  H26C 1032   1.805   2.954   8.642 -0.5031 -0.4982  0.3262
   14CHL1   C27 1033   1.845   2.617   8.710  0.4482  0.0575  1.1645
   14CHL1  H27A 1034   1.814   2.585   8.608  1.5258 -1.0182  1.1439
   14CHL1  H27B 1035   1.954   2.611   8.727  0.6338  1.3911  0.6071
   14CHL1  H27C 1036   1.811   2.534   8.775 -0.4630 -0.7651 -0.3048
   15CHL1    C3 1037   2.746   2.403  10.325 -0.4286  0.0508 -0.2134
   15CHL1    H3 1038   2.783   2.505  10.303 -0.7453  0.4605  1.0711
   15CHL1    O3 1039   2.778   2.372  10.457 -0.6179  0.1826 -0.0824
   15CHL1   H3' 1040   2.714   2.409  10.519  0.2926 -3.4490  3.4293
   15CHL1    C4 1041   2.587   2.398  10.327  0.0510 -0.8199  0.4630
   15CHL1   H4A 1042   2.547   2.310  10.382 -3.2340 -0.8684 -1.6970
   15CHL1   H4B 1043   2.549   2.488  10.378  0.6418 -0.4591  0.2771
   15CHL1    C5 1044   2.535   2.397  10.187  0.1098  0.5635  0.4170
   15CHL1    C6 1045   2.448   2.497  10.149  0.5133 -0.1185 -0.4043
   15CHL1    H6 1046   2.416   2.570  10.224  1.5844 -0.3741  0.3279
   15CHL1    C7 1047   2.388   2.503  10.012 -0.0206  0.2370  0.1885
   15CHL1   H7A 1048   2.277   2.503  10.017 -0.0571  0.2879 -0.5862
   15CHL1   H7B 1049   2.417   2.595   9.957 -1.0210  0.0647 -0.6566
   15CHL1    C8 1050   2.429   2.384   9.920  0.4037 -0.1956  0.7343
   15CHL1    H8 1051   2.359   2.301   9.945 -0.1161  0.2401  0.7352
   15CHL1   C14 1052   2.405   2.416   9.768 -0.1007 -0.2533 -0.3319
   15CHL1   H14 1053   2.480   2.497   9.754 -0.8074  0.5538  0.4918
   15CHL1   C15 1054   2.272   2.469   9.720  0.0967  0.1430 -0.8266
   15CHL1  H15A 1055   2.185   2.404   9.744  0.7502  0.2958  2.2755
   15CHL1  H15B 1056   2.244   2.569   9.759 -1.0510 -0.1825 -0.7668
   15CHL1   C16 1057   2.292   2.463   9.568  0.3814 -0.4779 -0.3208
   15CHL1  H16A 1058   2.198   2.429   9.519  0.8042  1.1119 -2.3711
   15CHL1  H16B 1059   2.311   2.568   9.536  1.3161 -0.6361 -0.3172
   15CHL1   C17 1060   2.407   2.365   9.534  0.2933 -0.5992  0.1738
   15CHL1   H17 1061   2.482   2.446   9.519 -0.5016  0.6024  2.2427
   15CHL1   C13 1062   2.443   2.303   9.671 -0.4084 -0.1414 -0.3010
   15CHL1   C18 1063   2.342   2.179   9.685 -0.2265 -0.2181  0.2744
   15CHL1  H18A 1064   2.245   2.205   9.636  0.5879  2.8496  0.0272
   15CHL1  H18B 1065   2.379   2.094   9.624  0.2227  0.5823 -0.6023
   15CHL1  H18C 1066   2.327   2.151   9.791 -3.1357  1.3744  0.3873
   15CHL1   C12 1067   2.591   2.260   9.702  1.0205 -0.4058 -0.1541
   15CHL1  H12A 1068   2.600   2.162   9.650 -1.7918 -0.1248 -1.3557
   15CHL1  H12B 1069   2.670   2.331   9.668  1.0508 -0.2402  0.2564
   15CHL1   C11 1070   2.605   2.222   9.847 -0.3291  0.4837 -0.3491
   15CHL1  H11A 1071   2.536   2.140   9.877 -0.2021  0.8692  1.0705
   15CHL1  H11B 1072   2.709   2.186   9.863  1.0320  2.7753 -3.1991
   15CHL1    C9 1073   2.568   2.333   9.946  0.0254 -0.0876  0.5017
   15CHL1    H9 1074   2.649   2.402   9.914  0.3994 -2.0110 -3.2698
   15CHL1   C10 1075   2.604   2.307  10.094 -0.5833 -0.5353  0.4035
   15CHL1   C19 1076   2.549   2.168  10.136 -0.3637  0.0853  0.0871
   15CHL1  H19A 1077   2.628   2.096  10.106  0.6806  0.8511  0.8987
   15CHL1  H19B 1078   2.532   2.147  10.244 -0.0556  1.9673  0.5470
   15CHL1  H19C 1079   2.452   2.139  10.090 -0.6294 -0.1781  0.8017
   15CHL1    C1 1080   2.765   2.316  10.097  0.2043 -0.1516  0.1708
   15CHL1   H1A 1081   2.812   2.220  10.065 -0.2914  0.0260 -1.1376
   15CHL1   H1B 1082   2.812   2.398  10.038 -1.6256 -0.4494 -1.8114
   15CHL1    C2 1083   2.810   2.296  10.243  0.5008 -0.2480 -0.7748
   15CHL1   H2A 1084   2.921   2.295  10.249  0.4690  0.2371 -0.1020
   15CHL1   H2B 1085   2.780   2.200  10.290 -1.3115  0.6333 -0.0457
   15CHL1   C20 1086   2.382   2.283   9.404  0.5161 -0.1876 -0.3043
   15CHL1   H20 1087   2.311   2.197   9.405 -1.0937  1.0672 -1.9687
   15CHL1   C21 1088   2.520   2.209   9.375  0.4580 -0.0038  0.1823
   15CHL1  H21A 1089   2.546   2.140   9.459  1.0073 -0.5286 -0.4122
   15CHL1  H21B 1090   2.596   2.288   9.392 -0.7090  1.2480 -0.2168
   15CHL1  H21C 1091   2.530   2.149   9.282 -0.7030 -0.5461  0.3832
   15CHL1   C22 1092   2.334   2.368   9.285 -0.1681  0.8741 -0.6514
   15CHL1  H22A 1093   2.246   2.427   9.318 -0.5769 -0.5868  1.0461
   15CHL1  H22B 1094   2.419   2.431   9.252 -0.3635  0.6308 -1.6533
   15CHL1   C23 1095   2.301   2.280   9.158 -0.0549 -0.8249 -0.5678
   15CHL1  H23A 1096   2.398   2.248   9.113  0.6516  0.9932 -0.3989
   15CHL1  H23B 1097   2.251   2.190   9.201  2.9510 -2.3113  0.1049
   15CHL1   C24 1098   2.206   2.332   9.043 -0.0292 -0.8596 -0.3001
   15CHL1  H24A 1099   2.104   2.350   9.082 -0.0130  0.1291 -0.6921
   15CHL1  H24B 1100   2.238   2.435   9.015  0.5166 -0.6748  0.9343
   15CHL1   C25 1101   2.209   2.249   8.917  0.3647  0.9459  0.2708
   15CHL1   H25 1102   2.184   2.146   8.951 -0.2825  0.9526 -0.1771
   15CHL1   C26 1103   2.092   2.277   8.824 -0.1201  0.4836  0.3306
   15CHL1  H26A 1104   2.093   2.213   8.733  0.4630  2.1148 -0.8554
   15CHL1  H26B 1105   1.994   2.273   8.876 -0.5122  0.9790 -0.3585
   15CHL1  H26C 1106   2.093   2.379   8.781  2.4381  0.2245 -0.4213
   15CHL1   C27 1107   2.342   2.237   8.843  0.7985  0.2158  0.0501
   15CHL1  H27A 1108   2.394   2.335   8.832 -0.9874  0.9852 -2.7713
   15CHL1  H27B 1109   2.403   2.171   8.907  2.0217  2.3827  1.2175
   15CHL1  H27C 1110   2.321   2.185   8.747 -2.4053 -0.7281  1.1378
   16CHL1    C3 1111   3.374   1.308  10.238 -0.1649 -0.3910 -0.1834
   16CHL1    H3 1112   3.480   1.295  10.270 -0.1962  0.0225  0.1007
   16CHL1    O3 1113   3.285   1.312  10.349  0.2142  0.4504 -0.1887
   16CHL1   H3' 1114   3.222   1.382  10.331  1.2349  2.0015  1.8829
   16CHL1    C4 1115   3.374   1.446  10.175  0.5345  0.0670  0.1177
   16CHL1   H4A 1116   3.274   1.494  10.179  0.6876  0.3132  1.4357
   16CHL1   H4B 1117   3.437   1.505  10.245  1.2391  0.2041 -0.6144
   16CHL1    C5 1118   3.421   1.453  10.026 -0.5447 -0.1451 -0.1432
   16CHL1    C6 1119   3.508   1.549   9.994 -0.4905 -0.2112  0.3279
   16CHL1    H6 1120   3.540   1.621  10.070  2.4122 -0.6398 -0.3721
   16CHL1    C7 1121   3.563   1.565   9.851  0.1138 -0.6362 -0.3633
   16CHL1   H7A 1122   3.553   1.670   9.815  0.1026 -0.5958 -0.2443
   16CHL1   H7B 1123   3.670   1.535   9.853  0.1962 -0.3462  1.5269
   16CHL1    C8 1124   3.485   1.478   9.748  0.0519  0.1845 -0.3769
   16CHL1    H8 1125   3.391   1.528   9.717 -0.6223  0.2704  1.7010
   16CHL1   C14 1126   3.577   1.457   9.619 -0.1031  0.5826 -0.0226
   16CHL1   H14 1127   3.662   1.396   9.656 -0.7018  0.3103  0.9271
   16CHL1   C15 1128   3.641   1.578   9.551  0.2279 -0.1297 -0.6417
   16CHL1  H15A 1129   3.571   1.663   9.568 -0.9982 -1.2931  0.3527
   16CHL1  H15B 1130   3.731   1.606   9.611  0.6464 -0.4374 -1.1271
   16CHL1   C16 1131   3.673   1.537   9.413 -0.3930 -0.0413 -0.1240
   16CHL1  H16A 1132   3.614   1.584   9.332 -0.5998  0.0210  0.0607
   16CHL1  H16B 1133   3.782   1.548   9.391 -0.8605  1.0639 -2.0897
   16CHL1   C17 1134   3.618   1.388   9.402 -0.1295 -0.1090 -0.1597
   16CHL1   H17 1135   3.699   1.322   9.441  0.6108  0.0068 -1.4404
   16CHL1   C13 1136   3.507   1.379   9.508  0.0621  0.7548 -0.0393
   16CHL1   C18 1137   3.378   1.444   9.457 -0.4362 -0.4044 -0.3654
   16CHL1  H18A 1138   3.388   1.542   9.406 -1.0938  1.5703  2.9968
   16CHL1  H18B 1139   3.319   1.382   9.385  0.4648  0.1045 -1.5719
   16CHL1  H18C 1140   3.307   1.460   9.541 -1.2561  1.2975 -1.3490
   16CHL1   C12 1141   3.468   1.237   9.567 -0.0284  0.9687 -0.3168
   16CHL1  H12A 1142   3.407   1.192   9.486  0.9679  1.1236 -1.1794
   16CHL1  H12B 1143   3.561   1.179   9.585 -1.2380 -1.1535 -0.6195
   16CHL1   C11 1144   3.388   1.251   9.692  0.2618  0.7644 -0.1241
   16CHL1  H11A 1145   3.278   1.265   9.680  0.2691  1.5877  0.6543
   16CHL1  H11B 1146   3.366   1.148   9.729 -0.6528  1.2153  0.6501
   16CHL1    C9 1147   3.449   1.338   9.803 -0.2881  0.3049  0.3530
   16CHL1    H9 1148   3.540   1.287   9.841 -1.2739  0.2130  2.7409
   16CHL1   C10 1149   3.371   1.342   9.938 -0.5762  0.0421  0.1574
   16CHL1   C19 1150   3.223   1.345   9.906  0.4885 -0.1750  0.0628
   16CHL1  H19A 1151   3.184   1.428   9.844 -0.2513  1.2570  2.2861
   16CHL1  H19B 1152   3.198   1.241   9.875 -2.8224  0.0100  1.6772
   16CHL1  H19C 1153   3.167   1.359  10.001 -1.4289  1.5154 -1.2441
   16CHL1    C1 1154   3.400   1.201  10.003 -0.3437  0.2762 -0.2585
   16CHL1   H1A 1155   3.373   1.112   9.942 -0.9135  0.0507  0.3085
   16CHL1   H1B 1156   3.510   1.193  10.019  0.0094  0.4737 -2.4043
   16CHL1    C2 1157   3.334   1.194  10.142  0.2212 -0.2551  0.6016
   16CHL1   H2A 1158   3.369   1.096  10.182  1.5356 -0.4091 -0.8465
   16CHL1   H2B 1159   3.223   1.195  10.133  0.1789  1.0562  1.0726
   16CHL1   C20 1160   3.601   1.331   9.260  1.0582  0.2416  0.4251
   16CHL1   H20 1161   3.528   1.388   9.200 -0.7049 -1.2728  1.0561
   16CHL1   C21 1162   3.532   1.191   9.256 -0.3002  0.0868  0.6814
   16CHL1  H21A 1163   3.422   1.189   9.269 -0.6490  1.2751 -1.5882
   16CHL1  H21B 1164   3.576   1.123   9.333  3.3672  0.7053 -0.6258
   16CHL1  H21C 1165   3.538   1.155   9.151 -1.1518  0.9213  0.3352
   16CHL1   C22 1166   3.736   1.315   9.187 -0.1601 -0.0506 -0.5112
   16CHL1  H22A 1167   3.803   1.402   9.201  0.8396 -0.3357 -2.9928
   16CHL1  H22B 1168   3.788   1.228   9.233  0.5010  0.8320  0.4553
   16CHL1   C23 1169   3.731   1.306   9.041 -0.1313  0.9735  0.0555
   16CHL1  H23A 1170   3.708   1.201   9.015 -0.0129  0.8170  0.5606
   16CHL1  H23B 1171   3.654   1.367   8.989 -1.5785 -0.0193  0.9624
   16CHL1   C24 1172   3.861   1.348   8.976 -0.4591 -0.0456 -0.7853
   16CHL1  H24A 1173   3.868   1.457   8.992 -2.2505 -0.3453  3.2224
   16CHL1  H24B 1174   3.945   1.305   9.035 -0.1363  1.2615 -0.2579
   16CHL1   C25 1175   3.880   1.313   8.828  0.1337  0.2740 -0.0126
   16CHL1   H25 1176   3.975   1.367   8.807 -0.5914  1.5177 -0.2256
   16CHL1   C26 1177   3.922   1.169   8.812 -0.4365 -1.2573  0.1560
   16CHL1  H26A 1178   3.843   1.108   8.861 -1.8315  0.6274  0.3390
   16CHL1  H26B 1179   3.920   1.140   8.705  1.2170  0.0582 -0.2761
   16CHL1  H26C 1180   4.020   1.160   8.865 -0.9059 -0.5450  1.1805
   16CHL1   C27 1181   3.756   1.350   8.747  0.1434  0.0541  0.4123
   16CHL1  H27A 1182   3.674   1.286   8.785 -0.3970  0.3780 -0.1938
   16CHL1  H27B 1183   3.719   1.454   8.749  0.7710  0.2985 -0.1168
   16CHL1  H27C 1184   3.762   1.315   8.641  1.6166 -0.2435  0.5751
   17CHL1    C3 1185   6.238   4.122  10.371 -0.1397  0.0153  0.5226
   17CHL1    H3 1186   6.348   4.120  10.357 -0.2530  0.0564 -0.3970
   17CHL1    O3 1187   6.192   4.112  10.510 -0.9274 -0.0990 -0.1035
   17CHL1   H3' 1188   6.111   4.164  10.515 -0.7656  0.1867 -0.3833
   17CHL1    C4 1189   6.201   4.262  10.320  0.1123 -0.6021 -0.2326
   17CHL1   H4A 1190   6.101   4.302  10.346  1.0467  1.5027  0.2946
   17CHL1   H4B 1191   6.265   4.329  10.381 -1.2623 -0.8719  1.6107
   17CHL1    C5 1192   6.232   4.277  10.176  0.0836 -0.0910  0.4954
   17CHL1    C6 1193   6.309   4.382  10.122 -0.1910  0.6913 -0.1356
   17CHL1    H6 1194   6.354   4.452  10.194 -1.5369 -1.2946  2.8279
   17CHL1    C7 1195   6.326   4.398   9.972 -0.0063  0.3185  0.9494
   17CHL1   H7A 1196   6.313   4.506   9.954  0.6328 -0.0875 -2.6587
   17CHL1   H7B 1197   6.429   4.367   9.942  0.0094  0.9465  0.3312
   17CHL1    C8 1198   6.216   4.330   9.888 -0.1856 -0.1319  0.0110
   17CHL1    H8 1199   6.121   4.387   9.897  0.9988  2.0718 -0.5848
   17CHL1   C14 1200   6.256   4.328   9.745 -0.2837  0.2334 -0.2929
   17CHL1   H14 1201   6.352   4.274   9.737 -0.6021 -0.2067 -1.4537
   17CHL1   C15 1202   6.288   4.465   9.677  0.3596  0.3541  0.3717
   17CHL1  H15A 1203   6.215   4.541   9.713 -1.7276 -1.1960 -0.3560
   17CHL1  H15B 1204   6.391   4.506   9.687  1.7316 -2.7431  0.1582
   17CHL1   C16 1205   6.256   4.443   9.525 -0.2195 -0.1454  0.1474
   17CHL1  H16A 1206   6.167   4.503   9.498  0.2820  2.3715  3.4188
   17CHL1  H16B 1207   6.342   4.465   9.457 -2.3004  1.7685 -2.0487
   17CHL1   C17 1208   6.223   4.292   9.513 -0.4163 -0.2131  0.0384
   17CHL1   H17 1209   6.321   4.239   9.518 -1.2071 -1.6499  1.6333
   17CHL1   C13 1210   6.155   4.267   9.646  0.2040 -0.0134 -0.5141
   17CHL1   C18 1211   6.015   4.341   9.657  0.4776 -0.3802 -0.0743
   17CHL1  H18A 1212   6.026   4.451   9.647  0.5826 -0.3370  0.5202
   17CHL1  H18B 1213   5.937   4.304   9.587 -2.6975  2.8884  1.4470
   17CHL1  H18C 1214   5.969   4.322   9.756  0.6007 -1.7070 -0.2450
   17CHL1   C12 1215   6.141   4.120   9.689 -0.0023  0.3127  0.4089
   17CHL1  H12A 1216   6.057   4.085   9.624 -2.4610  0.9373  3.0317
   17CHL1  H12B 1217   6.227   4.064   9.648 -1.5532 -0.2979 -2.2858
   17CHL1   C11 1218   6.117   4.099   9.840  0.4334 -0.6682  1.0750
   17CHL1  H11A 1219   6.011   4.132   9.846  0.8503  1.0286 -0.1660
   17CHL1  H11B 1220   6.138   3.992   9.862  2.4218 -0.1741  1.7897
   17CHL1    C9 1221   6.196   4.184   9.941 -0.1681 -0.1689  0.3225
   17CHL1    H9 1222   6.301   4.151   9.924  0.0696  0.9848 -0.6275
   17CHL1   C10 1223   6.168   4.174  10.086 -0.1864 -0.1246  0.9729
   17CHL1   C19 1224   6.018   4.204  10.099  0.9122 -0.2050 -0.6482
   17CHL1  H19A 1225   5.956   4.113  10.082 -0.2327  0.4116  0.1181
   17CHL1  H19B 1226   5.972   4.243  10.192 -1.0671  2.8747 -2.7391
   17CHL1  H19C 1227   5.998   4.272  10.014  0.1537  0.0353 -0.2781
   17CHL1    C1 1228   6.205   4.032  10.134 -0.3829 -0.4609  0.1847
   17CHL1   H1A 1229   6.155   3.955  10.071  1.1801 -0.1001 -1.5808
   17CHL1   H1B 1230   6.312   4.003  10.125 -0.8022 -1.5179 -2.1955
   17CHL1    C2 1231   6.177   4.010  10.285  1.1209 -0.3002  0.7148
   17CHL1   H2A 1232   6.212   3.907  10.310  0.7512 -1.3360 -2.5849
   17CHL1   H2B 1233   6.066   3.997  10.289  1.1212 -0.8157 -0.5583
   17CHL1   C20 1234   6.148   4.249   9.382 -0.3618  0.3473  0.1008
   17CHL1   H20 1235   6.039   4.264   9.395 -0.4895  1.9419 -2.1999
   17CHL1   C21 1236   6.178   4.102   9.348  0.7737 -0.9074 -0.4512
   17CHL1  H21A 1237   6.171   4.031   9.433 -2.1303 -0.3780 -0.1570
   17CHL1  H21B 1238   6.277   4.097   9.297  0.8863 -0.9428 -0.2326
   17CHL1  H21C 1239   6.106   4.069   9.270  0.9653  0.0106 -1.0260
   17CHL1   C22 1240   6.170   4.349   9.261 -0.3594 -0.0281  0.5111
   17CHL1  H22A 1241   6.092   4.329   9.184 -1.3789 -0.9873  1.7421
   17CHL1  H22B 1242   6.143   4.454   9.282 -1.0683  0.7226 -3.2785
   17CHL1   C23 1243   6.310   4.342   9.193  0.3863 -0.4047  0.1172
   17CHL1  H23A 1244   6.391   4.313   9.263 -0.0122 -2.4427 -0.2211
   17CHL1  H23B 1245   6.295   4.275   9.106  0.2519  2.1816 -2.0068
   17CHL1   C24 1246   6.352   4.488   9.147 -0.0355  0.0297  0.4690
   17CHL1  H24A 1247   6.324   4.547   9.237 -0.0695  0.5861  0.0969
   17CHL1  H24B 1248   6.463   4.485   9.141  0.0301  0.5633  1.3166
   17CHL1   C25 1249   6.282   4.541   9.020 -0.0151 -0.3880 -0.2648
   17CHL1   H25 1250   6.173   4.559   9.037  0.0064  0.2986 -0.7940
   17CHL1   C26 1251   6.335   4.689   9.001  0.0948  0.7090 -0.0173
   17CHL1  H26A 1252   6.443   4.681   8.976  0.3622  1.2489  0.9134
   17CHL1  H26B 1253   6.283   4.746   8.921 -1.4277 -0.4295  0.1097
   17CHL1  H26C 1254   6.330   4.735   9.102  0.4147  0.0798  0.2900
   17CHL1   C27 1255   6.298   4.455   8.889  0.6157 -0.8271 -0.1891
   17CHL1  H27A 1256   6.235   4.511   8.816 -0.4721 -2.9932 -0.9936
   17CHL1  H27B 1257   6.404   4.446   8.859  1.5937  2.2402  1.9024
   17CHL1  H27C 1258   6.259   4.353   8.909  3.1636 -1.6856  0.7862
   18CHL1    C3 1259   5.102   3.037  10.018 -0.4386 -0.1277  0.3228
   18CHL1    H3 1260   5.070   2.936   9.983 -1.3691  0.2606  0.0430
   18CHL1    O3 1261   5.130   3.031  10.153 -0.3090 -0.1881 -0.2889
   18CHL1   H3' 1262   5.221   3.003  10.163  0.4388  1.9915 -0.5029
   18CHL1    C4 1263   5.217   3.084   9.928  0.1747  0.1785  0.7227
   18CHL1   H4A 1264   5.257   3.177   9.974  1.5906 -0.4722  0.8448
   18CHL1   H4B 1265   5.288   3.000   9.938 -2.2798 -2.1133 -0.0424
   18CHL1    C5 1266   5.183   3.107   9.783 -0.8109  0.7208  0.0300
   18CHL1    C6 1267   5.249   3.042   9.684 -0.0737  0.0843  0.1266
   18CHL1    H6 1268   5.327   2.969   9.711 -0.4413  0.1050  1.2881
   18CHL1    C7 1269   5.223   3.063   9.535  0.1843  0.0638  0.0697
   18CHL1   H7A 1270   5.323   3.062   9.485  0.1060 -0.3505 -0.0772
   18CHL1   H7B 1271   5.162   2.982   9.490 -2.7306  1.8983  0.4571
   18CHL1    C8 1272   5.144   3.190   9.510  0.2939 -0.1706  0.6475
   18CHL1    H8 1273   5.214   3.276   9.520  1.1237 -0.4169 -2.2977
   18CHL1   C14 1274   5.086   3.191   9.371  0.6693 -0.3808 -0.0552
   18CHL1   H14 1275   5.022   3.100   9.365 -2.1296  1.3384  1.6263
   18CHL1   C15 1276   5.179   3.162   9.253  0.2936  0.4840 -0.3169
   18CHL1  H15A 1277   5.277   3.213   9.267  1.8639 -2.8043  2.0728
   18CHL1  H15B 1278   5.203   3.054   9.242 -2.3176 -0.2677  0.5768
   18CHL1   C16 1279   5.100   3.216   9.129 -0.2402  0.8336 -0.2146
   18CHL1  H16A 1280   5.158   3.299   9.083 -1.4981  2.6635  1.3359
   18CHL1  H16B 1281   5.097   3.131   9.057 -2.8569  2.9852 -2.8625
   18CHL1   C17 1282   4.959   3.263   9.182  0.1311 -0.2367 -0.2933
   18CHL1   H17 1283   4.898   3.170   9.184 -0.8894  0.4038 -0.9144
   18CHL1   C13 1284   4.987   3.308   9.330 -0.1530  0.2741  0.0918
   18CHL1   C18 1285   5.065   3.446   9.335 -0.4801  0.6564  0.3820
   18CHL1  H18A 1286   4.995   3.529   9.311  0.8132  1.8504  0.6003
   18CHL1  H18B 1287   5.107   3.463   9.436 -0.3698  2.6101  0.0409
   18CHL1  H18C 1288   5.147   3.434   9.261 -0.8867  0.2341 -0.0096
   18CHL1   C12 1289   4.869   3.291   9.429 -0.3954 -0.5968 -0.6184
   18CHL1  H12A 1290   4.787   3.362   9.405 -2.4306 -2.2187  1.1274
   18CHL1  H12B 1291   4.833   3.186   9.435 -2.0778 -0.0677 -0.8211
   18CHL1   C11 1292   4.915   3.308   9.577  0.0732 -0.4894  0.9039
   18CHL1  H11A 1293   4.958   3.410   9.588 -0.0805 -0.5880  2.7396
   18CHL1  H11B 1294   4.822   3.296   9.636 -0.3136  1.6495  0.8083
   18CHL1    C9 1295   5.030   3.207   9.606 -0.0726 -0.1707  0.2605
   18CHL1    H9 1296   4.986   3.105   9.596 -0.5256  0.0917 -0.6035
   18CHL1   C10 1297   5.063   3.200   9.759  0.4853 -0.8332  0.6489
   18CHL1   C19 1298   5.099   3.354   9.786 -0.0933  0.6332  0.0116
   18CHL1  H19A 1299   5.188   3.381   9.724 -0.4458 -1.0971 -1.3398
   18CHL1  H19B 1300   5.012   3.422   9.780 -1.2060 -0.8374 -1.1910
   18CHL1  H19C 1301   5.154   3.363   9.882 -1.3261  1.7986  0.6454
   18CHL1    C1 1302   4.946   3.148   9.848  0.2195 -0.6633 -0.5111
   18CHL1   H1A 1303   4.861   3.216   9.826  0.7090 -0.5117 -2.0468
   18CHL1   H1B 1304   4.916   3.055   9.795 -0.9448  0.4385 -1.8734
   18CHL1    C2 1305   4.973   3.124   9.995  0.0488 -0.0674 -0.0203
   18CHL1   H2A 1306   4.888   3.070  10.043 -1.2644  2.5029  0.7536
   18CHL1   H2B 1307   5.000   3.218  10.048 -1.4468  0.8276 -0.7757
   18CHL1   C20 1308   4.883   3.369   9.088 -0.2754 -0.6095  0.7740
   18CHL1   H20 1309   4.825   3.438   9.154 -4.9471 -1.3922 -2.0796
   18CHL1   C21 1310   4.773   3.288   9.013 -0.5800  1.1140  0.2691
   18CHL1  H21A 1311   4.693   3.356   8.976 -0.5563  1.2924  0.5392
   18CHL1  H21B 1312   4.718   3.223   9.083 -0.5119  1.6753  0.8601
   18CHL1  H21C 1313   4.825   3.220   8.943  0.0579 -0.1012  1.8571
   18CHL1   C22 1314   4.971   3.452   8.989  0.4133  0.3702  0.0127
   18CHL1  H22A 1315   5.052   3.492   9.054  0.0887 -1.7553  1.8593
   18CHL1  H22B 1316   5.014   3.376   8.920 -0.8154 -1.3887  1.1064
   18CHL1   C23 1317   4.882   3.556   8.916 -0.3216 -0.6647  0.3934
   18CHL1  H23A 1318   4.822   3.498   8.843 -0.5621 -0.7429  0.6525
   18CHL1  H23B 1319   4.825   3.615   8.991 -1.0827 -1.3425  0.3578
   18CHL1   C24 1320   4.972   3.662   8.846 -0.2861  0.0100 -0.5750
   18CHL1  H24A 1321   5.048   3.703   8.917  0.7744  0.9787 -2.2085
   18CHL1  H24B 1322   5.034   3.604   8.775 -3.5433 -0.3912 -3.3392
   18CHL1   C25 1323   4.907   3.761   8.757  0.7029 -0.2963 -0.5911
   18CHL1   H25 1324   4.841   3.697   8.695  0.7572 -0.2327 -0.7137
   18CHL1   C26 1325   4.824   3.862   8.838  0.0224  0.0780  1.0061
   18CHL1  H26A 1326   4.743   3.799   8.881 -0.7620 -0.6915 -1.4010
   18CHL1  H26B 1327   4.878   3.906   8.924 -1.4847 -0.3498  2.2086
   18CHL1  H26C 1328   4.784   3.942   8.771 -1.1349 -2.0063 -0.9355
   18CHL1   C27 1329   5.015   3.827   8.681 -0.4445  0.3666  0.1723
   18CHL1  H27A 1330   4.970   3.901   8.610 -2.6675 -0.0679  1.0421
   18CHL1  H27B 1331   5.093   3.869   8.748 -1.0208  2.3026 -0.3030
   18CHL1  H27C 1332   5.066   3.754   8.615 -3.4151 -2.0346  0.2773
   19CHL1    C3 1333   1.383   0.015  10.067 -0.1348 -0.1829 -0.1930
   19CHL1    H3 1334   1.434   0.114  10.061 -2.7203  1.2355 -0.1538
   19CHL1    O3 1335   1.381  -0.024  10.203 -0.0430  0.2517  0.0078
   19CHL1   H3' 1336   1.323  -0.100  10.209  2.9792 -2.1708  1.3743
   19CHL1    C4 1337   1.245   0.018  10.008  0.1399 -1.3382  0.5763
   19CHL1   H4A 1338   1.196  -0.082  10.019  1.4535 -2.0003  0.6841
   19CHL1   H4B 1339   1.178   0.086  10.065  1.6075  1.2795 -0.6595
   19CHL1    C5 1340   1.249   0.068   9.862  0.2819 -0.6000  0.2250
   19CHL1    C6 1341   1.182   0.176   9.819 -0.1802  0.1377 -0.0460
   19CHL1    H6 1342   1.102   0.225   9.877  0.8640 -0.2753  1.7899
   19CHL1    C7 1343   1.174   0.224   9.677 -0.2257  0.0396 -0.0880
   19CHL1   H7A 1344   1.067   0.239   9.650 -0.6628 -0.1133  1.4768
   19CHL1   H7B 1345   1.224   0.322   9.663 -0.4222  0.1031 -0.3479
   19CHL1    C8 1346   1.234   0.121   9.582  0.4906 -0.3275  0.3061
   19CHL1    H8 1347   1.158   0.041   9.573  2.4592 -2.2846  0.2656
   19CHL1   C14 1348   1.261   0.189   9.445  0.6685 -0.0585 -0.1977
   19CHL1   H14 1349   1.328   0.273   9.473 -0.4508  0.7378  0.2000
   19CHL1   C15 1350   1.147   0.267   9.373  0.0856  0.0109 -0.7252
   19CHL1  H15A 1351   1.049   0.215   9.385  0.1808  0.2590  1.5451
   19CHL1  H15B 1352   1.133   0.369   9.415  0.2677 -0.7282  1.2603
   19CHL1   C16 1353   1.201   0.284   9.227  0.5821  0.5270  0.0382
   19CHL1  H16A 1354   1.134   0.239   9.151  1.4565  1.1926 -1.1474
   19CHL1  H16B 1355   1.221   0.390   9.204  0.9310  1.1761  2.9561
   19CHL1   C17 1356   1.337   0.208   9.213 -0.2875 -0.2357  0.1148
   19CHL1   H17 1357   1.420   0.274   9.246 -0.7866  0.2017  0.5197
   19CHL1   C13 1358   1.332   0.105   9.335  0.6322  0.1369 -0.1960
   19CHL1   C18 1359   1.244  -0.021   9.287 -0.4720 -0.3555 -0.3874
   19CHL1  H18A 1360   1.200  -0.066   9.379  0.0361 -0.0861 -0.0072
   19CHL1  H18B 1361   1.169  -0.009   9.207  0.6338 -2.4651 -1.8442
   19CHL1  H18C 1362   1.318  -0.093   9.246  1.3555  1.5108 -0.5514
   19CHL1   C12 1363   1.460   0.051   9.396 -0.2130  0.7203 -0.8724
   19CHL1  H12A 1364   1.510  -0.012   9.319  1.0381  0.1078  0.3877
   19CHL1  H12B 1365   1.534   0.133   9.410  0.1306  0.1482  0.9814
   19CHL1   C11 1366   1.441  -0.028   9.530  0.4604 -0.4984  0.2767
   19CHL1  H11A 1367   1.389  -0.124   9.511 -0.7180  0.4544 -1.5779
   19CHL1  H11B 1368   1.541  -0.060   9.566  0.4840 -0.3775  0.3198
   19CHL1    C9 1369   1.365   0.061   9.631 -0.3776 -0.1497 -0.0429
   19CHL1    H9 1370   1.439   0.144   9.639  0.7695 -1.0907 -0.5587
   19CHL1   C10 1371   1.342  -0.004   9.769  0.7110 -0.0299  0.0027
   19CHL1   C19 1372   1.266  -0.138   9.737  0.7882 -0.1000  0.2101
   19CHL1  H19A 1373   1.326  -0.219   9.689  1.6104 -1.0800  2.7173
   19CHL1  H19B 1374   1.236  -0.189   9.832 -0.5811  0.2273 -0.0324
   19CHL1  H19C 1375   1.174  -0.120   9.677 -1.3484 -2.2906  2.5662
   19CHL1    C1 1376   1.470  -0.037   9.835 -0.0861  0.4620  0.0531
   19CHL1   H1A 1377   1.519  -0.110   9.767 -0.1002  2.4305 -2.2188
   19CHL1   H1B 1378   1.531   0.056   9.834  0.3162  0.3466  3.0583
   19CHL1    C2 1379   1.452  -0.091   9.983 -0.0220 -0.5657  0.0406
   19CHL1   H2A 1380   1.553  -0.112  10.026  0.5397  0.6078 -0.6500
   19CHL1   H2B 1381   1.390  -0.183   9.991 -0.6692 -0.4396 -2.7469
   19CHL1   C20 1382   1.379   0.161   9.072 -0.6216 -0.0480 -0.0140
   19CHL1   H20 1383   1.322   0.076   9.028 -0.3298  0.9319 -2.4359
   19CHL1   C21 1384   1.525   0.121   9.065  0.0047  0.4713  0.2442
   19CHL1  H21A 1385   1.555   0.088   8.964  2.9932  1.8785  0.5495
   19CHL1  H21B 1386   1.545   0.031   9.127 -2.4660  0.7928  1.6537
   19CHL1  H21C 1387   1.587   0.207   9.101 -1.0399  0.2702  2.7181
   19CHL1   C22 1388   1.352   0.266   8.967 -0.6565  0.4950  0.5103
   19CHL1  H22A 1389   1.248   0.304   8.964 -1.1184 -0.7470  0.2782
   19CHL1  H22B 1390   1.418   0.353   8.988  1.5612 -0.8496 -0.5107
   19CHL1   C23 1391   1.378   0.218   8.816 -0.1305  0.6017 -0.0639
   19CHL1  H23A 1392   1.487   0.203   8.798  0.0517  1.1670  0.5470
   19CHL1  H23B 1393   1.329   0.119   8.819  0.1232  0.5011  1.4049
   19CHL1   C24 1394   1.329   0.311   8.710  0.6124  0.1186  0.3008
   19CHL1  H24A 1395   1.341   0.281   8.604 -4.3291 -1.9356  0.0669
   19CHL1  H24B 1396   1.218   0.314   8.717  0.5722 -1.1214  0.3808
   19CHL1   C25 1397   1.369   0.456   8.721 -0.3151  0.2415 -0.3186
   19CHL1   H25 1398   1.377   0.480   8.829 -0.1058 -2.4730  0.3402
   19CHL1   C26 1399   1.515   0.465   8.667 -0.2205 -0.6477  0.2492
   19CHL1  H26A 1400   1.577   0.389   8.719 -3.7180 -2.7560  1.7058
   19CHL1  H26B 1401   1.520   0.457   8.556 -1.2229 -0.9950  0.2265
   19CHL1  H26C 1402   1.564   0.565   8.678  1.4278 -0.9486 -3.0769
   19CHL1   C27 1403   1.270   0.543   8.641  0.2122 -0.2606 -0.0562
   19CHL1  H27A 1404   1.164   0.532   8.672  0.1666  0.4963  0.0638
   19CHL1  H27B 1405   1.296   0.650   8.635  0.3326 -0.3592 -2.4221
   19CHL1  H27C 1406   1.279   0.510   8.535 -0.0607  1.7327 -0.7402
   20CHL1    C3 1407   3.764   0.473  10.146  0.1007  0.0733 -0.7447
   20CHL1    H3 1408   3.671   0.415  10.127 -1.3222  1.0797  2.4816
   20CHL1    O3 1409   3.781   0.477  10.286  0.5831  0.3877 -0.3084
   20CHL1   H3' 1410   3.725   0.537  10.336  0.7443  0.1694  0.1454
   20CHL1    C4 1411   3.878   0.403  10.085  0.3933  0.0570 -0.4477
   20CHL1   H4A 1412   3.971   0.462  10.100 -1.1197  2.4676 -0.1383
   20CHL1   H4B 1413   3.893   0.301  10.128 -1.6016 -1.2932 -2.6837
   20CHL1    C5 1414   3.862   0.395   9.933  1.0274 -0.0376  0.2333
   20CHL1    C6 1415   3.854   0.277   9.870 -0.1616 -0.0718 -0.3392
   20CHL1    H6 1416   3.883   0.191   9.933  0.6598  0.2645 -0.2456
   20CHL1    C7 1417   3.826   0.248   9.723  0.3111  0.1361  0.2000
   20CHL1   H7A 1418   3.891   0.169   9.679 -1.6407 -0.8425 -1.0943
   20CHL1   H7B 1419   3.722   0.213   9.709  0.2257  0.7777 -0.9361
   20CHL1    C8 1420   3.832   0.386   9.653  0.2973 -0.0142 -0.4091
   20CHL1    H8 1421   3.942   0.402   9.647  0.6304 -2.0753 -0.3614
   20CHL1   C14 1422   3.772   0.374   9.515  0.8866  0.2066 -0.2695
   20CHL1   H14 1423   3.664   0.356   9.531  0.7955 -1.2022 -2.0886
   20CHL1   C15 1424   3.804   0.233   9.442 -0.3616 -0.7124 -0.4417
   20CHL1  H15A 1425   3.913   0.211   9.447 -0.2662 -0.0492  0.9458
   20CHL1  H15B 1426   3.737   0.154   9.483 -0.1592 -0.0879  1.1756
   20CHL1   C16 1427   3.780   0.261   9.296  0.3352 -0.1266 -0.0877
   20CHL1  H16A 1428   3.864   0.230   9.230  0.3836 -1.0376  0.3837
   20CHL1  H16B 1429   3.686   0.212   9.263  0.8036 -2.0009  1.1971
   20CHL1   C17 1430   3.747   0.414   9.287  0.9609  0.1929 -0.6290
   20CHL1   H17 1431   3.636   0.423   9.292  0.7949 -1.1359 -1.4439
   20CHL1   C13 1432   3.804   0.482   9.418 -0.1326 -0.6223 -0.1573
   20CHL1   C18 1433   3.958   0.505   9.411  0.6802 -0.0745 -0.8383
   20CHL1  H18A 1434   4.006   0.414   9.370 -0.6405 -1.5541  0.7158
   20CHL1  H18B 1435   3.980   0.585   9.337  0.8257 -1.1011 -1.9178
   20CHL1  H18C 1436   3.999   0.539   9.509 -3.0238 -1.0656  1.2176
   20CHL1   C12 1437   3.735   0.606   9.474  0.6648  0.6207  0.0018
   20CHL1  H12A 1438   3.752   0.698   9.413  0.6642  0.2023 -0.6439
   20CHL1  H12B 1439   3.625   0.595   9.485  0.7522 -1.3168 -0.7684
   20CHL1   C11 1440   3.785   0.631   9.616 -0.5842 -0.9563  0.0368
   20CHL1  H11A 1441   3.884   0.678   9.605 -1.4819  0.6058 -1.7624
   20CHL1  H11B 1442   3.719   0.706   9.664  0.0461  0.8447 -1.7999
   20CHL1    C9 1443   3.781   0.508   9.716 -0.0127 -0.0982  0.0559
   20CHL1    H9 1444   3.671   0.500   9.721 -0.0175 -1.3049 -1.1523
   20CHL1   C10 1445   3.835   0.531   9.862  0.5886  0.3960  0.7297
   20CHL1   C19 1446   3.979   0.598   9.849  0.2059 -0.6491 -0.5929
   20CHL1  H19A 1447   4.049   0.580   9.934 -2.5116  0.0441  1.9791
   20CHL1  H19B 1448   4.030   0.558   9.759 -0.6727 -2.8705 -0.1629
   20CHL1  H19C 1449   3.967   0.709   9.844 -0.7311 -0.5863  1.8288
   20CHL1    C1 1450   3.730   0.624   9.940  0.5458  0.2432  0.7382
   20CHL1   H1A 1451   3.737   0.729   9.905  1.3118  0.2724  0.9657
   20CHL1   H1B 1452   3.628   0.589   9.911  1.6149  0.7010 -4.8347
   20CHL1    C2 1453   3.758   0.615  10.096 -0.2532  0.4234 -0.1621
   20CHL1   H2A 1454   3.679   0.669  10.151  0.6703  1.6261  0.0276
   20CHL1   H2B 1455   3.855   0.666  10.112  0.0740 -0.2498  0.0284
   20CHL1   C20 1456   3.779   0.470   9.148  0.3500  0.1524 -0.6697
   20CHL1   H20 1457   3.890   0.472   9.144  0.8661 -4.4299  3.0474
   20CHL1   C21 1458   3.723   0.605   9.135 -0.4901 -0.4690 -0.2625
   20CHL1  H21A 1459   3.752   0.658   9.041  0.5198  2.5372  1.6085
   20CHL1  H21B 1460   3.761   0.674   9.213  0.3702 -0.7485 -0.4167
   20CHL1  H21C 1461   3.614   0.589   9.142 -0.7031  0.9806 -0.1012
   20CHL1   C22 1462   3.738   0.376   9.033  0.2058  0.2625 -0.1120
   20CHL1  H22A 1463   3.805   0.288   9.042 -0.2575 -0.0604  0.2299
   20CHL1  H22B 1464   3.638   0.327   9.040 -0.0674  0.6363 -1.2832
   20CHL1   C23 1465   3.748   0.436   8.892 -0.0737 -1.0616  0.4760
   20CHL1  H23A 1466   3.676   0.521   8.892  1.1432  0.0095 -0.6974
   20CHL1  H23B 1467   3.847   0.487   8.888 -0.4216 -0.4529 -1.5211
   20CHL1   C24 1468   3.725   0.350   8.773 -0.1620  0.9575 -0.3500
   20CHL1  H24A 1469   3.796   0.265   8.774  0.9095  1.8326 -0.5221
   20CHL1  H24B 1470   3.623   0.306   8.776  1.4540 -3.2398  1.1361
   20CHL1   C25 1471   3.721   0.441   8.645 -1.1969 -0.3023  0.3228
   20CHL1   H25 1472   3.645   0.518   8.674  0.1826  0.2244  2.8633
   20CHL1   C26 1473   3.852   0.509   8.598  0.2087  0.0005  0.1619
   20CHL1  H26A 1474   3.914   0.439   8.538 -1.6495 -0.9095 -0.7814
   20CHL1  H26B 1475   3.827   0.587   8.523 -1.6480 -0.3518  0.3734
   20CHL1  H26C 1476   3.906   0.561   8.680 -1.2098  0.9684  0.5388
   20CHL1   C27 1477   3.673   0.367   8.517  0.4159  0.3983  0.5685
   20CHL1  H27A 1478   3.581   0.308   8.536 -1.0717  1.6715 -2.0798
   20CHL1  H27B 1479   3.652   0.441   8.436  0.1357  0.9045  1.0948
   20CHL1  H27C 1480   3.759   0.305   8.483  0.5698  0.5614  0.6567
   21CHL1    C3 1481   1.636   5.712  10.247  0.2748 -0.2089  0.4707
   21CHL1    H3 1482   1.604   5.815  10.274  1.4626  1.1911 -2.9243
   21CHL1    O3 1483   1.662   5.634  10.362 -0.1379  0.6626 -0.0629
   21CHL1   H3' 1484   1.589   5.664  10.416 -1.2708  1.6810 -2.0128
   21CHL1    C4 1485   1.534   5.642  10.165  0.7970  0.6054  0.2797
   21CHL1   H4A 1486   1.569   5.536  10.162  0.6505  0.5708 -0.2262
   21CHL1   H4B 1487   1.440   5.635  10.224  0.5889 -1.4617 -0.2202
   21CHL1    C5 1488   1.503   5.693  10.025  0.0056 -0.3163 -1.2629
   21CHL1    C6 1489   1.380   5.734   9.992  0.2958  0.5999 -0.0494
   21CHL1    H6 1490   1.302   5.708  10.065  1.4038 -0.7761  0.7101
   21CHL1    C7 1491   1.338   5.799   9.864  0.1333 -0.5117 -0.1126
   21CHL1   H7A 1492   1.241   5.757   9.831  0.2681 -0.8627 -0.0727
   21CHL1   H7B 1493   1.308   5.905   9.882  1.8721 -0.3232  2.2040
   21CHL1    C8 1494   1.454   5.782   9.760  0.1720 -0.0053 -0.2843
   21CHL1    H8 1495   1.456   5.675   9.732 -1.2734 -0.3041  0.6601
   21CHL1   C14 1496   1.435   5.867   9.639 -0.2523 -0.4752  0.2590
   21CHL1   H14 1497   1.438   5.971   9.677  0.4716 -0.7959  1.1469
   21CHL1   C15 1498   1.300   5.846   9.566 -0.3957 -0.6439  0.0349
   21CHL1  H15A 1499   1.287   5.741   9.535 -1.8673 -0.8102  1.1127
   21CHL1  H15B 1500   1.208   5.877   9.620 -0.0757 -1.2647  0.9462
   21CHL1   C16 1501   1.329   5.919   9.431 -1.3945 -0.4063 -0.1735
   21CHL1  H16A 1502   1.326   5.840   9.353 -2.7863  1.5061 -2.2041
   21CHL1  H16B 1503   1.266   6.007   9.405  0.3229  0.4507 -1.7022
   21CHL1   C17 1504   1.474   5.956   9.429  0.5165  0.2431  0.3539
   21CHL1   H17 1505   1.485   6.055   9.477 -0.6887  0.1484  0.8527
   21CHL1   C13 1506   1.547   5.868   9.533  0.3097 -0.1138 -0.4170
   21CHL1   C18 1507   1.573   5.730   9.476 -0.2140 -0.8467 -0.0767
   21CHL1  H18A 1508   1.611   5.665   9.557  1.6869  1.0041  0.6230
   21CHL1  H18B 1509   1.484   5.680   9.432 -0.8809 -0.4501  0.7935
   21CHL1  H18C 1510   1.647   5.739   9.394 -1.2014 -0.3117 -0.9334
   21CHL1   C12 1511   1.673   5.916   9.601  0.4904 -0.5156  0.6258
   21CHL1  H12A 1512   1.751   5.924   9.522  0.5245  3.9826  0.9046
   21CHL1  H12B 1513   1.653   6.022   9.624  0.7554 -0.5097  0.8422
   21CHL1   C11 1514   1.710   5.839   9.723 -0.1437  0.3301 -0.0482
   21CHL1  H11A 1515   1.754   5.749   9.675  1.8992  1.1562  0.1789
   21CHL1  H11B 1516   1.787   5.904   9.770 -1.0121  0.5066  1.2010
   21CHL1    C9 1517   1.594   5.814   9.820  0.6390  0.5978 -0.4012
   21CHL1    H9 1518   1.567   5.907   9.875 -2.6635 -0.6171  0.2149
   21CHL1   C10 1519   1.629   5.719   9.938 -0.5810 -0.2927 -0.0282
   21CHL1   C19 1520   1.670   5.578   9.883  0.2395 -0.5666 -0.7594
   21CHL1  H19A 1521   1.751   5.582   9.806  0.2226 -0.0005 -0.7532
   21CHL1  H19B 1522   1.712   5.511   9.962  3.9940  1.8421 -0.4433
   21CHL1  H19C 1523   1.585   5.520   9.843 -1.4041 -1.0677  3.0067
   21CHL1    C1 1524   1.741   5.786  10.021 -0.0285 -0.1697 -0.1619
   21CHL1   H1A 1525   1.834   5.798   9.961 -0.0864  2.6098  0.1636
   21CHL1   H1B 1526   1.705   5.889  10.041  1.8117  0.6829 -0.9690
   21CHL1    C2 1527   1.767   5.722  10.163  0.1216  0.0557 -0.1515
   21CHL1   H2A 1528   1.848   5.779  10.214  0.5031  0.5954 -1.3079
   21CHL1   H2B 1529   1.798   5.617  10.143  0.5799 -0.0791  1.1460
   21CHL1   C20 1530   1.525   5.976   9.285 -0.2300  0.5282 -0.0974
   21CHL1   H20 1531   1.511   5.881   9.228 -0.0387  1.8937 -2.5717
   21CHL1   C21 1532   1.669   6.009   9.285  0.1616 -0.2078 -0.2953
   21CHL1  H21A 1533   1.691   6.103   9.340 -0.3780 -0.8371  1.0568
   21CHL1  H21B 1534   1.702   6.009   9.179  1.7187 -0.3804  0.1612
   21CHL1  H21C 1535   1.731   5.925   9.324 -1.2908 -1.5350 -0.7464
   21CHL1   C22 1536   1.451   6.086   9.197 -0.3254 -0.5617 -0.6122
   21CHL1  H22A 1537   1.341   6.067   9.200 -1.1431  3.4681  1.5136
   21CHL1  H22B 1538   1.463   6.178   9.259  0.3778 -1.8268  1.2261
   21CHL1   C23 1539   1.496   6.104   9.054 -0.0705 -0.1665  0.1016
   21CHL1  H23A 1540   1.595   6.151   9.037 -1.5968  3.6582  0.8519
   21CHL1  H23B 1541   1.514   6.005   9.007 -0.3890 -0.2900  0.2381
   21CHL1   C24 1542   1.387   6.162   8.962 -0.6401 -0.3720  0.5581
   21CHL1  H24A 1543   1.290   6.118   8.996  0.8632 -2.7682  2.0800
   21CHL1  H24B 1544   1.374   6.271   8.975  0.3098 -0.0117 -1.2271
   21CHL1   C25 1545   1.421   6.143   8.815  0.1938  0.1936 -0.2693
   21CHL1   H25 1546   1.436   6.035   8.794 -0.2577 -0.0598  0.6613
   21CHL1   C26 1547   1.302   6.187   8.731  0.0129 -0.3834  0.2235
   21CHL1  H26A 1548   1.281   6.293   8.757 -0.1882 -0.4282  0.2439
   21CHL1  H26B 1549   1.308   6.177   8.620 -0.7399  0.6899  0.0713
   21CHL1  H26C 1550   1.209   6.136   8.762 -0.0564  0.2905  1.1448
   21CHL1   C27 1551   1.544   6.211   8.770 -0.2668  0.0545 -0.1513
   21CHL1  H27A 1552   1.557   6.196   8.660  0.9366  2.3112 -0.3679
   21CHL1  H27B 1553   1.541   6.317   8.804  1.0726 -0.6340  2.2788
   21CHL1  H27C 1554   1.637   6.169   8.813  0.0548 -0.7556 -1.5460
   22CHL1    C3 1555   2.170   5.727  10.080 -0.1996 -0.0908 -0.1898
   22CHL1    H3 1556   2.061   5.751  10.072  0.3092  1.6338 -3.6913
   22CHL1    O3 1557   2.232   5.767  10.204 -0.8052  0.4268 -0.5384
   22CHL1   H3' 1558   2.326   5.771  10.185 -0.8587  1.4502 -0.6491
   22CHL1    C4 1559   2.202   5.576  10.056  0.4841  0.1455 -0.3114
   22CHL1   H4A 1560   2.312   5.575  10.042  0.3027 -2.9353 -2.2934
   22CHL1   H4B 1561   2.179   5.524  10.152  0.1435 -1.4078 -1.2096
   22CHL1    C5 1562   2.142   5.531   9.927 -0.4663 -0.8273 -0.3781
   22CHL1    C6 1563   2.057   5.424   9.931  0.8388  0.6105 -0.5564
   22CHL1    H6 1564   2.032   5.387  10.032  0.6046  0.3201 -0.7193
   22CHL1    C7 1565   1.984   5.365   9.813 -0.0035 -0.4555  0.1614
   22CHL1   H7A 1566   2.015   5.259   9.800 -2.7877 -1.1821 -1.3712
   22CHL1   H7B 1567   1.874   5.379   9.821  0.1058 -0.4657  1.9306
   22CHL1    C8 1568   2.036   5.430   9.681 -0.0930  0.5471 -0.3406
   22CHL1    H8 1569   2.129   5.381   9.646  1.3195  2.8602 -0.0610
   22CHL1   C14 1570   1.924   5.400   9.579 -0.7259 -0.4362  0.0722
   22CHL1   H14 1571   1.835   5.458   9.611  0.7170  0.4838  2.7566
   22CHL1   C15 1572   1.872   5.260   9.547 -0.4663 -0.3081  0.8242
   22CHL1  H15A 1573   1.967   5.204   9.534 -0.4762 -0.0561 -0.4491
   22CHL1  H15B 1574   1.812   5.212   9.627 -0.7136 -0.1937  0.7065
   22CHL1   C16 1575   1.804   5.263   9.406 -0.4219  0.8088 -0.1563
   22CHL1  H16A 1576   1.845   5.175   9.353  3.1913  2.8170 -1.0075
   22CHL1  H16B 1577   1.694   5.246   9.409 -0.3368 -0.5684 -2.5331
   22CHL1   C17 1578   1.846   5.404   9.360  0.1050  0.1441  0.6414
   22CHL1   H17 1579   1.763   5.470   9.392  0.1496  0.6312 -0.2305
   22CHL1   C13 1580   1.966   5.455   9.442 -0.2864 -0.0214  0.0746
   22CHL1   C18 1581   2.093   5.376   9.383  0.7410  0.9358 -0.1117
   22CHL1  H18A 1582   2.062   5.272   9.361 -1.1041  0.9094  2.3153
   22CHL1  H18B 1583   2.124   5.423   9.287  3.0700  0.7220  0.4802
   22CHL1  H18C 1584   2.177   5.392   9.453 -0.8789 -0.6075  2.3127
   22CHL1   C12 1585   1.986   5.609   9.455 -0.5005  0.5379 -0.3482
   22CHL1  H12A 1586   2.007   5.640   9.350 -0.4616 -1.2557 -0.9137
   22CHL1  H12B 1587   1.896   5.660   9.496 -0.8375 -0.4417  0.1644
   22CHL1   C11 1588   2.097   5.648   9.556 -0.4255 -0.3755  0.4756
   22CHL1  H11A 1589   2.203   5.636   9.525  0.1495 -0.2012  2.2586
   22CHL1  H11B 1590   2.089   5.759   9.561 -1.6156 -0.4732  0.8998
   22CHL1    C9 1591   2.074   5.578   9.693 -0.0499 -0.8950 -1.2285
   22CHL1    H9 1592   1.976   5.628   9.711  0.7711  1.9591 -3.8759
   22CHL1   C10 1593   2.181   5.609   9.800  0.6966  0.2026  0.6170
   22CHL1   C19 1594   2.312   5.554   9.757 -0.5789  0.0936  0.7505
   22CHL1  H19A 1595   2.394   5.577   9.828 -0.6772  2.8614  0.1108
   22CHL1  H19B 1596   2.298   5.444   9.752 -1.0804  0.1700  0.4240
   22CHL1  H19C 1597   2.348   5.589   9.658  1.4268  0.6372  1.6358
   22CHL1    C1 1598   2.180   5.763   9.820  0.1374  0.6525 -0.5785
   22CHL1   H1A 1599   2.222   5.811   9.729 -2.2989  0.7291 -1.7557
   22CHL1   H1B 1600   2.075   5.799   9.817 -0.2988 -0.0465  2.8579
   22CHL1    C2 1601   2.230   5.800   9.961 -0.3770  0.0572  0.8254
   22CHL1   H2A 1602   2.216   5.909   9.976  0.1977  0.3690 -0.6585
   22CHL1   H2B 1603   2.339   5.779   9.962 -0.8677 -2.7802  0.9826
   22CHL1   C20 1604   1.861   5.420   9.205  0.5695 -0.4995  1.0654
   22CHL1   H20 1605   1.963   5.447   9.173  0.7254 -1.7273  0.4494
   22CHL1   C21 1606   1.755   5.524   9.158  0.4097  0.4978  0.3398
   22CHL1  H21A 1607   1.782   5.566   9.059 -1.0999  0.7158 -0.0095
   22CHL1  H21B 1608   1.745   5.611   9.226  1.0159  0.4152  0.5410
   22CHL1  H21C 1609   1.650   5.486   9.164  0.4935 -0.4151 -2.5718
   22CHL1   C22 1610   1.846   5.285   9.130 -0.1371 -0.2766 -0.2799
   22CHL1  H22A 1611   1.913   5.208   9.174  0.2855 -0.7188 -1.6564
   22CHL1  H22B 1612   1.744   5.250   9.158  0.2256  0.1204  1.7041
   22CHL1   C23 1613   1.877   5.286   8.974 -0.5826  0.3304  0.1401
   22CHL1  H23A 1614   1.829   5.380   8.939 -1.5305  0.3564  1.4103
   22CHL1  H23B 1615   1.987   5.293   8.962 -0.7122  0.4519 -1.0954
   22CHL1   C24 1616   1.820   5.158   8.894 -0.5076 -0.4139 -1.1897
   22CHL1  H24A 1617   1.715   5.147   8.929 -1.0172 -1.2400 -2.8507
   22CHL1  H24B 1618   1.815   5.185   8.787 -2.3169  0.6493 -0.8776
   22CHL1   C25 1619   1.909   5.029   8.912 -0.2182 -0.5949 -0.2660
   22CHL1   H25 1620   1.906   5.013   9.022 -0.6558  0.0896 -0.1786
   22CHL1   C26 1621   1.854   4.901   8.849 -0.3887 -0.4283  0.9506
   22CHL1  H26A 1622   1.890   4.820   8.916 -0.2103 -1.6758 -0.6015
   22CHL1  H26B 1623   1.743   4.899   8.841 -0.4254 -2.5112  1.4654
   22CHL1  H26C 1624   1.893   4.878   8.748  1.4815  0.9513  1.3067
   22CHL1   C27 1625   2.054   5.036   8.872 -0.1509  0.6796 -0.0266
   22CHL1  H27A 1626   2.101   5.116   8.934 -0.0395  2.1156 -1.8767
   22CHL1  H27B 1627   2.103   4.939   8.896 -0.1890  0.9209  1.0628
   22CHL1  H27C 1628   2.073   5.066   8.767  2.7355 -0.6022  0.0192
   23CHL1    C3 1629   5.704   0.380  10.200  0.2431 -0.5673  0.6199
   23CHL1    H3 1630   5.670   0.289  10.146 -2.3998 -0.6632  2.2604
   23CHL1    O3 1631   5.649   0.365  10.326 -0.5606 -0.3851 -0.3451
   23CHL1   H3' 1632   5.573   0.423  10.329 -1.0752 -0.9655  3.9424
   23CHL1    C4 1633   5.848   0.418  10.205  0.6690  0.2965 -0.2689
   23CHL1   H4A 1634   5.862   0.505  10.273  1.3166  0.3705 -0.4928
   23CHL1   H4B 1635   5.897   0.335  10.261  0.7481  0.5055 -0.0264
   23CHL1    C5 1636   5.912   0.435  10.073 -0.2144 -0.9818 -0.5052
   23CHL1    C6 1637   6.016   0.362  10.031  0.5982 -0.2497  0.1159
   23CHL1    H6 1638   6.057   0.285  10.098  2.6549 -1.2817 -2.1731
   23CHL1    C7 1639   6.089   0.381   9.900  0.0536  0.6096 -1.2879
   23CHL1   H7A 1640   6.196   0.379   9.931 -0.3698  0.6379  0.2748
   23CHL1   H7B 1641   6.065   0.296   9.833  2.3810 -1.4462  0.2954
   23CHL1    C8 1642   6.054   0.515   9.830 -0.2535 -0.4592 -0.4664
   23CHL1    H8 1643   6.104   0.590   9.896  1.0109 -1.2162 -0.5350
   23CHL1   C14 1644   6.112   0.523   9.692  0.4513 -0.2838 -0.2860
   23CHL1   H14 1645   6.057   0.447   9.632 -0.9739  1.3506 -1.1709
   23CHL1   C15 1646   6.261   0.509   9.666  0.1215  0.2193  0.1367
   23CHL1  H15A 1647   6.326   0.558   9.741 -0.9348  1.6702  0.1501
   23CHL1  H15B 1648   6.289   0.402   9.678  1.2343  0.6370  1.5154
   23CHL1   C16 1649   6.286   0.555   9.524 -0.2093 -0.4190  0.6476
   23CHL1  H16A 1650   6.368   0.630   9.521 -0.8436  0.2636 -0.2983
   23CHL1  H16B 1651   6.312   0.474   9.453 -0.4708  0.9129 -1.0556
   23CHL1   C17 1652   6.153   0.626   9.481  0.1088  0.7259  0.3420
   23CHL1   H17 1653   6.094   0.551   9.424 -0.4870  1.5520 -0.1437
   23CHL1   C13 1654   6.079   0.649   9.612  0.4061  0.1583 -0.3380
   23CHL1   C18 1655   6.136   0.771   9.690  0.1619  0.2651  0.5359
   23CHL1  H18A 1656   6.107   0.780   9.797 -0.2121  0.4402  0.4226
   23CHL1  H18B 1657   6.247   0.767   9.696  0.2191  1.3185  0.3862
   23CHL1  H18C 1658   6.093   0.855   9.630  1.4354 -0.4930 -1.5434
   23CHL1   C12 1659   5.923   0.645   9.606  0.1614  0.5368  0.2454
   23CHL1  H12A 1660   5.890   0.730   9.542 -0.8763  0.4816  0.6841
   23CHL1  H12B 1661   5.886   0.546   9.573 -0.2330  0.6393  0.3628
   23CHL1   C11 1662   5.863   0.659   9.746  0.1546  0.1855  0.6762
   23CHL1  H11A 1663   5.882   0.760   9.787 -2.7093  0.1699  2.3843
   23CHL1  H11B 1664   5.752   0.659   9.733  0.3138  1.3425 -0.8831
   23CHL1    C9 1665   5.905   0.540   9.836 -0.0831  0.2041  0.1299
   23CHL1    H9 1666   5.850   0.457   9.787  0.5355 -0.6676  0.8901
   23CHL1   C10 1667   5.849   0.546   9.989  0.9156  0.2771  0.8977
   23CHL1   C19 1668   5.872   0.693  10.038  0.1606 -0.0523 -0.1913
   23CHL1  H19A 1669   5.853   0.707  10.147 -0.7441 -0.0678 -0.3329
   23CHL1  H19B 1670   5.979   0.720  10.031  0.0841  0.4350  0.4676
   23CHL1  H19C 1671   5.808   0.767   9.984 -1.5413 -1.2695  0.0587
   23CHL1    C1 1672   5.690   0.524   9.994 -0.1834 -0.0073  0.0400
   23CHL1   H1A 1673   5.649   0.621   9.957 -1.1388 -0.2694  0.3728
   23CHL1   H1B 1674   5.662   0.434   9.935  0.5954 -2.0371  2.5777
   23CHL1    C2 1675   5.626   0.497  10.135  0.5851 -0.3599  0.5256
   23CHL1   H2A 1676   5.520   0.465  10.122  0.7215 -0.8802  0.6739
   23CHL1   H2B 1677   5.626   0.586  10.200  1.1081  1.0551 -1.3249
   23CHL1   C20 1678   6.184   0.747   9.391  0.2636 -0.2949 -0.3955
   23CHL1   H20 1679   6.236   0.817   9.460 -2.0369 -1.6048  2.8915
   23CHL1   C21 1680   6.058   0.804   9.334  0.3079  0.3731  0.2471
   23CHL1  H21A 1681   6.069   0.861   9.240 -2.1704  0.7543  0.1313
   23CHL1  H21B 1682   6.013   0.866   9.415 -0.2616  1.6619 -1.0259
   23CHL1  H21C 1683   5.994   0.720   9.299 -2.6453  1.9571  1.4673
   23CHL1   C22 1684   6.282   0.714   9.275 -0.2272 -0.1583  0.3526
   23CHL1  H22A 1685   6.295   0.810   9.220 -0.2588 -0.3167  0.0657
   23CHL1  H22B 1686   6.383   0.695   9.319 -0.0786  3.6894  2.1013
   23CHL1   C23 1687   6.241   0.608   9.169  0.2461  0.4525  0.4509
   23CHL1  H23A 1688   6.226   0.512   9.222 -1.0561 -0.0855 -0.8031
   23CHL1  H23B 1689   6.147   0.636   9.117  2.3428 -0.0998 -4.0821
   23CHL1   C24 1690   6.349   0.600   9.055  0.5168  0.0515 -0.1033
   23CHL1  H24A 1691   6.345   0.698   9.003  1.2493  1.1436  1.8133
   23CHL1  H24B 1692   6.453   0.576   9.085  0.4448 -0.5388 -0.3012
   23CHL1   C25 1693   6.322   0.498   8.947  0.5666  0.4050  1.6607
   23CHL1   H25 1694   6.219   0.506   8.905  1.2111  1.3924  0.1815
   23CHL1   C26 1695   6.415   0.527   8.825 -0.1022 -0.1659  0.2603
   23CHL1  H26A 1696   6.524   0.518   8.841  0.1923  0.0134 -1.5429
   23CHL1  H26B 1697   6.391   0.466   8.735  1.6767 -1.0528  0.3457
   23CHL1  H26C 1698   6.397   0.635   8.807  2.7448  0.4031  0.4242
   23CHL1   C27 1699   6.330   0.351   8.986 -0.1247 -0.0702 -0.0375
   23CHL1  H27A 1700   6.329   0.277   8.903  0.6651 -0.6159  0.4304
   23CHL1  H27B 1701   6.428   0.322   9.030 -0.0566 -3.1287 -1.9249
   23CHL1  H27C 1702   6.251   0.324   9.060  0.2575 -0.3927  0.2572
   24CHL1    C3 1703   1.103   0.877  10.292 -0.4919  0.4276 -0.4521
   24CHL1    H3 1704   1.161   0.792  10.251 -0.4784 -0.7241  1.7754
   24CHL1    O3 1705   1.087   0.870  10.434 -0.7676 -0.0743  0.0685
   24CHL1   H3' 1706   1.023   0.940  10.452 -1.9126 -1.3012  0.9414
   24CHL1    C4 1707   1.176   1.003  10.249 -0.1360 -0.0167 -0.1736
   24CHL1   H4A 1708   1.117   1.085  10.294  0.3186 -0.7194  1.7748
   24CHL1   H4B 1709   1.275   1.014  10.298 -1.4856 -1.3272  3.1543
   24CHL1    C5 1710   1.186   1.036  10.101  1.3798 -0.3512 -0.3847
   24CHL1    C6 1711   1.298   1.056  10.030 -0.1559  0.4873 -0.3760
   24CHL1    H6 1712   1.393   1.047  10.086 -0.9283 -2.2683  0.6411
   24CHL1    C7 1713   1.300   1.084   9.884  0.6885  0.3748  0.0922
   24CHL1   H7A 1714   1.374   1.166   9.872 -0.4152  1.0719 -2.4809
   24CHL1   H7B 1715   1.342   0.989   9.844  0.1455 -0.3365  1.1458
   24CHL1    C8 1716   1.165   1.118   9.824 -0.2484 -0.4903 -0.2404
   24CHL1    H8 1717   1.150   1.225   9.849 -0.7757 -0.9516  1.5768
   24CHL1   C14 1718   1.187   1.120   9.671  0.2350 -0.3701 -0.0893
   24CHL1   H14 1719   1.219   1.014   9.655  0.4249 -0.8408  2.9298
   24CHL1   C15 1720   1.288   1.211   9.612 -0.3655  0.2052  0.0309
   24CHL1  H15A 1721   1.285   1.315   9.650 -0.1373  0.0050  0.6092
   24CHL1  H15B 1722   1.395   1.182   9.612 -0.3184  0.3487 -0.7746
   24CHL1   C16 1723   1.251   1.210   9.456 -0.1529 -0.0248 -0.1558
   24CHL1  H16A 1724   1.216   1.310   9.422 -0.4118 -0.1350 -0.2176
   24CHL1  H16B 1725   1.320   1.165   9.382 -0.5417 -1.4248  0.3099
   24CHL1   C17 1726   1.123   1.122   9.449 -0.0013 -0.5349 -0.9447
   24CHL1   H17 1727   1.148   1.014   9.442 -0.6965 -0.8269  0.6570
   24CHL1   C13 1728   1.060   1.126   9.590  0.2532 -0.2678  0.5325
   24CHL1   C18 1729   0.994   1.260   9.617  0.1852 -0.5468 -0.1650
   24CHL1  H18A 1730   0.989   1.290   9.723  2.4289  1.0730 -0.4373
   24CHL1  H18B 1731   1.033   1.351   9.565 -1.1010  0.8081  1.1480
   24CHL1  H18C 1732   0.887   1.252   9.588 -0.2620  0.2364  1.1930
   24CHL1   C12 1733   0.969   1.015   9.637  0.0118 -0.5530  0.0166
   24CHL1  H12A 1734   0.876   1.014   9.576 -0.1865  0.4830  0.2790
   24CHL1  H12B 1735   1.024   0.918   9.633  0.1294 -1.1014  5.7838
   24CHL1   C11 1736   0.938   1.028   9.786  0.5833  0.2050  0.1917
   24CHL1  H11A 1737   0.877   1.119   9.799 -1.5584 -1.2957  1.0773
   24CHL1  H11B 1738   0.868   0.947   9.812 -0.6970  0.6076 -1.7901
   24CHL1    C9 1739   1.057   1.021   9.871 -0.1095 -0.0318  0.3834
   24CHL1    H9 1740   1.117   0.933   9.837  0.9272  0.6599  0.3742
   24CHL1   C10 1741   1.044   1.026  10.030 -0.7172  0.3020 -0.2212
   24CHL1   C19 1742   0.967   1.149  10.076 -0.0053 -0.1979 -0.7703
   24CHL1  H19A 1743   1.023   1.239  10.042 -0.5797  0.0363 -1.0986
   24CHL1  H19B 1744   0.870   1.155  10.023 -0.2227  0.4937 -0.3027
   24CHL1  H19C 1745   0.944   1.149  10.184 -1.3577 -3.1770 -0.9809
   24CHL1    C1 1746   0.967   0.900  10.078  0.0206  0.2794  0.0465
   24CHL1   H1A 1747   0.866   0.920  10.036 -0.3595 -1.1913  0.2031
   24CHL1   H1B 1748   1.019   0.813  10.033  0.2942  0.5832 -0.2374
   24CHL1    C2 1749   0.962   0.883  10.236  0.0604  0.0836  0.3961
   24CHL1   H2A 1750   0.908   0.788  10.258 -2.4820  1.6301  1.2027
   24CHL1   H2B 1751   0.909   0.965  10.288 -1.1344  0.8306 -1.8770
   24CHL1   C20 1752   1.034   1.134   9.320 -0.5185 -0.0133  0.0315
   24CHL1   H20 1753   0.960   1.214   9.344  1.4011  1.9738 -0.3949
   24CHL1   C21 1754   0.949   1.005   9.293 -1.0273 -0.4268  0.6240
   24CHL1  H21A 1755   0.865   1.018   9.222  1.7734  1.4360 -2.6396
   24CHL1  H21B 1756   0.917   0.958   9.389 -4.2587 -0.1953 -0.2557
   24CHL1  H21C 1757   1.024   0.936   9.249 -1.1154 -0.1279  0.0034
   24CHL1   C22 1758   1.117   1.167   9.189 -0.1058 -0.1409 -0.7984
   24CHL1  H22A 1759   1.150   1.272   9.203 -1.3586  0.1206  0.4312
   24CHL1  H22B 1760   1.210   1.108   9.177  0.2552  0.2362  0.1332
   24CHL1   C23 1761   1.060   1.177   9.046  0.5981  0.9993  0.6764
   24CHL1  H23A 1762   1.038   1.077   9.005  0.7807  0.9780  0.6320
   24CHL1  H23B 1763   0.971   1.243   9.054  0.0807  0.3480  0.3497
   24CHL1   C24 1764   1.156   1.243   8.952  0.5788  0.0954  0.9644
   24CHL1  H24A 1765   1.193   1.340   8.991 -1.2627  1.1012  0.3223
   24CHL1  H24B 1766   1.245   1.176   8.946  1.8409  1.5734  2.0457
   24CHL1   C25 1767   1.110   1.257   8.802  0.0718  0.2458  0.4407
   24CHL1   H25 1768   1.199   1.297   8.750  2.1530 -1.9624  2.1023
   24CHL1   C26 1769   1.051   1.133   8.724  0.3632  0.2119 -0.4437
   24CHL1  H26A 1770   0.943   1.117   8.745  0.4776  1.4340  1.3452
   24CHL1  H26B 1771   1.060   1.159   8.616  0.3494  2.8989  0.1291
   24CHL1  H26C 1772   1.096   1.034   8.743 -0.6615 -0.3764 -0.9843
   24CHL1   C27 1773   1.009   1.371   8.806  0.4308 -0.3024 -0.4933
   24CHL1  H27A 1774   0.977   1.407   8.706 -2.1899 -3.0997 -0.8152
   24CHL1  H27B 1775   0.921   1.319   8.849  0.2047  1.5843  1.4864
   24CHL1  H27C 1776   1.047   1.451   8.874  1.0853 -1.0574  0.0507
   25CHL1    C3 1777   3.660   1.937  10.271 -0.0152  0.5253 -0.0471
   25CHL1    H3 1778   3.665   1.830  10.242 -1.9880  0.5051 -0.4437
   25CHL1    O3 1779   3.661   1.948  10.410 -0.1571 -0.6224  0.1351
   25CHL1   H3' 1780   3.691   2.037  10.425 -1.7535  0.1191 -0.7431
   25CHL1    C4 1781   3.786   2.011  10.216 -0.1677  0.2824  0.1377
   25CHL1   H4A 1782   3.794   2.112  10.262 -0.3810 -0.5438  2.1184
   25CHL1   H4B 1783   3.871   1.958  10.264  1.6793  1.2317 -1.9136
   25CHL1    C5 1784   3.786   1.996  10.060  0.1646 -0.6865 -0.3583
   25CHL1    C6 1785   3.887   1.931  10.002  0.3841 -0.6854 -0.5298
   25CHL1    H6 1786   3.970   1.893  10.063 -0.2377 -0.9181  0.1840
   25CHL1    C7 1787   3.903   1.917   9.854  0.2234 -0.7842 -0.1621
   25CHL1   H7A 1788   4.006   1.951   9.833  0.4055  0.6851  2.5693
   25CHL1   H7B 1789   3.900   1.810   9.825 -1.5347 -0.9068  0.3269
   25CHL1    C8 1790   3.796   1.990   9.772  0.0349 -0.4679  0.7812
   25CHL1    H8 1791   3.827   2.096   9.766  0.2746 -0.6021 -1.6481
   25CHL1   C14 1792   3.777   1.927   9.633  0.7212  0.0062  0.6350
   25CHL1   H14 1793   3.733   1.826   9.649 -1.0224  0.2927 -1.7793
   25CHL1   C15 1794   3.898   1.884   9.543  0.3733  0.0876 -0.3316
   25CHL1  H15A 1795   3.963   1.974   9.552  0.4761  0.3928 -3.1025
   25CHL1  H15B 1796   3.942   1.790   9.582 -0.4936  0.3436  1.3009
   25CHL1   C16 1797   3.841   1.884   9.398  0.1492 -0.1351 -0.3382
   25CHL1  H16A 1798   3.901   1.951   9.333  2.1446 -0.6420  0.9121
   25CHL1  H16B 1799   3.855   1.782   9.356  3.7956 -0.5711  1.5554
   25CHL1   C17 1800   3.691   1.915   9.409 -0.5836 -0.3862  0.1078
   25CHL1   H17 1801   3.647   1.814   9.423 -1.8266  0.5313  4.0202
   25CHL1   C13 1802   3.673   1.996   9.547  0.0966  0.1245  0.0599
   25CHL1   C18 1803   3.706   2.143   9.523 -0.5161 -0.4019  0.3350
   25CHL1  H18A 1804   3.620   2.185   9.467  0.2859  1.0895  0.1764
   25CHL1  H18B 1805   3.711   2.190   9.623 -2.3450 -0.8015  0.6476
   25CHL1  H18C 1806   3.798   2.159   9.463  0.2218 -2.3240  0.8865
   25CHL1   C12 1807   3.537   1.981   9.611  0.0418  1.0774 -0.1115
   25CHL1  H12A 1808   3.475   2.049   9.549 -0.4755  0.1429 -0.6447
   25CHL1  H12B 1809   3.503   1.876   9.599 -2.7443  1.9976 -1.0306
   25CHL1   C11 1810   3.540   2.033   9.751  0.4965  0.1169 -0.1521
   25CHL1  H11A 1811   3.533   2.144   9.745  0.0298  0.1760  1.1525
   25CHL1  H11B 1812   3.441   2.017   9.797  0.1378 -0.2305 -1.0217
   25CHL1    C9 1813   3.659   1.985   9.838  0.6565  0.4237 -0.5984
   25CHL1    H9 1814   3.649   1.876   9.852  1.3026  0.3128 -0.9663
   25CHL1   C10 1815   3.654   2.045   9.981  0.2578 -0.4019  0.3614
   25CHL1   C19 1816   3.638   2.197   9.969  0.0469  0.2769  0.5526
   25CHL1  H19A 1817   3.541   2.222   9.923  1.5356  1.4301 -2.2179
   25CHL1  H19B 1818   3.624   2.236  10.072 -0.9760  0.1064  0.4857
   25CHL1  H19C 1819   3.723   2.245   9.915  0.2117 -0.1779  0.4038
   25CHL1    C1 1820   3.529   2.000  10.057 -0.8877 -0.4392 -0.0711
   25CHL1   H1A 1821   3.447   2.066  10.025  0.6396  1.5296 -0.1149
   25CHL1   H1B 1822   3.512   1.894  10.030 -0.5464  0.1226 -2.7556
   25CHL1    C2 1823   3.536   1.989  10.212  0.0364 -0.8066  0.2494
   25CHL1   H2A 1824   3.451   1.926  10.246 -0.0025 -0.0188  1.7337
   25CHL1   H2B 1825   3.521   2.093  10.249  3.1023 -0.2646  0.2287
   25CHL1   C20 1826   3.627   1.973   9.285  0.2057  0.1047 -0.8807
   25CHL1   H20 1827   3.661   2.078   9.278 -2.1185  1.5430  4.3968
   25CHL1   C21 1828   3.472   1.963   9.300  0.9250  0.2832 -0.6255
   25CHL1  H21A 1829   3.430   2.047   9.359 -2.2774 -2.1019  0.8187
   25CHL1  H21B 1830   3.441   1.862   9.334  0.4438  0.9279  0.9363
   25CHL1  H21C 1831   3.430   1.971   9.197  0.7656 -0.0760 -0.5920
   25CHL1   C22 1832   3.666   1.891   9.161 -0.2234 -0.0762 -0.0399
   25CHL1  H22A 1833   3.770   1.852   9.159  0.8070  2.3655  1.3244
   25CHL1  H22B 1834   3.615   1.793   9.150  0.8877 -0.4829 -2.3461
   25CHL1   C23 1835   3.657   1.977   9.036 -0.2893  0.7703 -0.3040
   25CHL1  H23A 1836   3.566   2.040   9.038 -0.4476  0.5354 -0.0844
   25CHL1  H23B 1837   3.743   2.049   9.032  1.7563 -1.2032  3.0295
   25CHL1   C24 1838   3.652   1.885   8.911 -0.1172 -0.4517  0.3130
   25CHL1  H24A 1839   3.741   1.821   8.893 -1.1860 -1.1325 -3.3019
   25CHL1  H24B 1840   3.563   1.819   8.926 -1.9891  1.7239 -0.5473
   25CHL1   C25 1841   3.632   1.963   8.777  0.9966  0.3594 -0.6606
   25CHL1   H25 1842   3.555   2.042   8.792 -0.1466 -0.5588 -1.4966
   25CHL1   C26 1843   3.757   2.030   8.721  0.1996 -0.0178  0.3942
   25CHL1  H26A 1844   3.822   1.953   8.675  2.0697  1.7118 -0.0587
   25CHL1  H26B 1845   3.734   2.115   8.653 -1.0416  1.1028  2.1537
   25CHL1  H26C 1846   3.820   2.075   8.801 -0.8159  2.5270 -0.1378
   25CHL1   C27 1847   3.580   1.865   8.680 -0.1030  1.1993  0.1979
   25CHL1  H27A 1848   3.577   1.909   8.578  2.9548  0.7119 -0.1860
   25CHL1  H27B 1849   3.653   1.781   8.683 -2.6366 -1.1313  0.6061
   25CHL1  H27C 1850   3.486   1.811   8.705 -0.3744  1.3879 -0.3979
   26CHL1    C3 1851   4.490   4.393  10.055 -0.8816 -0.3282 -0.2731
   26CHL1    H3 1852   4.599   4.371  10.048 -0.4943  1.6079 -0.9264
   26CHL1    O3 1853   4.466   4.407  10.195  0.0048  0.0900  0.3890
   26CHL1   H3' 1854   4.371   4.423  10.194 -0.0969 -0.4920 -0.6950
   26CHL1    C4 1855   4.457   4.523   9.981  0.1382  0.2800 -0.0292
   26CHL1   H4A 1856   4.366   4.574  10.020  0.5519  0.6241  0.5024
   26CHL1   H4B 1857   4.527   4.590  10.034 -0.1057  0.7811 -0.3246
   26CHL1    C5 1858   4.465   4.518   9.831 -0.0249  0.0951  0.2183
   26CHL1    C6 1859   4.533   4.606   9.757  0.1891  0.5020  0.6373
   26CHL1    H6 1860   4.585   4.693   9.801  1.0828  0.2669  0.0812
   26CHL1    C7 1861   4.555   4.597   9.603  0.2358 -0.0017  1.3208
   26CHL1   H7A 1862   4.527   4.691   9.549 -3.0826 -1.2935  0.5314
   26CHL1   H7B 1863   4.662   4.579   9.579 -0.3343 -0.0753 -1.4749
   26CHL1    C8 1864   4.456   4.499   9.532 -0.1921 -0.8016 -0.0606
   26CHL1    H8 1865   4.352   4.539   9.532 -0.3696 -0.9985  2.9377
   26CHL1   C14 1866   4.491   4.466   9.394  0.0635 -0.3308  0.8877
   26CHL1   H14 1867   4.591   4.416   9.394  0.3032  0.0271 -1.3898
   26CHL1   C15 1868   4.507   4.590   9.309 -0.2591  0.2990  0.1118
   26CHL1  H15A 1869   4.426   4.663   9.332  0.9082  1.5923  0.1903
   26CHL1  H15B 1870   4.603   4.639   9.337 -0.2056  0.7449 -0.8283
   26CHL1   C16 1871   4.491   4.532   9.167  0.6965 -0.2730 -0.0656
   26CHL1  H16A 1872   4.404   4.577   9.114  0.8324  0.3721  0.2529
   26CHL1  H16B 1873   4.580   4.545   9.103  0.7077  1.4647  0.2645
   26CHL1   C17 1874   4.441   4.384   9.175 -0.2754 -0.4151 -0.4932
   26CHL1   H17 1875   4.535   4.324   9.178  1.2460  1.8721  0.6193
   26CHL1   C13 1876   4.390   4.373   9.324  0.3905  0.2891 -0.7042
   26CHL1   C18 1877   4.239   4.424   9.320  0.6048 -0.1235 -0.2437
   26CHL1  H18A 1878   4.243   4.530   9.287 -0.8507 -0.0001 -0.0990
   26CHL1  H18B 1879   4.187   4.358   9.247  0.5127  1.5123 -1.7177
   26CHL1  H18C 1880   4.178   4.431   9.413  1.4458 -1.1443  0.4070
   26CHL1   C12 1881   4.409   4.242   9.401 -0.4024 -0.0523 -0.0779
   26CHL1  H12A 1882   4.342   4.166   9.355  0.6462 -0.3816 -1.1223
   26CHL1  H12B 1883   4.516   4.213   9.402  0.4940  2.6891 -2.2799
   26CHL1   C11 1884   4.366   4.254   9.551  0.4892  0.2143  0.7482
   26CHL1  H11A 1885   4.256   4.263   9.552  0.1432 -2.8865  1.0848
   26CHL1  H11B 1886   4.383   4.156   9.601  0.4826  0.2640  0.8481
   26CHL1    C9 1887   4.448   4.371   9.621  0.2531 -0.2862  0.5570
   26CHL1    H9 1888   4.555   4.343   9.616  0.5307  0.8551 -0.4953
   26CHL1   C10 1889   4.404   4.395   9.768 -0.3433  0.4090 -0.2865
   26CHL1   C19 1890   4.252   4.418   9.769 -0.2483 -0.0517  0.2348
   26CHL1  H19A 1891   4.217   4.450   9.869  0.8364  1.5359  0.1464
   26CHL1  H19B 1892   4.239   4.492   9.688 -0.5046 -0.8837 -0.4935
   26CHL1  H19C 1893   4.201   4.323   9.742  0.5614 -0.7541  1.0702
   26CHL1    C1 1894   4.426   4.263   9.851 -0.5157  0.5635 -0.3356
   26CHL1   H1A 1895   4.350   4.187   9.822 -1.6635  0.3695  2.7448
   26CHL1   H1B 1896   4.527   4.231   9.819 -0.6536  1.0322 -1.2823
   26CHL1    C2 1897   4.415   4.268  10.005 -0.9331 -0.4272  0.2392
   26CHL1   H2A 1898   4.449   4.172  10.050  1.3464 -0.1967 -0.8194
   26CHL1   H2B 1899   4.310   4.294  10.030 -0.0562  1.5434  2.1333
   26CHL1   C20 1900   4.363   4.339   9.052  0.0222 -0.1568  0.6756
   26CHL1   H20 1901   4.260   4.382   9.045  0.0452  0.0711  1.5712
   26CHL1   C21 1902   4.337   4.178   9.050  0.2595  0.0656  0.1385
   26CHL1  H21A 1903   4.264   4.148   9.128  1.0901 -0.4327  0.7362
   26CHL1  H21B 1904   4.438   4.140   9.076  0.0391  0.4431  1.5977
   26CHL1  H21C 1905   4.293   4.130   8.960  1.1929 -2.7437  1.0837
   26CHL1   C22 1906   4.436   4.383   8.915 -0.1477  0.7282 -0.1168
   26CHL1  H22A 1907   4.380   4.324   8.839  1.9115  0.6546 -1.6493
   26CHL1  H22B 1908   4.437   4.492   8.894 -2.6378  1.0068  0.7980
   26CHL1   C23 1909   4.580   4.336   8.902 -0.5334 -0.6758 -0.0988
   26CHL1  H23A 1910   4.654   4.407   8.946  0.5263 -2.6508  1.4549
   26CHL1  H23B 1911   4.588   4.229   8.929 -1.1563 -0.9499 -0.9703
   26CHL1   C24 1912   4.605   4.346   8.746 -0.9775 -0.4205  0.4458
   26CHL1  H24A 1913   4.516   4.323   8.684 -2.3880 -0.7869  2.4836
   26CHL1  H24B 1914   4.618   4.452   8.715  1.2608 -0.8408 -0.2188
   26CHL1   C25 1915   4.725   4.260   8.702  0.0927 -0.3349  0.1341
   26CHL1   H25 1916   4.705   4.155   8.731  2.6995 -1.4939 -1.8841
   26CHL1   C26 1917   4.746   4.271   8.548 -0.1637 -0.3636  0.3621
   26CHL1  H26A 1918   4.790   4.365   8.508 -0.9240 -1.4317 -3.2833
   26CHL1  H26B 1919   4.820   4.189   8.532 -0.5979 -0.9588  1.3150
   26CHL1  H26C 1920   4.651   4.245   8.498 -1.6199  0.3260  2.5990
   26CHL1   C27 1921   4.858   4.293   8.780 -0.1166 -0.3285 -0.4151
   26CHL1  H27A 1922   4.928   4.228   8.725  0.8029  0.5033 -0.2668
   26CHL1  H27B 1923   4.891   4.399   8.783 -0.4982 -0.2190  0.2928
   26CHL1  H27C 1924   4.848   4.259   8.885  0.8853  0.5762 -0.0063
   27CHL1    C3 1925   4.065   2.435  10.348  0.2825  0.2549 -0.2327
   27CHL1    H3 1926   3.958   2.409  10.332  1.3222 -4.2950 -1.2515
   27CHL1    O3 1927   4.090   2.446  10.487 -0.2934 -0.4672  0.0889
   27CHL1   H3' 1928   4.186   2.440  10.489 -0.2918 -0.2830  0.9916
   27CHL1    C4 1929   4.156   2.323  10.291 -0.3349 -0.4963 -0.1867
   27CHL1   H4A 1930   4.259   2.348  10.325 -0.6255 -1.1115  1.1837
   27CHL1   H4B 1931   4.128   2.223  10.330  2.1470 -1.5321 -0.8559
   27CHL1    C5 1932   4.159   2.315  10.135 -0.2871  0.0378  0.1257
   27CHL1    C6 1933   4.141   2.209  10.054  0.1820  0.7073 -0.6369
   27CHL1    H6 1934   4.124   2.117  10.112  1.5187  2.1818  2.3166
   27CHL1    C7 1935   4.149   2.199   9.911 -0.0083  0.0416  0.6810
   27CHL1   H7A 1936   4.195   2.104   9.878  0.5039  0.3267  0.5616
   27CHL1   H7B 1937   4.046   2.197   9.871  0.2952 -0.2777 -0.0931
   27CHL1    C8 1938   4.225   2.316   9.852 -0.5114 -0.3481 -0.0084
   27CHL1    H8 1939   4.334   2.311   9.870 -0.3890  3.0483  1.0198
   27CHL1   C14 1940   4.200   2.330   9.700 -0.0574 -0.0483 -0.1685
   27CHL1   H14 1941   4.091   2.338   9.684 -0.1908 -0.4685  0.4914
   27CHL1   C15 1942   4.235   2.206   9.616  0.0391 -0.3451  0.6727
   27CHL1  H15A 1943   4.327   2.163   9.661  1.6349  1.3833 -0.8096
   27CHL1  H15B 1944   4.154   2.130   9.621 -0.7208  0.3901 -0.0648
   27CHL1   C16 1945   4.253   2.253   9.473  0.6499  0.3437 -0.6373
   27CHL1  H16A 1946   4.355   2.226   9.437  0.9994  1.1119 -0.2446
   27CHL1  H16B 1947   4.178   2.224   9.397 -1.5733  0.3347  1.4459
   27CHL1   C17 1948   4.246   2.413   9.481  0.1320  0.8771  0.3843
   27CHL1   H17 1949   4.137   2.431   9.468  0.0020  0.1088  0.3396
   27CHL1   C13 1950   4.273   2.446   9.632 -0.2681 -0.3738 -0.0653
   27CHL1   C18 1951   4.428   2.440   9.654  0.4248  0.1411  0.0670
   27CHL1  H18A 1952   4.465   2.442   9.759  0.6196 -0.1374  0.0049
   27CHL1  H18B 1953   4.467   2.350   9.602  1.6286  0.1665  0.8839
   27CHL1  H18C 1954   4.486   2.526   9.613  1.6568 -1.1461 -1.0174
   27CHL1   C12 1955   4.216   2.579   9.689 -0.2679  0.3563  0.7308
   27CHL1  H12A 1956   4.272   2.663   9.641 -1.7165  1.1164  0.2919
   27CHL1  H12B 1957   4.107   2.592   9.668 -0.2505 -2.0990 -1.3124
   27CHL1   C11 1958   4.231   2.573   9.843 -0.0431  0.4248 -0.1612
   27CHL1  H11A 1959   4.341   2.570   9.863 -0.3280 -3.2119  1.6057
   27CHL1  H11B 1960   4.184   2.666   9.881 -1.2769 -0.8886  1.6662
   27CHL1    C9 1961   4.175   2.445   9.912 -0.9460  0.0495  0.0033
   27CHL1    H9 1962   4.066   2.436   9.891 -0.6554 -0.1357 -1.5586
   27CHL1   C10 1963   4.190   2.452  10.072 -0.6572  0.1631  0.2231
   27CHL1   C19 1964   4.341   2.491  10.094 -0.4602  0.0896 -0.2283
   27CHL1  H19A 1965   4.368   2.594  10.064  2.0040 -0.2826  0.4667
   27CHL1  H19B 1966   4.366   2.493  10.203 -2.0651 -0.6401  0.1723
   27CHL1  H19C 1967   4.408   2.420  10.040  0.0515  1.8259 -1.9844
   27CHL1    C1 1968   4.103   2.566  10.135 -0.2488 -0.0567  0.1110
   27CHL1   H1A 1969   4.150   2.662  10.104 -1.2182  0.7247  0.9855
   27CHL1   H1B 1970   3.999   2.558  10.100 -0.1849 -0.9228  0.1039
   27CHL1    C2 1971   4.104   2.564  10.287 -0.3302  0.2759  0.1024
   27CHL1   H2A 1972   4.046   2.653  10.320  0.9966  1.6292 -1.0427
   27CHL1   H2B 1973   4.209   2.577  10.321 -0.3697 -1.2747  0.9077
   27CHL1   C20 1974   4.314   2.486   9.374 -0.1221 -0.0172  0.0010
   27CHL1   H20 1975   4.419   2.511   9.402 -0.1210 -0.2294  0.1850
   27CHL1   C21 1976   4.242   2.625   9.347 -0.3033 -0.1477  0.3728
   27CHL1  H21A 1977   4.217   2.675   9.444  2.4348  0.5387  0.8183
   27CHL1  H21B 1978   4.146   2.617   9.291 -1.5142 -1.2390  2.4353
   27CHL1  H21C 1979   4.311   2.685   9.284  0.9591 -2.6489 -0.7677
   27CHL1   C22 1980   4.332   2.412   9.234  0.5721  0.0298  0.5658
   27CHL1  H22A 1981   4.385   2.314   9.228 -1.1522 -0.8961 -0.8611
   27CHL1  H22B 1982   4.231   2.382   9.197  0.8343  0.6991 -0.7091
   27CHL1   C23 1983   4.404   2.490   9.132  0.3645 -0.5530 -0.6112
   27CHL1  H23A 1984   4.336   2.575   9.112 -1.2409 -0.8647  2.7416
   27CHL1  H23B 1985   4.493   2.544   9.172  1.9396 -1.9017 -2.1218
   27CHL1   C24 1986   4.440   2.421   9.008 -0.0213  0.7062 -0.3171
   27CHL1  H24A 1987   4.533   2.361   9.019 -0.8107 -0.8121 -1.4598
   27CHL1  H24B 1988   4.370   2.337   8.988  0.2733 -0.1512  1.9218
   27CHL1   C25 1989   4.464   2.504   8.888  0.4774 -0.0567 -0.4337
   27CHL1   H25 1990   4.498   2.605   8.919 -0.5929  0.5085 -1.0648
   27CHL1   C26 1991   4.570   2.449   8.786  0.5432 -0.2158 -0.2922
   27CHL1  H26A 1992   4.553   2.500   8.688  0.1033 -1.2136 -0.7456
   27CHL1  H26B 1993   4.669   2.500   8.800  0.6622 -0.7548  0.9772
   27CHL1  H26C 1994   4.576   2.340   8.765  3.4357 -0.0385 -0.9340
   27CHL1   C27 1995   4.328   2.524   8.826  0.4461 -0.0455  0.7251
   27CHL1  H27A 1996   4.335   2.587   8.735  0.6389  1.9612  2.0650
   27CHL1  H27B 1997   4.287   2.424   8.803  0.4122  0.0043  0.5709
   27CHL1  H27C 1998   4.255   2.566   8.899 -1.8425 -0.4828 -1.1974
   28CHL1    C3 1999   3.192   6.617   9.776 -0.1461  0.3542 -0.0107
   28CHL1    H3 2000   3.095   6.671   9.768 -0.1705  0.1802 -1.0358
   28CHL1    O3 2001   3.222   6.589   9.914 -0.3590 -0.0074  0.2124
   28CHL1   H3' 2002   3.311   6.620   9.932 -0.7955  4.5112 -3.5109
   28CHL1    C4 2003   3.183   6.480   9.699  0.2481  0.2346  0.3173
   28CHL1   H4A 2004   3.278   6.433   9.731  1.6850  3.7285  1.7402
   28CHL1   H4B 2005   3.099   6.426   9.747 -2.4630  3.3832 -0.4921
   28CHL1    C5 2006   3.159   6.511   9.548  0.1415 -0.2691  0.3244
   28CHL1    C6 2007   3.053   6.464   9.479  0.4449  0.3260 -0.5786
   28CHL1    H6 2008   2.980   6.407   9.537  1.1350 -0.4188 -0.4275
   28CHL1    C7 2009   3.018   6.485   9.334  0.0315 -0.3900  0.2614
   28CHL1   H7A 2010   2.979   6.389   9.295  0.5718 -1.7087  2.7560
   28CHL1   H7B 2011   2.930   6.551   9.321  0.2594  0.0593  0.9245
   28CHL1    C8 2012   3.144   6.541   9.259  0.1662 -0.3205 -0.1070
   28CHL1    H8 2013   3.211   6.453   9.251  0.0854 -0.4311  0.3829
   28CHL1   C14 2014   3.105   6.587   9.116  0.0468  1.0250 -0.5370
   28CHL1   H14 2015   3.027   6.666   9.121 -1.2115 -0.0179 -2.3869
   28CHL1   C15 2016   3.028   6.484   9.029  0.3606 -0.0652  0.3431
   28CHL1  H15A 2017   3.067   6.380   9.035  1.3185  0.3704  2.9749
   28CHL1  H15B 2018   2.922   6.490   9.059  0.4550 -1.6883  1.1055
   28CHL1   C16 2019   3.044   6.545   8.888 -0.2059  0.1681  0.1595
   28CHL1  H16A 2020   3.099   6.473   8.824 -0.2477 -1.0690  1.4655
   28CHL1  H16B 2021   2.946   6.573   8.843 -1.2805 -0.7956  1.8049
   28CHL1   C17 2022   3.138   6.668   8.903 -0.0788  0.1432  0.1145
   28CHL1   H17 2023   3.074   6.758   8.921  1.4368  0.9443  1.9636
   28CHL1   C13 2024   3.213   6.647   9.035  0.0046 -0.2268  0.3083
   28CHL1   C18 2025   3.324   6.537   9.014 -0.2005  0.2016  0.3441
   28CHL1  H18A 2026   3.363   6.523   9.117 -0.2806  0.2345  0.3798
   28CHL1  H18B 2027   3.290   6.444   8.963 -2.2017  1.0329  0.0525
   28CHL1  H18C 2028   3.412   6.574   8.957 -1.7308  0.3987 -2.0329
   28CHL1   C12 2029   3.263   6.770   9.112  0.1121  0.5729 -0.5943
   28CHL1  H12A 2030   3.343   6.832   9.064  0.5549 -0.3703 -1.1017
   28CHL1  H12B 2031   3.178   6.837   9.137  0.9038  1.8583 -1.1977
   28CHL1   C11 2032   3.308   6.739   9.255 -0.3194 -0.0879 -0.0303
   28CHL1  H11A 2033   3.409   6.694   9.247 -0.0845  0.0525  1.6911
   28CHL1  H11B 2034   3.329   6.836   9.305  3.1626 -0.9893  0.5081
   28CHL1    C9 2035   3.211   6.656   9.337  0.3270 -0.2253 -0.2535
   28CHL1    H9 2036   3.124   6.723   9.353  0.4203 -0.2967  0.5827
   28CHL1   C10 2037   3.260   6.610   9.475 -0.0901  0.5844  0.3987
   28CHL1   C19 2038   3.402   6.539   9.465 -0.2227 -0.0565 -0.8392
   28CHL1  H19A 2039   3.406   6.478   9.372  0.1305 -1.2447 -0.0699
   28CHL1  H19B 2040   3.486   6.612   9.468 -1.6894  1.6852 -0.0679
   28CHL1  H19C 2041   3.422   6.478   9.556  1.9994  3.4042  1.2504
   28CHL1    C1 2042   3.284   6.731   9.568 -0.3333 -0.0410 -0.1274
   28CHL1   H1A 2043   3.361   6.798   9.526 -0.5958 -0.0068 -0.5557
   28CHL1   H1B 2044   3.188   6.788   9.569 -0.3961 -0.1471  0.3200
   28CHL1    C2 2045   3.303   6.709   9.722 -0.0209 -0.3638  0.6810
   28CHL1   H2A 2046   3.301   6.812   9.763 -0.8258 -0.4576  0.8880
   28CHL1   H2B 2047   3.402   6.662   9.740  0.6025 -1.7569 -4.8204
   28CHL1   C20 2048   3.214   6.678   8.768  1.2133 -0.3239  0.1580
   28CHL1   H20 2049   3.290   6.598   8.761  1.3429 -0.4167  2.2388
   28CHL1   C21 2050   3.277   6.819   8.785 -0.3560  0.4411  0.0196
   28CHL1  H21A 2051   3.326   6.854   8.691  1.5822 -1.9016  0.0443
   28CHL1  H21B 2052   3.355   6.829   8.864 -1.7567 -0.3496  1.5532
   28CHL1  H21C 2053   3.210   6.905   8.805 -0.6928  0.4510 -1.0459
   28CHL1   C22 2054   3.122   6.696   8.640  0.0938 -0.0136  0.2678
   28CHL1  H22A 2055   3.056   6.607   8.649  1.6461 -1.0717  2.1255
   28CHL1  H22B 2056   3.069   6.793   8.637  3.1147  1.8979  2.7818
   28CHL1   C23 2057   3.200   6.686   8.507  0.1914 -0.1706 -0.0965
   28CHL1  H23A 2058   3.280   6.763   8.498 -1.5314  1.5760 -1.4424
   28CHL1  H23B 2059   3.247   6.586   8.497  1.7318  0.5703 -0.6521
   28CHL1   C24 2060   3.105   6.705   8.390 -0.5442  0.7130  0.4182
   28CHL1  H24A 2061   3.116   6.633   8.306 -4.0667 -0.1653  0.5583
   28CHL1  H24B 2062   3.003   6.678   8.426 -1.1142  2.4313  0.2078
   28CHL1   C25 2063   3.108   6.845   8.327 -0.8375  0.0198 -0.2041
   28CHL1   H25 2064   3.095   6.919   8.409  0.4145  1.1319 -0.9638
   28CHL1   C26 2065   3.246   6.874   8.262 -0.3954  0.0688 -0.2092
   28CHL1  H26A 2066   3.248   6.976   8.219  0.2332  0.2447  0.2273
   28CHL1  H26B 2067   3.330   6.862   8.334 -1.0765 -1.3373  0.3922
   28CHL1  H26C 2068   3.266   6.815   8.170 -0.1035 -1.9192  1.0798
   28CHL1   C27 2069   2.999   6.874   8.227 -0.3633  0.0411  0.6021
   28CHL1  H27A 2070   2.902   6.854   8.277 -0.5410  0.4797  0.4418
   28CHL1  H27B 2071   3.004   6.978   8.187  1.2492 -0.0650  0.4507
   28CHL1  H27C 2072   3.006   6.802   8.142  1.4872  0.1966  0.5780
   29CHL1    C3 2073   4.499   6.122   6.705 -0.5381  0.2488 -0.4181
   29CHL1    H3 2074   4.542   6.208   6.760 -0.9335  0.0416  0.2187
   29CHL1    O3 2075   4.519   6.144   6.566  0.6606  0.2632  0.2664
   29CHL1   H3' 2076   4.612   6.132   6.549  0.3295  0.3542 -1.9519
   29CHL1    C4 2077   4.575   5.992   6.743  0.4342  0.7440  0.4297
   29CHL1   H4A 2078   4.541   5.900   6.690  0.9837  1.6779 -1.6425
   29CHL1   H4B 2079   4.678   6.021   6.713 -0.1778  1.0300 -1.5485
   29CHL1    C5 2080   4.550   5.974   6.892 -0.3469 -0.4534 -0.4285
   29CHL1    C6 2081   4.653   5.958   6.978  0.4596  0.7058 -0.2186
   29CHL1    H6 2082   4.754   5.963   6.934 -0.5196 -2.1296 -3.1752
   29CHL1    C7 2083   4.632   5.922   7.119  0.1560  0.2768 -0.0055
   29CHL1   H7A 2084   4.702   5.843   7.154 -0.9079  0.4221  2.6405
   29CHL1   H7B 2085   4.665   6.012   7.175 -0.4846  0.3517  0.2526
   29CHL1    C8 2086   4.491   5.891   7.162 -0.0609 -0.3006  0.5259
   29CHL1    H8 2087   4.472   5.784   7.137  0.0000 -0.4805  1.2366
   29CHL1   C14 2088   4.479   5.912   7.313  0.7138  0.6165  0.0141
   29CHL1   H14 2089   4.502   6.020   7.330  0.7764  0.7078 -0.6106
   29CHL1   C15 2090   4.582   5.830   7.397 -0.3839 -0.0486 -0.4081
   29CHL1  H15A 2091   4.591   5.723   7.368 -2.7500 -0.7747  1.2122
   29CHL1  H15B 2092   4.678   5.885   7.400 -1.4605  1.9025  0.3044
   29CHL1   C16 2093   4.516   5.822   7.532  0.3609 -0.4345 -1.0909
   29CHL1  H16A 2094   4.497   5.718   7.564  1.9679 -0.8159 -1.2980
   29CHL1  H16B 2095   4.580   5.871   7.609 -0.4975  0.3977 -0.8920
   29CHL1   C17 2096   4.376   5.889   7.527 -0.2158  0.3772 -0.4812
   29CHL1   H17 2097   4.399   5.995   7.549 -1.0446  0.5346 -0.3250
   29CHL1   C13 2098   4.340   5.876   7.372  0.7376  0.6759  0.9598
   29CHL1   C18 2099   4.311   5.731   7.334  0.9214 -0.0091  0.2022
   29CHL1  H18A 2100   4.282   5.722   7.228 -1.0862 -0.6680  0.7557
   29CHL1  H18B 2101   4.403   5.672   7.349  0.1042 -1.5561 -0.6102
   29CHL1  H18C 2102   4.230   5.681   7.393  0.0799  0.2201 -0.7331
   29CHL1   C12 2103   4.241   5.974   7.312 -0.2665 -0.4782  0.5527
   29CHL1  H12A 2104   4.136   5.958   7.343 -0.2323  1.1330  1.6013
   29CHL1  H12B 2105   4.263   6.079   7.342  1.8632 -1.4860  2.8571
   29CHL1   C11 2106   4.248   5.974   7.164  0.5822  0.2957  0.2640
   29CHL1  H11A 2107   4.185   5.889   7.130 -0.8259  1.1124  0.7139
   29CHL1  H11B 2108   4.190   6.060   7.123 -0.7934 -1.2547 -1.2172
   29CHL1    C9 2109   4.394   5.986   7.093  0.8210  0.3355 -1.2857
   29CHL1    H9 2110   4.424   6.089   7.123  0.7950  0.8615 -2.9511
   29CHL1   C10 2111   4.403   5.976   6.940 -0.1222 -0.5618 -0.3137
   29CHL1   C19 2112   4.335   5.852   6.884  0.1893 -0.3983  0.0967
   29CHL1  H19A 2113   4.382   5.769   6.942  0.2997 -0.3025  0.1444
   29CHL1  H19B 2114   4.228   5.848   6.916 -0.1282  1.1372 -0.7163
   29CHL1  H19C 2115   4.361   5.836   6.778 -0.9965  1.2794 -0.4800
   29CHL1    C1 2116   4.327   6.099   6.883 -0.2196 -0.0363  0.4148
   29CHL1   H1A 2117   4.218   6.096   6.907 -0.2716  1.3247  0.4375
   29CHL1   H1B 2118   4.358   6.192   6.934  2.0866 -0.4078 -0.1989
   29CHL1    C2 2119   4.344   6.121   6.737  0.0301 -0.1046  0.1269
   29CHL1   H2A 2120   4.302   6.216   6.697 -1.2098 -1.1180 -1.0850
   29CHL1   H2B 2121   4.293   6.050   6.669  1.1121  0.4383 -1.3006
   29CHL1   C20 2122   4.285   5.839   7.637 -0.4985 -0.0324  0.3450
   29CHL1   H20 2123   4.282   5.728   7.634  2.5648 -0.2414  1.8092
   29CHL1   C21 2124   4.146   5.888   7.601 -0.1296  0.1881 -0.1350
   29CHL1  H21A 2125   4.087   5.887   7.695 -1.4211 -0.8069 -0.9116
   29CHL1  H21B 2126   4.100   5.820   7.526 -0.7961  0.6754 -0.1738
   29CHL1  H21C 2127   4.154   5.989   7.556  1.5397 -1.0480 -2.8533
   29CHL1   C22 2128   4.323   5.883   7.779 -0.6811 -0.0893  0.2810
   29CHL1  H22A 2129   4.341   5.993   7.777  1.6812 -0.4380 -0.3742
   29CHL1  H22B 2130   4.232   5.877   7.842 -0.3110 -0.1361  0.8277
   29CHL1   C23 2131   4.436   5.814   7.854 -0.1178 -0.1895 -0.0239
   29CHL1  H23A 2132   4.401   5.708   7.854 -0.7757 -0.0753  2.9099
   29CHL1  H23B 2133   4.533   5.827   7.801  1.3004  0.9323  2.6007
   29CHL1   C24 2134   4.457   5.860   7.993 -0.0676 -0.4528 -0.0364
   29CHL1  H24A 2135   4.473   5.970   7.995 -0.3461 -0.3811 -1.3140
   29CHL1  H24B 2136   4.364   5.831   8.048  0.4943 -2.2783  0.0058
   29CHL1   C25 2137   4.573   5.794   8.065 -0.0881  0.4573 -0.0611
   29CHL1   H25 2138   4.667   5.797   8.007  0.4222  0.8622  0.7755
   29CHL1   C26 2139   4.610   5.846   8.203  0.0913  0.2380 -0.5124
   29CHL1  H26A 2140   4.680   5.779   8.257 -1.5190 -1.2036 -0.1265
   29CHL1  H26B 2141   4.646   5.952   8.206  0.8057 -0.0168  1.9496
   29CHL1  H26C 2142   4.516   5.840   8.262  0.4248 -2.2302 -0.1188
   29CHL1   C27 2143   4.529   5.646   8.086  0.8063  0.5013  0.0777
   29CHL1  H27A 2144   4.519   5.592   7.990  2.2389 -0.7162  0.5752
   29CHL1  H27B 2145   4.584   5.584   8.160 -2.5259 -2.7083  0.1478
   29CHL1  H27C 2146   4.433   5.656   8.142  0.2739 -1.2591 -0.4658
   30CHL1    C3 2147   1.706   6.029   7.316 -0.2246 -0.0013  0.8012
   30CHL1    H3 2148   1.786   5.955   7.336 -0.8063 -1.3972 -1.6672
   30CHL1    O3 2149   1.710   6.062   7.180 -0.1820 -0.1960  0.2648
   30CHL1   H3' 2150   1.624   6.101   7.165 -0.2638 -0.0576  1.0466
   30CHL1    C4 2151   1.580   5.961   7.368  0.4735  0.2510 -0.2768
   30CHL1   H4A 2152   1.489   6.015   7.336  0.6620  1.3485  0.9792
   30CHL1   H4B 2153   1.569   5.865   7.312 -1.2449 -0.8406  1.7829
   30CHL1    C5 2154   1.572   5.945   7.522  0.6745 -0.0863  0.9193
   30CHL1    C6 2155   1.544   5.832   7.576  0.2247  0.5251 -0.5575
   30CHL1    H6 2156   1.513   5.745   7.516 -0.7137  0.2901  0.2410
   30CHL1    C7 2157   1.537   5.796   7.723 -0.8955  0.5776  0.4542
   30CHL1   H7A 2158   1.433   5.760   7.737 -0.2579 -1.8702 -0.6906
   30CHL1   H7B 2159   1.618   5.731   7.763  0.5667  0.4995 -2.3464
   30CHL1    C8 2160   1.542   5.928   7.804  0.3468  0.0706  0.9457
   30CHL1    H8 2161   1.445   5.981   7.801 -0.0845 -0.7652 -0.6893
   30CHL1   C14 2162   1.567   5.889   7.950  0.3986  0.0870  0.7829
   30CHL1   H14 2163   1.670   5.847   7.954  0.8470  1.1627  0.9616
   30CHL1   C15 2164   1.475   5.781   8.025 -0.5408  0.6272  0.6301
   30CHL1  H15A 2165   1.369   5.801   7.999 -1.1422  0.0147  2.4266
   30CHL1  H15B 2166   1.506   5.678   7.999 -0.7642  0.0412  2.5475
   30CHL1   C16 2167   1.493   5.807   8.174  1.0312 -0.3047  0.3086
   30CHL1  H16A 2168   1.392   5.812   8.219  1.3531 -0.8315  1.1120
   30CHL1  H16B 2169   1.555   5.732   8.228  0.1059 -0.5851  1.0081
   30CHL1   C17 2170   1.579   5.934   8.184 -0.5905 -0.3175  0.1810
   30CHL1   H17 2171   1.684   5.897   8.190 -0.7509 -1.3988 -2.3887
   30CHL1   C13 2172   1.573   6.006   8.047  0.2589 -0.0476 -0.2909
   30CHL1   C18 2173   1.435   6.088   8.059  0.4255  0.4203  0.9773
   30CHL1  H18A 2174   1.351   6.020   8.085 -0.3410  0.1963 -1.7826
   30CHL1  H18B 2175   1.442   6.171   8.132  1.5939  2.6219 -1.4977
   30CHL1  H18C 2176   1.409   6.122   7.957  0.0672 -2.3641  0.0409
   30CHL1   C12 2177   1.688   6.092   8.000 -0.2243 -0.3704 -0.0119
   30CHL1  H12A 2178   1.704   6.169   8.078 -1.4670 -0.5983  0.4967
   30CHL1  H12B 2179   1.780   6.030   8.002 -0.8092 -1.2363  1.8161
   30CHL1   C11 2180   1.656   6.149   7.860  0.9521 -0.3919  0.1403
   30CHL1  H11A 2181   1.567   6.215   7.859 -1.1462 -2.9276  3.0809
   30CHL1  H11B 2182   1.740   6.211   7.820 -0.6665  1.9061  0.0925
   30CHL1    C9 2183   1.642   6.033   7.759  0.2766  0.2146  0.1089
   30CHL1    H9 2184   1.737   5.975   7.762  0.3755  0.3127 -0.7111
   30CHL1   C10 2185   1.614   6.066   7.609 -0.5090  0.4619  0.5162
   30CHL1   C19 2186   1.516   6.182   7.617 -0.0318  0.0540 -0.1514
   30CHL1  H19A 2187   1.431   6.160   7.684  1.2782 -1.1851  1.1672
   30CHL1  H19B 2188   1.567   6.279   7.635 -0.8454  0.6254 -0.8393
   30CHL1  H19C 2189   1.458   6.190   7.522  0.0190 -1.1989 -0.3031
   30CHL1    C1 2190   1.756   6.123   7.554  0.2898  0.3518 -0.3507
   30CHL1   H1A 2191   1.803   6.204   7.614 -1.0366  2.0592 -1.4889
   30CHL1   H1B 2192   1.824   6.035   7.559 -1.8174 -1.2964  0.6914
   30CHL1    C2 2193   1.745   6.155   7.401 -0.0224 -0.0064 -0.0446
   30CHL1   H2A 2194   1.845   6.194   7.369  0.0357 -1.1804 -1.4079
   30CHL1   H2B 2195   1.683   6.241   7.369 -0.8295 -1.2532 -2.0386
   30CHL1   C20 2196   1.556   6.003   8.317 -0.9382 -0.2656 -0.0381
   30CHL1   H20 2197   1.468   6.071   8.306  0.5407  1.8650  0.4913
   30CHL1   C21 2198   1.672   6.104   8.341 -0.2220 -0.3009  0.0724
   30CHL1  H21A 2199   1.661   6.189   8.270  0.5800 -2.3075 -2.6184
   30CHL1  H21B 2200   1.767   6.052   8.316 -0.3340 -1.0541  1.1265
   30CHL1  H21C 2201   1.690   6.147   8.442  2.8043 -0.6076 -0.2356
   30CHL1   C22 2202   1.542   5.910   8.439 -0.1675 -0.6669  0.0217
   30CHL1  H22A 2203   1.529   5.975   8.528 -2.7168 -0.2402 -0.5606
   30CHL1  H22B 2204   1.448   5.850   8.431  0.6990 -1.8834 -1.5013
   30CHL1   C23 2205   1.668   5.821   8.471  0.4269  0.2271  1.0319
   30CHL1  H23A 2206   1.701   5.771   8.378 -2.9383  2.1894 -1.4709
   30CHL1  H23B 2207   1.754   5.880   8.510 -0.3160  1.1265  1.3385
   30CHL1   C24 2208   1.633   5.711   8.572 -0.1253  0.6272  0.3542
   30CHL1  H24A 2209   1.552   5.642   8.540  1.2165 -0.4265 -0.9597
   30CHL1  H24B 2210   1.732   5.663   8.588 -0.1855  0.1327 -0.6565
   30CHL1   C25 2211   1.591   5.757   8.713 -0.6175 -0.5245 -0.0778
   30CHL1   H25 2212   1.509   5.831   8.709 -1.5338 -1.5414 -0.6045
   30CHL1   C26 2213   1.556   5.638   8.805  0.2399 -0.4233  0.5276
   30CHL1  H26A 2214   1.635   5.560   8.805  0.4912 -0.2015 -1.0249
   30CHL1  H26B 2215   1.533   5.665   8.910  0.8675  0.4216  0.4584
   30CHL1  H26C 2216   1.460   5.593   8.770 -0.6360 -0.7193  3.0701
   30CHL1   C27 2217   1.705   5.837   8.774  0.1128 -0.4096  0.5723
   30CHL1  H27A 2218   1.725   5.931   8.720 -1.6452 -1.2040 -1.6125
   30CHL1  H27B 2219   1.669   5.871   8.874 -2.0644 -0.9017  0.0095
   30CHL1  H27C 2220   1.797   5.777   8.791 -0.0208 -0.7114  0.2427
   31CHL1    C3 2221   1.358   0.639   6.763  0.4757 -1.1053 -0.4317
   31CHL1    H3 2222   1.357   0.531   6.791 -0.9849 -0.5419  1.9853
   31CHL1    O3 2223   1.348   0.665   6.629  0.5551 -0.0656  0.2400
   31CHL1   H3' 2224   1.308   0.752   6.619 -0.2346  0.2337  4.3617
   31CHL1    C4 2225   1.239   0.715   6.834 -0.0733 -0.0059 -0.3740
   31CHL1   H4A 2226   1.253   0.821   6.805 -0.4750  0.3105  0.5488
   31CHL1   H4B 2227   1.143   0.675   6.795  0.0038 -2.1307  1.4286
   31CHL1    C5 2228   1.252   0.687   6.982  0.6973  0.1160  0.0361
   31CHL1    C6 2229   1.159   0.624   7.053  0.6756  1.3194 -0.4715
   31CHL1    H6 2230   1.069   0.587   7.003  1.7648  3.8715 -4.8236
   31CHL1    C7 2231   1.156   0.600   7.201 -0.0674  0.6518 -0.1919
   31CHL1   H7A 2232   1.051   0.605   7.238 -0.3608  1.4231 -1.0751
   31CHL1   H7B 2233   1.186   0.493   7.200 -0.4804  0.5366 -0.3622
   31CHL1    C8 2234   1.257   0.689   7.273 -1.0318 -0.2658  0.1211
   31CHL1    H8 2235   1.207   0.788   7.283 -4.9233 -2.1498  1.6241
   31CHL1   C14 2236   1.291   0.652   7.416  0.9338  0.0103 -0.6809
   31CHL1   H14 2237   1.328   0.548   7.415  0.3718 -0.2455  1.1415
   31CHL1   C15 2238   1.178   0.641   7.523  0.6670  0.3805  0.4824
   31CHL1  H15A 2239   1.091   0.707   7.499  0.5816  0.7581  1.7906
   31CHL1  H15B 2240   1.137   0.538   7.531  1.3616  0.1565  1.2937
   31CHL1   C16 2241   1.238   0.673   7.655  0.3824 -0.8596  0.1183
   31CHL1  H16A 2242   1.210   0.775   7.690  1.0864 -0.6616  0.1284
   31CHL1  H16B 2243   1.213   0.592   7.727 -1.6136  0.3468  0.8733
   31CHL1   C17 2244   1.395   0.685   7.627  0.1601 -0.2469 -1.0419
   31CHL1   H17 2245   1.433   0.580   7.627  0.6748 -0.1183  1.0075
   31CHL1   C13 2246   1.402   0.739   7.487 -1.1547  0.6156  0.0927
   31CHL1   C18 2247   1.364   0.892   7.486 -0.4170  0.1106  0.0448
   31CHL1  H18A 2248   1.437   0.965   7.527 -0.4379 -0.1393  0.5336
   31CHL1  H18B 2249   1.364   0.928   7.381  1.1117 -0.4506 -0.1698
   31CHL1  H18C 2250   1.263   0.914   7.528 -0.8986 -1.1823 -0.3850
   31CHL1   C12 2251   1.529   0.706   7.419 -0.0556 -0.1053 -0.6329
   31CHL1  H12A 2252   1.619   0.747   7.469  0.8405 -0.2235 -2.1093
   31CHL1  H12B 2253   1.550   0.597   7.428  0.0315 -0.0142  0.3591
   31CHL1   C11 2254   1.517   0.740   7.271  0.4948 -0.2862  0.0870
   31CHL1  H11A 2255   1.528   0.850   7.259 -1.1197 -0.1534 -0.4026
   31CHL1  H11B 2256   1.617   0.708   7.233  1.4463  1.9789  0.5152
   31CHL1    C9 2257   1.389   0.680   7.193  0.0842 -0.5079 -0.1146
   31CHL1    H9 2258   1.407   0.571   7.186  0.4501 -0.4098 -0.7680
   31CHL1   C10 2259   1.382   0.734   7.053  0.6499 -0.4311  0.2760
   31CHL1   C19 2260   1.376   0.893   7.065 -0.5771  0.1559  0.2365
   31CHL1  H19A 2261   1.339   0.943   7.157  2.0885  3.7930 -0.4735
   31CHL1  H19B 2262   1.480   0.929   7.049 -0.7730  0.8917  0.5684
   31CHL1  H19C 2263   1.315   0.941   6.985 -1.5870  0.1103  0.9524
   31CHL1    C1 2264   1.503   0.673   6.973 -0.2329  0.1212 -0.4462
   31CHL1   H1A 2265   1.592   0.729   7.012 -0.2802 -0.5506  0.6915
   31CHL1   H1B 2266   1.516   0.566   6.998 -0.4134 -0.2414 -1.8677
   31CHL1    C2 2267   1.492   0.687   6.817  0.1309 -0.4485 -0.2440
   31CHL1   H2A 2268   1.568   0.641   6.750  0.8494  2.0371 -1.2504
   31CHL1   H2B 2269   1.499   0.792   6.782 -1.4440 -0.4488 -0.6614
   31CHL1   C20 2270   1.465   0.757   7.745  0.2514 -0.2299 -0.5657
   31CHL1   H20 2271   1.411   0.854   7.752  0.1518  0.0393 -3.5887
   31CHL1   C21 2272   1.619   0.784   7.722  0.2660  0.2892 -0.1923
   31CHL1  H21A 2273   1.676   0.689   7.708 -2.2544 -1.4833  0.7274
   31CHL1  H21B 2274   1.661   0.835   7.811 -0.6396  1.3356 -0.3442
   31CHL1  H21C 2275   1.646   0.853   7.640  1.5505 -1.6096 -1.4779
   31CHL1   C22 2276   1.447   0.682   7.881  0.2150  0.4730 -1.0530
   31CHL1  H22A 2277   1.357   0.617   7.884 -1.4628  2.6445 -1.5653
   31CHL1  H22B 2278   1.531   0.610   7.887 -0.7506 -0.5448  3.2444
   31CHL1   C23 2279   1.452   0.779   8.001 -0.5427 -0.7810 -0.4672
   31CHL1  H23A 2280   1.549   0.834   7.998 -1.6480  1.2472 -1.0239
   31CHL1  H23B 2281   1.370   0.853   8.008  0.8672  0.7900  0.1359
   31CHL1   C24 2282   1.444   0.715   8.146  0.3380  0.2342 -0.0632
   31CHL1  H24A 2283   1.355   0.650   8.159  1.4401 -2.4246 -3.8939
   31CHL1  H24B 2284   1.533   0.648   8.147 -0.2131 -0.5095 -0.0122
   31CHL1   C25 2285   1.445   0.816   8.264 -0.6397  0.1728  0.5278
   31CHL1   H25 2286   1.536   0.881   8.263  1.6377 -2.5943 -3.9718
   31CHL1   C26 2287   1.309   0.897   8.272 -0.3426 -0.4038 -0.0455
   31CHL1  H26A 2288   1.319   0.948   8.370  0.1923 -1.2857  0.3650
   31CHL1  H26B 2289   1.300   0.971   8.190 -2.3944  1.1077  1.4438
   31CHL1  H26C 2290   1.225   0.825   8.277 -0.3341 -0.4441 -0.4794
   31CHL1   C27 2291   1.451   0.735   8.398 -0.2849  0.2369  0.1328
   31CHL1  H27A 2292   1.360   0.672   8.402  0.5078 -0.9202  0.4275
   31CHL1  H27B 2293   1.437   0.801   8.486 -3.7694 -0.1402 -0.0009
   31CHL1  H27C 2294   1.544   0.674   8.397 -0.3518  0.0868 -1.8910
   32CHL1    C3 2295   3.738   4.935   6.804 -0.5503 -0.8286  0.3210
   32CHL1    H3 2296   3.633   4.967   6.821 -1.0571 -1.7972 -0.8914
   32CHL1    O3 2297   3.753   4.913   6.667  0.2267 -0.3508 -0.2416
   32CHL1   H3' 2298   3.795   4.827   6.675  1.8598  0.5712  3.5735
   32CHL1    C4 2299   3.833   5.046   6.856  0.0461  0.2779 -0.2406
   32CHL1   H4A 2300   3.936   5.007   6.841 -0.3932 -0.7003 -0.8494
   32CHL1   H4B 2301   3.822   5.143   6.802 -1.7759  0.9578  1.2470
   32CHL1    C5 2302   3.816   5.068   7.003  0.4911  0.4479  0.8374
   32CHL1    C6 2303   3.798   5.186   7.059 -0.4345 -0.3280 -0.3354
   32CHL1    H6 2304   3.792   5.279   7.001 -0.6053  0.1542  0.4385
   32CHL1    C7 2305   3.788   5.213   7.203 -0.2749  0.3473 -0.4215
   32CHL1   H7A 2306   3.858   5.296   7.226 -0.2880  0.1483  0.3583
   32CHL1   H7B 2307   3.683   5.245   7.216  0.1589  1.6430  0.0484
   32CHL1    C8 2308   3.825   5.087   7.294 -0.2073 -0.1917 -0.5395
   32CHL1    H8 2309   3.936   5.074   7.294 -0.3534 -1.7302 -1.8149
   32CHL1   C14 2310   3.778   5.110   7.432  0.1442  0.0060 -0.4905
   32CHL1   H14 2311   3.667   5.110   7.432  0.1240  1.3566 -0.4689
   32CHL1   C15 2312   3.831   5.242   7.495  0.5736  0.2990 -0.1600
   32CHL1  H15A 2313   3.940   5.256   7.474  0.0872  0.0450 -3.4048
   32CHL1  H15B 2314   3.780   5.326   7.443  0.8644 -0.1057 -1.1230
   32CHL1   C16 2315   3.797   5.221   7.642 -0.1343  0.2701  1.0063
   32CHL1  H16A 2316   3.889   5.236   7.703 -0.5991  0.3145  1.7020
   32CHL1  H16B 2317   3.723   5.292   7.684  1.3231  2.4477  0.1154
   32CHL1   C17 2318   3.760   5.070   7.661 -0.1606 -0.4499 -0.3614
   32CHL1   H17 2319   3.650   5.060   7.671 -0.0247 -0.2295  2.0912
   32CHL1   C13 2320   3.810   5.004   7.531  0.6998  0.1313  0.1315
   32CHL1   C18 2321   3.966   4.985   7.542  0.0634 -0.9380  0.5894
   32CHL1  H18A 2322   3.993   4.911   7.620 -0.8606 -1.9900 -0.0472
   32CHL1  H18B 2323   4.007   4.948   7.446 -0.7264  1.3002 -0.6811
   32CHL1  H18C 2324   4.022   5.078   7.560 -1.2096 -0.1137  0.4113
   32CHL1   C12 2325   3.738   4.876   7.482  0.6770  0.5214 -0.5517
   32CHL1  H12A 2326   3.756   4.783   7.540 -1.7165  0.9089  0.9861
   32CHL1  H12B 2327   3.627   4.885   7.493  0.6418  1.5792 -1.5486
   32CHL1   C11 2328   3.777   4.840   7.341 -0.2308  0.4276  0.8597
   32CHL1  H11A 2329   3.885   4.813   7.342 -0.1324  0.8041  0.7765
   32CHL1  H11B 2330   3.713   4.754   7.313  2.1516 -2.0799  2.5431
   32CHL1    C9 2331   3.766   4.960   7.240  0.3685 -0.1230  0.3553
   32CHL1    H9 2332   3.658   4.985   7.231  0.8414  1.5425 -1.4211
   32CHL1   C10 2333   3.823   4.933   7.094  0.3471  0.0490 -0.0291
   32CHL1   C19 2334   3.969   4.874   7.105 -0.0537 -0.2014  0.7004
   32CHL1  H19A 2335   4.042   4.939   7.159 -0.3485  0.1578  0.6683
   32CHL1  H19B 2336   3.960   4.779   7.163 -0.5343 -1.4676 -1.3503
   32CHL1  H19C 2337   3.998   4.855   7.000 -0.6502  0.7364  0.3542
   32CHL1    C1 2338   3.721   4.836   7.029 -0.1469 -0.0533  0.7074
   32CHL1   H1A 2339   3.727   4.738   7.082  1.7996 -0.2683  0.1627
   32CHL1   H1B 2340   3.623   4.888   7.037 -0.1249  0.1174 -0.0494
   32CHL1    C2 2341   3.747   4.805   6.881  0.0247  0.0088  0.2428
   32CHL1   H2A 2342   3.666   4.736   6.849  0.2782 -1.5682  2.7352
   32CHL1   H2B 2343   3.841   4.747   6.885  0.2043  0.3678  1.9362
   32CHL1   C20 2344   3.812   5.011   7.795  0.1803  0.4768 -0.3564
   32CHL1   H20 2345   3.921   5.022   7.814 -0.2336  0.6866  2.2277
   32CHL1   C21 2346   3.766   4.855   7.812 -0.3861  0.4020  0.4485
   32CHL1  H21A 2347   3.823   4.792   7.741  0.0641  1.2682  0.0290
   32CHL1  H21B 2348   3.655   4.846   7.811 -0.5441  1.7876  1.7938
   32CHL1  H21C 2349   3.791   4.814   7.912  0.6309 -0.9745 -0.3280
   32CHL1   C22 2350   3.747   5.095   7.903 -0.0928 -0.1285  0.0741
   32CHL1  H22A 2351   3.763   5.202   7.876 -0.3228 -0.4072 -1.2120
   32CHL1  H22B 2352   3.637   5.091   7.914 -0.1062  1.4074  0.8148
   32CHL1   C23 2353   3.820   5.090   8.035  0.1226 -0.0978 -0.0152
   32CHL1  H23A 2354   3.819   4.984   8.068  0.4101 -1.5510 -4.0349
   32CHL1  H23B 2355   3.927   5.119   8.027  0.5563 -0.2796  3.5698
   32CHL1   C24 2356   3.758   5.185   8.135 -0.7394 -0.5308 -0.8147
   32CHL1  H24A 2357   3.755   5.288   8.095  0.7446  0.6161  1.7945
   32CHL1  H24B 2358   3.653   5.156   8.157 -0.7293 -0.8401 -1.1642
   32CHL1   C25 2359   3.845   5.188   8.271 -0.6558 -0.6811  0.5089
   32CHL1   H25 2360   3.860   5.082   8.300 -0.1943 -1.2651 -1.6749
   32CHL1   C26 2361   3.981   5.254   8.248 -0.1760  0.1805 -0.0403
   32CHL1  H26A 2362   3.968   5.364   8.251 -2.4466 -0.0644  1.6116
   32CHL1  H26B 2363   4.040   5.225   8.338 -0.5993 -1.8609 -0.3678
   32CHL1  H26C 2364   4.031   5.221   8.155 -1.6671  1.8398 -1.4877
   32CHL1   C27 2365   3.777   5.267   8.381  0.1805  0.4160 -0.6325
   32CHL1  H27A 2366   3.674   5.233   8.402  0.7739  0.4926  2.9639
   32CHL1  H27B 2367   3.830   5.246   8.476  1.5837  2.2561 -0.9521
   32CHL1  H27C 2368   3.785   5.377   8.361  0.4670  0.7001  0.9291
   33CHL1    C3 2369   3.089   5.737   6.715  0.0727 -0.1014  0.0364
   33CHL1    H3 2370   3.015   5.657   6.732 -0.0920  0.0693  0.1230
   33CHL1    O3 2371   3.147   5.720   6.587 -0.4185  0.1300  0.0716
   33CHL1   H3' 2372   3.216   5.787   6.586  1.8235 -2.0549 -0.4984
   33CHL1    C4 2373   3.036   5.888   6.728  0.4557 -0.1352 -0.2411
   33CHL1   H4A 2374   3.111   5.954   6.680 -0.3657 -0.3512 -1.9221
   33CHL1   H4B 2375   2.947   5.895   6.662  0.0588 -0.1251  0.2957
   33CHL1    C5 2376   3.018   5.938   6.871 -0.4818 -0.3261 -0.8344
   33CHL1    C6 2377   2.902   6.003   6.910  0.0866  0.0772  0.6917
   33CHL1    H6 2378   2.820   6.016   6.838 -0.2415 -0.8793  0.8677
   33CHL1    C7 2379   2.888   6.062   7.048 -0.1042 -0.8153  0.3141
   33CHL1   H7A 2380   2.845   6.164   7.049  0.1574 -0.7022  0.3771
   33CHL1   H7B 2381   2.820   5.994   7.103  1.4900 -1.5850  1.4250
   33CHL1    C8 2382   3.010   6.072   7.135  0.0454  0.2588 -0.4765
   33CHL1    H8 2383   3.066   6.165   7.114  0.1971  0.7292  1.8031
   33CHL1   C14 2384   2.973   6.080   7.289  0.3261  0.9542 -0.3921
   33CHL1   H14 2385   2.932   5.978   7.308  0.3702  1.1286  0.6644
   33CHL1   C15 2386   2.874   6.179   7.341 -0.3423 -0.3189  0.1144
   33CHL1  H15A 2387   2.903   6.275   7.291  0.7663 -1.5926 -1.8427
   33CHL1  H15B 2388   2.769   6.160   7.310 -0.0723  1.9012 -2.5819
   33CHL1   C16 2389   2.899   6.172   7.495  0.4739 -0.8313  0.4571
   33CHL1  H16A 2390   2.916   6.276   7.531 -2.7387 -0.3761  0.9072
   33CHL1  H16B 2391   2.807   6.142   7.550  0.8711 -0.2649  1.4688
   33CHL1   C17 2392   3.021   6.078   7.515  0.4466 -0.1926 -0.5229
   33CHL1   H17 2393   2.974   5.977   7.514 -1.1488  0.4712 -3.0672
   33CHL1   C13 2394   3.092   6.092   7.382  0.6052  0.9419 -0.3079
   33CHL1   C18 2395   3.169   6.229   7.367 -0.4145  0.3575 -0.8613
   33CHL1  H18A 2396   3.110   6.319   7.394  0.7416  0.6356  0.9735
   33CHL1  H18B 2397   3.263   6.236   7.426 -0.1862  0.5402 -1.2430
   33CHL1  H18C 2398   3.208   6.241   7.264  0.6753  3.2337 -0.1958
   33CHL1   C12 2399   3.188   5.978   7.357 -0.3208 -0.3268 -0.3876
   33CHL1  H12A 2400   3.285   5.984   7.411 -0.9301  2.3330  0.5701
   33CHL1  H12B 2401   3.135   5.883   7.378 -1.2774 -0.2693 -2.3684
   33CHL1   C11 2402   3.225   5.972   7.207 -0.1700  0.5651  0.7049
   33CHL1  H11A 2403   3.289   6.060   7.187  1.4917  0.0293  3.1994
   33CHL1  H11B 2404   3.290   5.884   7.190  0.4394  1.0346  0.5692
   33CHL1    C9 2405   3.103   5.951   7.113 -0.0306 -0.1656 -0.4204
   33CHL1    H9 2406   3.049   5.866   7.160 -0.0864 -0.5262 -1.1216
   33CHL1   C10 2407   3.132   5.913   6.971  0.9899 -0.1302  0.3801
   33CHL1   C19 2408   3.242   6.010   6.919  0.4787  0.5019 -0.7698
   33CHL1  H19A 2409   3.337   5.979   6.968  0.8301  1.0173 -1.1167
   33CHL1  H19B 2410   3.272   5.985   6.815 -0.9920  0.2516 -1.1521
   33CHL1  H19C 2411   3.238   6.120   6.936  1.0467  0.2060  1.6081
   33CHL1    C1 2412   3.178   5.763   6.955  0.5529 -0.5903  0.6719
   33CHL1   H1A 2413   3.261   5.758   7.028  1.4654 -1.7334 -0.4090
   33CHL1   H1B 2414   3.098   5.693   6.987  1.8241 -2.5519 -0.2886
   33CHL1    C2 2415   3.211   5.726   6.808 -0.2577 -0.2299 -0.1403
   33CHL1   H2A 2416   3.242   5.619   6.813  2.7722  0.4691 -1.5257
   33CHL1   H2B 2417   3.288   5.796   6.770  0.1887 -0.8807 -0.4532
   33CHL1   C20 2418   3.088   6.095   7.652  0.1049  0.1104 -0.4676
   33CHL1   H20 2419   3.190   6.053   7.658  0.2317  0.2081 -1.6844
   33CHL1   C21 2420   2.998   6.014   7.751 -0.0061  0.1447  0.2706
   33CHL1  H21A 2421   3.027   6.006   7.858  1.3642  0.5633 -0.0481
   33CHL1  H21B 2422   3.003   5.907   7.724  1.7601 -0.2045  1.8064
   33CHL1  H21C 2423   2.891   6.045   7.748  0.1263  0.6690  0.8602
   33CHL1   C22 2424   3.116   6.236   7.703 -0.1142  0.3338  0.1923
   33CHL1  H22A 2425   3.167   6.291   7.621 -1.5632 -0.9235 -1.6342
   33CHL1  H22B 2426   3.025   6.293   7.731  0.5217  1.0006  0.9520
   33CHL1   C23 2427   3.205   6.236   7.833  0.6034  0.0137 -0.3731
   33CHL1  H23A 2428   3.172   6.155   7.902 -0.8685  0.0308 -1.0073
   33CHL1  H23B 2429   3.310   6.212   7.805  0.7286  0.7563 -0.5578
   33CHL1   C24 2430   3.204   6.376   7.904  0.3734  0.3189  0.3054
   33CHL1  H24A 2431   3.265   6.440   7.837 -2.1231  1.9262 -0.5927
   33CHL1  H24B 2432   3.098   6.408   7.901  0.0679 -0.6429 -2.9875
   33CHL1   C25 2433   3.275   6.372   8.044 -0.7189 -0.4996  0.3526
   33CHL1   H25 2434   3.379   6.335   8.033 -0.0915  1.3022 -0.0372
   33CHL1   C26 2435   3.281   6.509   8.110  0.0892 -0.2643  0.0618
   33CHL1  H26A 2436   3.354   6.571   8.054  2.1573 -0.3630  2.4511
   33CHL1  H26B 2437   3.179   6.552   8.106 -0.0432 -0.6129 -0.3016
   33CHL1  H26C 2438   3.312   6.494   8.216  0.1677 -2.0737 -0.1814
   33CHL1   C27 2439   3.190   6.288   8.139  0.2191  0.0666  0.1654
   33CHL1  H27A 2440   3.084   6.294   8.106  0.1705  2.6681  0.5817
   33CHL1  H27B 2441   3.219   6.181   8.135  0.0137  0.0432 -1.3471
   33CHL1  H27C 2442   3.188   6.320   8.245  1.8100  1.2487 -0.1266
   34CHL1    C3 2443   2.734   3.943   7.054 -0.0106 -0.0884 -0.0870
   34CHL1    H3 2444   2.775   4.046   7.052 -1.3301  0.5646 -4.4496
   34CHL1    O3 2445   2.727   3.906   6.922 -0.2555  0.1406  0.0971
   34CHL1   H3' 2446   2.664   3.964   6.878  0.6577 -0.1378 -1.7009
   34CHL1    C4 2447   2.815   3.855   7.135  0.8392 -0.0606  0.1103
   34CHL1   H4A 2448   2.797   3.751   7.101  0.4878 -0.0023  0.1192
   34CHL1   H4B 2449   2.923   3.874   7.116  0.3534  1.7770 -1.1047
   34CHL1    C5 2450   2.794   3.864   7.288  0.1317  0.3293 -0.7615
   34CHL1    C6 2451   2.897   3.887   7.375 -0.1650  1.0583  0.9140
   34CHL1    H6 2452   2.997   3.910   7.337 -1.0172  3.2608 -0.2294
   34CHL1    C7 2453   2.880   3.888   7.525  0.3351 -0.0294 -0.1028
   34CHL1   H7A 2454   2.952   3.809   7.557  0.3193 -0.7616 -1.7899
   34CHL1   H7B 2455   2.918   3.978   7.578  1.8847 -0.7129  0.0112
   34CHL1    C8 2456   2.748   3.843   7.575 -0.3675 -0.4523 -0.0860
   34CHL1    H8 2457   2.750   3.732   7.568 -0.6036 -0.5973  1.6091
   34CHL1   C14 2458   2.735   3.890   7.727  0.0296  0.0267 -0.2133
   34CHL1   H14 2459   2.739   4.001   7.730  0.3724 -0.0012  0.4652
   34CHL1   C15 2460   2.838   3.841   7.835  0.0590  0.0076 -0.2747
   34CHL1  H15A 2461   2.868   3.736   7.819 -1.2080 -0.0580 -2.6174
   34CHL1  H15B 2462   2.923   3.913   7.831  0.2496 -0.2047 -0.0666
   34CHL1   C16 2463   2.760   3.861   7.966 -0.6863 -0.0980 -0.2779
   34CHL1  H16A 2464   2.755   3.770   8.029  2.1744 -0.6937 -0.8198
   34CHL1  H16B 2465   2.808   3.940   8.029  0.2548  0.5232 -1.7354
   34CHL1   C17 2466   2.614   3.903   7.930 -0.1497 -0.0520  0.4474
   34CHL1   H17 2467   2.624   4.014   7.933 -1.0791  0.0844 -0.9897
   34CHL1   C13 2468   2.602   3.850   7.782  0.3859  0.5421  0.3546
   34CHL1   C18 2469   2.583   3.691   7.785 -0.4275  0.0719 -0.1958
   34CHL1  H18A 2470   2.569   3.667   7.678 -1.3348  1.8608 -0.5219
   34CHL1  H18B 2471   2.664   3.630   7.829 -0.6284 -1.0047 -1.2652
   34CHL1  H18C 2472   2.488   3.666   7.837 -0.8954 -0.2400 -1.1808
   34CHL1   C12 2473   2.490   3.918   7.708 -0.1740 -1.0371  1.2682
   34CHL1  H12A 2474   2.394   3.875   7.742 -1.3222  0.9488  0.7397
   34CHL1  H12B 2475   2.495   4.027   7.730  0.6964 -0.5990 -0.8137
   34CHL1   C11 2476   2.501   3.878   7.552  0.8797 -0.3605  0.3582
   34CHL1  H11A 2477   2.465   3.773   7.549  0.8925 -0.3674  0.4271
   34CHL1  H11B 2478   2.430   3.939   7.492  1.7007  0.5616  0.2939
   34CHL1    C9 2479   2.636   3.902   7.492 -0.1370 -0.4707  0.0501
   34CHL1    H9 2480   2.650   4.012   7.480 -0.6622 -0.3335  0.6428
   34CHL1   C10 2481   2.652   3.860   7.340 -0.7006  0.6827 -0.0815
   34CHL1   C19 2482   2.600   3.712   7.341  0.1185 -0.5778  0.0474
   34CHL1  H19A 2483   2.621   3.659   7.245  0.7508 -0.4775  0.1230
   34CHL1  H19B 2484   2.644   3.648   7.420 -1.0532 -1.3796  0.0636
   34CHL1  H19C 2485   2.490   3.721   7.346  0.0663  1.7322 -2.6154
   34CHL1    C1 2486   2.565   3.950   7.249  0.2594  0.3315  0.0083
   34CHL1   H1A 2487   2.457   3.941   7.273  0.5518 -1.3169  0.8952
   34CHL1   H1B 2488   2.590   4.056   7.268 -0.8569  0.8707 -1.4438
   34CHL1    C2 2489   2.590   3.935   7.099  0.1858  0.3138 -0.1465
   34CHL1   H2A 2490   2.531   4.012   7.046  2.0435  3.0002  1.3986
   34CHL1   H2B 2491   2.544   3.836   7.078 -1.4702  1.4198 -2.0398
   34CHL1   C20 2492   2.497   3.867   8.025  0.7185  0.5778 -0.4007
   34CHL1   H20 2493   2.469   3.761   8.004 -1.6605  1.5615 -2.6814
   34CHL1   C21 2494   2.366   3.954   8.005  0.0935  0.4176 -0.3242
   34CHL1  H21A 2495   2.311   3.930   7.911  0.7586  0.0553 -0.6296
   34CHL1  H21B 2496   2.388   4.063   7.997 -1.0450  0.7173  0.4269
   34CHL1  H21C 2497   2.289   3.927   8.080 -1.7485  1.0848 -1.9000
   34CHL1   C22 2498   2.534   3.872   8.175 -0.6644  0.0844  0.6548
   34CHL1  H22A 2499   2.440   3.843   8.228  1.1016 -1.2864  3.2110
   34CHL1  H22B 2500   2.601   3.787   8.199  0.7458  1.0667  0.3297
   34CHL1   C23 2501   2.587   4.010   8.222  0.1081 -0.8440 -0.3728
   34CHL1  H23A 2502   2.686   4.035   8.178  1.6950 -0.8341  2.8786
   34CHL1  H23B 2503   2.508   4.076   8.181 -0.5574 -1.9683 -0.9552
   34CHL1   C24 2504   2.609   4.024   8.377  0.1847 -0.1442  0.4619
   34CHL1  H24A 2505   2.515   3.998   8.429  0.3135  0.5211  1.0383
   34CHL1  H24B 2506   2.681   3.947   8.410  0.8222 -0.6586 -1.9094
   34CHL1   C25 2507   2.651   4.173   8.419  0.3104  0.3475 -0.4861
   34CHL1   H25 2508   2.574   4.245   8.385  2.1930  2.3060 -0.8058
   34CHL1   C26 2509   2.679   4.194   8.572  0.1363 -0.6334 -1.1661
   34CHL1  H26A 2510   2.599   4.164   8.642  0.5371  0.0693 -0.3904
   34CHL1  H26B 2511   2.766   4.129   8.599 -2.3968 -2.5482  3.5469
   34CHL1  H26C 2512   2.700   4.302   8.589 -1.5553 -0.2312 -1.4465
   34CHL1   C27 2513   2.773   4.221   8.346 -0.0906 -0.0213  0.7041
   34CHL1  H27A 2514   2.804   4.324   8.375 -2.8318  0.7581  1.2539
   34CHL1  H27B 2515   2.860   4.153   8.359  0.6892 -0.0897 -3.6397
   34CHL1  H27C 2516   2.749   4.228   8.238 -0.6406 -1.1522  0.7322
   35CHL1    C3 2517   0.690   5.039   7.256 -0.1472 -0.3896  0.3651
   35CHL1    H3 2518   0.795   5.006   7.276 -0.1970 -0.5695  0.3329
   35CHL1    O3 2519   0.673   5.049   7.115 -0.7813 -0.1139 -0.7697
   35CHL1   H3' 2520   0.670   4.956   7.091  0.4440 -1.2692  2.9033
   35CHL1    C4 2521   0.602   4.930   7.309 -0.2323 -0.3233 -0.1404
   35CHL1   H4A 2522   0.499   4.953   7.275  0.1424  0.6884 -0.6254
   35CHL1   H4B 2523   0.631   4.833   7.262 -0.3535  0.0743 -1.0538
   35CHL1    C5 2524   0.616   4.915   7.459 -0.3647 -0.6203 -0.1779
   35CHL1    C6 2525   0.645   4.792   7.515  0.2355 -0.5688 -0.4081
   35CHL1    H6 2526   0.661   4.705   7.449 -1.7561 -2.3105  1.2522
   35CHL1    C7 2527   0.648   4.764   7.664 -0.0296 -0.0984  0.4055
   35CHL1   H7A 2528   0.584   4.677   7.690 -0.7181  0.2886  0.0340
   35CHL1   H7B 2529   0.749   4.735   7.701  0.2148  0.8126  0.4753
   35CHL1    C8 2530   0.595   4.887   7.740  0.5697  0.2195 -0.5238
   35CHL1    H8 2531   0.487   4.869   7.718  0.5400 -2.8735  1.5000
   35CHL1   C14 2532   0.637   4.877   7.882  0.2992 -0.5232  0.1066
   35CHL1   H14 2533   0.747   4.891   7.880  0.0555  1.8833  0.2659
   35CHL1   C15 2534   0.607   4.751   7.956 -0.7048 -0.1991  0.6165
   35CHL1  H15A 2535   0.514   4.696   7.929  1.0808 -2.2820 -1.8965
   35CHL1  H15B 2536   0.701   4.692   7.944 -0.7592 -0.0655 -0.5920
   35CHL1   C16 2537   0.600   4.785   8.100 -0.5263  0.5904  0.8532
   35CHL1  H16A 2538   0.504   4.745   8.140  0.5004 -2.0695  0.8643
   35CHL1  H16B 2539   0.692   4.742   8.146  0.5078  0.8326 -0.8841
   35CHL1   C17 2540   0.612   4.941   8.107 -0.2266 -0.3362 -0.6160
   35CHL1   H17 2541   0.721   4.958   8.119 -0.4527  1.3790 -0.6873
   35CHL1   C13 2542   0.578   4.991   7.967  0.0072 -0.3038  0.5676
   35CHL1   C18 2543   0.423   4.981   7.947 -0.0049  0.0047 -0.7844
   35CHL1  H18A 2544   0.404   5.009   7.841  1.4625 -1.3067 -1.4430
   35CHL1  H18B 2545   0.391   4.875   7.958 -1.0571  0.0759 -2.7099
   35CHL1  H18C 2546   0.365   5.040   8.020  0.5337  0.6912 -0.9073
   35CHL1   C12 2547   0.640   5.121   7.923 -0.4594 -0.3216  0.5550
   35CHL1  H12A 2548   0.606   5.218   7.967  1.9024  1.0136 -0.3731
   35CHL1  H12B 2549   0.751   5.122   7.935 -0.2814 -1.6298 -0.8036
   35CHL1   C11 2550   0.633   5.141   7.772  0.1280 -0.8919  0.0286
   35CHL1  H11A 2551   0.528   5.173   7.759 -0.6608 -2.6026  1.6741
   35CHL1  H11B 2552   0.691   5.230   7.738 -2.6429  0.8552 -0.4003
   35CHL1    C9 2553   0.647   5.020   7.688 -0.2863  0.7633  0.7308
   35CHL1    H9 2554   0.757   5.004   7.684 -0.1775  0.8062  2.6874
   35CHL1   C10 2555   0.596   5.044   7.539  0.0406 -0.0522  0.2645
   35CHL1   C19 2556   0.444   5.073   7.533 -0.2469  0.1828 -0.3875
   35CHL1  H19A 2557   0.415   5.107   7.431 -2.2348  1.4790  0.5493
   35CHL1  H19B 2558   0.381   4.982   7.544 -0.6437 -0.2871 -4.8355
   35CHL1  H19C 2559   0.418   5.153   7.606  0.2188  0.4075 -0.4692
   35CHL1    C1 2560   0.681   5.161   7.475  0.0570  0.1161  0.4372
   35CHL1   H1A 2561   0.648   5.257   7.521  1.6123  1.3122 -0.8739
   35CHL1   H1B 2562   0.787   5.148   7.504 -0.1279 -1.9944  0.3149
   35CHL1    C2 2563   0.664   5.176   7.327  0.8576 -0.0527  0.2665
   35CHL1   H2A 2564   0.750   5.239   7.297  0.4525  0.5117  0.2924
   35CHL1   H2B 2565   0.563   5.216   7.304  0.1072 -1.6005  0.6846
   35CHL1   C20 2566   0.540   5.003   8.240  0.2647  0.3591  0.2696
   35CHL1   H20 2567   0.432   4.982   8.224  0.0864  1.4796 -0.1073
   35CHL1   C21 2568   0.574   5.150   8.241 -0.0107  0.4592 -0.2370
   35CHL1  H21A 2569   0.683   5.165   8.230  0.0134  3.0519  2.3549
   35CHL1  H21B 2570   0.526   5.185   8.335 -2.0929 -1.7418 -0.3771
   35CHL1  H21C 2571   0.517   5.209   8.167 -1.1308  0.5263  0.6503
   35CHL1   C22 2572   0.575   4.931   8.364 -0.2146 -0.4008 -0.6473
   35CHL1  H22A 2573   0.568   4.820   8.366  0.3197 -0.4298  0.1498
   35CHL1  H22B 2574   0.678   4.949   8.402 -0.6794 -0.0331  0.4913
   35CHL1   C23 2575   0.482   4.971   8.481 -0.1943 -0.8183  0.2712
   35CHL1  H23A 2576   0.508   5.073   8.517 -0.5334 -0.2582 -0.9829
   35CHL1  H23B 2577   0.376   4.968   8.448 -0.1941  0.6899  0.0492
   35CHL1   C24 2578   0.497   4.881   8.603 -0.6735 -0.8209 -0.4769
   35CHL1  H24A 2579   0.520   4.775   8.581  0.5650 -0.4801 -0.8840
   35CHL1  H24B 2580   0.591   4.911   8.655 -0.1389 -1.7898 -0.8697
   35CHL1   C25 2581   0.379   4.904   8.692 -0.2486  0.2847 -0.1708
   35CHL1   H25 2582   0.342   5.008   8.707  0.8919  0.7122 -0.2880
   35CHL1   C26 2583   0.260   4.829   8.634  0.4749  0.0388 -0.3097
   35CHL1  H26A 2584   0.228   4.878   8.539  0.8173 -0.6926 -0.8105
   35CHL1  H26B 2585   0.301   4.729   8.608  0.6133 -0.3238  1.1804
   35CHL1  H26C 2586   0.176   4.821   8.707  1.4040 -2.8137  0.5641
   35CHL1   C27 2587   0.414   4.843   8.835 -0.1379  0.1531 -0.5799
   35CHL1  H27A 2588   0.461   4.747   8.805  0.2291  0.3262 -0.5543
   35CHL1  H27B 2589   0.318   4.824   8.889 -0.4771  1.0880 -0.8347
   35CHL1  H27C 2590   0.481   4.904   8.898 -0.6767 -0.5395  0.7019
   36CHL1    C3 2591   1.196   4.608   7.163 -0.3552 -0.3472  0.4591
   36CHL1    H3 2592   1.292   4.661   7.148 -0.7690 -0.0620 -1.4661
   36CHL1    O3 2593   1.154   4.529   7.056  0.7435 -0.0232 -0.5750
   36CHL1   H3' 2594   1.187   4.440   7.068  1.6792  0.4262  0.3091
   36CHL1    C4 2595   1.213   4.522   7.292 -0.3369  1.1655  0.5849
   36CHL1   H4A 2596   1.118   4.465   7.293 -0.0742  0.7084  0.0014
   36CHL1   H4B 2597   1.295   4.449   7.273  0.6251  2.7375 -1.8033
   36CHL1    C5 2598   1.223   4.593   7.425 -1.0339  0.0759 -0.2436
   36CHL1    C6 2599   1.326   4.569   7.508 -0.3665 -0.4089  0.5152
   36CHL1    H6 2600   1.400   4.495   7.472  0.5061  0.8691 -0.4148
   36CHL1    C7 2601   1.354   4.641   7.635 -0.2176 -0.3229  0.4683
   36CHL1   H7A 2602   1.388   4.579   7.720 -0.0762 -1.6731 -0.5422
   36CHL1   H7B 2603   1.434   4.714   7.611  0.6469 -2.1295 -2.7577
   36CHL1    C8 2604   1.237   4.733   7.688 -0.0968  1.2837  0.1946
   36CHL1    H8 2605   1.165   4.672   7.748 -0.4250  1.0814 -0.3937
   36CHL1   C14 2606   1.291   4.837   7.779  0.5653 -0.3298  0.3922
   36CHL1   H14 2607   1.351   4.903   7.712  0.0568  0.9545  1.1805
   36CHL1   C15 2608   1.368   4.793   7.900 -0.3561 -0.1991  0.3611
   36CHL1  H15A 2609   1.313   4.703   7.937 -0.7957  0.4582  1.3474
   36CHL1  H15B 2610   1.475   4.775   7.876 -0.2024 -0.1315  0.9686
   36CHL1   C16 2611   1.352   4.910   7.994  0.8746 -0.0280 -0.5050
   36CHL1  H16A 2612   1.314   4.876   8.093 -2.4048  0.4481 -1.4913
   36CHL1  H16B 2613   1.444   4.972   8.008  0.2439  1.2860 -1.9334
   36CHL1   C17 2614   1.261   5.016   7.938 -0.3361  0.2293 -0.0964
   36CHL1   H17 2615   1.329   5.074   7.873 -0.6508  2.1303  1.1725
   36CHL1   C13 2616   1.175   4.927   7.845 -0.1526  0.9886 -0.3329
   36CHL1   C18 2617   1.071   4.863   7.933 -0.3430  0.4713 -0.1856
   36CHL1  H18A 2618   1.114   4.802   8.015  0.6924  0.2787 -0.8535
   36CHL1  H18B 2619   0.998   4.938   7.971 -0.8575 -0.4558  0.6903
   36CHL1  H18C 2620   1.026   4.785   7.868  1.5211 -1.1025  0.3015
   36CHL1   C12 2621   1.108   5.005   7.729  0.4553 -0.1403  0.4807
   36CHL1  H12A 2622   1.027   5.062   7.779  0.1890 -2.0365  2.3530
   36CHL1  H12B 2623   1.192   5.071   7.699  0.8592 -0.9100 -0.0885
   36CHL1   C11 2624   1.060   4.906   7.623 -0.0989  0.3367 -0.8037
   36CHL1  H11A 2625   0.988   4.838   7.674  0.1690 -0.7388 -1.8148
   36CHL1  H11B 2626   1.012   4.973   7.548  1.3087  1.6642 -0.5726
   36CHL1    C9 2627   1.159   4.803   7.567  0.5757  0.4574 -0.3881
   36CHL1    H9 2628   1.237   4.870   7.525  2.7399 -0.0113  2.5303
   36CHL1   C10 2629   1.117   4.704   7.450  0.1099  0.0149 -0.3949
   36CHL1   C19 2630   0.985   4.640   7.497 -0.3575  0.2362 -0.0226
   36CHL1  H19A 2631   0.935   4.583   7.415 -1.5889  0.0452  0.8357
   36CHL1  H19B 2632   1.006   4.564   7.575  0.8622 -1.5375 -1.9597
   36CHL1  H19C 2633   0.912   4.711   7.541 -1.7969 -2.2776  1.8983
   36CHL1    C1 2634   1.087   4.790   7.321  0.6136 -0.2034  0.3820
   36CHL1   H1A 2635   0.995   4.850   7.331  0.5429  0.0570 -1.4518
   36CHL1   H1B 2636   1.172   4.862   7.318  1.1385 -0.8650 -1.0662
   36CHL1    C2 2637   1.081   4.708   7.187 -0.5748 -0.3257  0.3412
   36CHL1   H2A 2638   1.071   4.781   7.103  0.9295  0.4370  0.7974
   36CHL1   H2B 2639   0.988   4.648   7.195 -0.9926  0.2623 -0.0137
   36CHL1   C20 2640   1.201   5.111   8.036 -0.1989 -0.5771  0.0842
   36CHL1   H20 2641   1.131   5.069   8.112  2.2981  0.5172  3.2306
   36CHL1   C21 2642   1.118   5.220   7.968 -0.7176  0.3207  0.1037
   36CHL1  H21A 2643   1.096   5.304   8.038 -2.1887 -0.8776  1.1233
   36CHL1  H21B 2644   1.020   5.178   7.938 -0.0921 -0.4532 -0.9491
   36CHL1  H21C 2645   1.165   5.262   7.876 -1.0960  1.3784  0.3794
   36CHL1   C22 2646   1.308   5.164   8.135  0.1320  0.0306  0.1798
   36CHL1  H22A 2647   1.349   5.088   8.204 -1.3292 -0.0915  0.9539
   36CHL1  H22B 2648   1.388   5.213   8.074  1.3734 -1.5030  0.5025
   36CHL1   C23 2649   1.253   5.278   8.227 -0.0165 -0.5794 -0.1802
   36CHL1  H23A 2650   1.241   5.366   8.161  1.9539  0.7412  1.1050
   36CHL1  H23B 2651   1.156   5.246   8.272  0.1852 -0.5916  0.2505
   36CHL1   C24 2652   1.348   5.310   8.344  0.0087 -0.3041  0.1838
   36CHL1  H24A 2653   1.325   5.409   8.389 -0.6158  0.4458 -1.6974
   36CHL1  H24B 2654   1.345   5.243   8.432 -2.6378 -2.2692 -1.2490
   36CHL1   C25 2655   1.497   5.344   8.308  0.8499  0.6374  0.1819
   36CHL1   H25 2656   1.534   5.266   8.238 -0.0173 -0.7023  1.1540
   36CHL1   C26 2657   1.500   5.478   8.228 -0.2905 -0.0564 -0.1476
   36CHL1  H26A 2658   1.459   5.556   8.294 -2.1962  0.6262 -2.0233
   36CHL1  H26B 2659   1.607   5.498   8.207  0.1378 -1.6507  0.3187
   36CHL1  H26C 2660   1.441   5.465   8.134 -0.8708 -0.5458  0.2748
   36CHL1   C27 2661   1.598   5.354   8.424  0.2622 -0.0781  0.0923
   36CHL1  H27A 2662   1.606   5.270   8.496 -0.3277 -1.4542 -1.4153
   36CHL1  H27B 2663   1.701   5.373   8.386  0.4696  0.0677  0.6985
   36CHL1  H27C 2664   1.563   5.441   8.484 -0.2189  0.2679 -0.6714
   37CHL1    C3 2665   4.687   0.564   6.945  0.8689  0.5340 -0.5048
   37CHL1    H3 2666   4.753   0.654   6.949  1.1275  0.3768 -1.0710
   37CHL1    O3 2667   4.701   0.520   6.812  0.5623  0.3205 -0.1077
   37CHL1   H3' 2668   4.613   0.531   6.776  0.9259  0.8438 -0.8732
   37CHL1    C4 2669   4.741   0.449   7.039  0.2602  0.0527  0.4830
   37CHL1   H4A 2670   4.685   0.357   7.015  3.4626 -2.1811  0.9507
   37CHL1   H4B 2671   4.846   0.434   7.007 -0.1513 -0.4730 -0.6688
   37CHL1    C5 2672   4.726   0.482   7.182  0.3477 -0.5709 -0.1811
   37CHL1    C6 2673   4.833   0.489   7.267  0.5276 -0.2953 -0.8842
   37CHL1    H6 2674   4.932   0.458   7.231  0.5081 -1.0906 -0.2791
   37CHL1    C7 2675   4.827   0.537   7.412 -0.3997 -0.2931 -0.3892
   37CHL1   H7A 2676   4.899   0.475   7.469  3.8266 -0.6287 -5.3685
   37CHL1   H7B 2677   4.859   0.643   7.420 -2.2728  0.3989 -1.2660
   37CHL1    C8 2678   4.687   0.520   7.472 -0.1596  0.1343  0.2242
   37CHL1    H8 2679   4.664   0.411   7.472 -2.6952  0.6096  0.0211
   37CHL1   C14 2680   4.681   0.581   7.608 -0.8657 -0.5503  0.4307
   37CHL1   H14 2681   4.701   0.689   7.588 -1.2577 -0.4329  0.6659
   37CHL1   C15 2682   4.786   0.543   7.716  0.0632  0.2151 -0.2046
   37CHL1  H15A 2683   4.791   0.432   7.725  1.5234  0.3275  0.7411
   37CHL1  H15B 2684   4.892   0.574   7.704  1.3603 -2.3657  2.8618
   37CHL1   C16 2685   4.718   0.599   7.844  0.2575 -0.0837  0.7088
   37CHL1  H16A 2686   4.717   0.513   7.914  3.6068  0.0663  1.0771
   37CHL1  H16B 2687   4.766   0.689   7.887 -0.8963  0.1493  1.5514
   37CHL1   C17 2688   4.578   0.651   7.806  0.3204  0.6666 -0.4799
   37CHL1   H17 2689   4.583   0.759   7.780 -0.2382  1.2477  1.6514
   37CHL1   C13 2690   4.546   0.577   7.671 -0.5641  0.4894 -0.8564
   37CHL1   C18 2691   4.500   0.426   7.696 -0.4118 -0.1752 -0.0964
   37CHL1  H18A 2692   4.403   0.430   7.750  0.5107  1.1798  1.5374
   37CHL1  H18B 2693   4.481   0.368   7.603 -2.5721 -1.8869  1.3106
   37CHL1  H18C 2694   4.569   0.361   7.755 -2.0812 -3.0804 -1.1463
   37CHL1   C12 2695   4.440   0.636   7.590  0.3723 -0.0005  0.6325
   37CHL1  H12A 2696   4.341   0.634   7.639  1.3044  0.2487  2.6137
   37CHL1  H12B 2697   4.471   0.742   7.582  0.1595 -0.0211 -0.8111
   37CHL1   C11 2698   4.437   0.582   7.443  0.8676  0.7685  0.1240
   37CHL1  H11A 2699   4.378   0.488   7.443  0.9008  0.7408 -0.5857
   37CHL1  H11B 2700   4.383   0.657   7.381 -2.3586 -2.5466 -1.4443
   37CHL1    C9 2701   4.577   0.576   7.375  0.6943 -0.2292  0.3712
   37CHL1    H9 2702   4.618   0.680   7.376  1.4816 -0.3224  5.3351
   37CHL1   C10 2703   4.582   0.524   7.230  0.0059  0.2615 -0.6723
   37CHL1   C19 2704   4.502   0.391   7.217 -0.0118 -0.4261  0.5146
   37CHL1  H19A 2705   4.509   0.350   7.114  3.3022 -0.6572  0.7110
   37CHL1  H19B 2706   4.534   0.312   7.288  0.0518 -1.3572 -0.5195
   37CHL1  H19C 2707   4.395   0.407   7.241  0.0834  0.3902  0.4266
   37CHL1    C1 2708   4.525   0.634   7.132  0.3123  0.0653 -0.0008
   37CHL1   H1A 2709   4.418   0.647   7.159  0.2519 -0.1228 -0.1458
   37CHL1   H1B 2710   4.581   0.729   7.143  2.0847 -0.8127 -0.9597
   37CHL1    C2 2711   4.540   0.594   6.983 -0.3205  0.2044 -0.2371
   37CHL1   H2A 2712   4.500   0.669   6.910 -0.2028  0.1097 -0.3985
   37CHL1   H2B 2713   4.473   0.506   6.973  1.9260 -1.6928  0.6058
   37CHL1   C20 2714   4.475   0.655   7.919 -0.2602 -0.9064  0.2152
   37CHL1   H20 2715   4.370   0.672   7.885  0.5125 -0.4329 -2.0856
   37CHL1   C21 2716   4.521   0.784   8.002 -0.3147  0.3256  0.2417
   37CHL1  H21A 2717   4.441   0.818   8.071  0.3747  1.5767  0.4380
   37CHL1  H21B 2718   4.528   0.871   7.933 -0.8815 -2.3751 -3.5843
   37CHL1  H21C 2719   4.617   0.761   8.053 -0.3059  1.3637  0.7067
   37CHL1   C22 2720   4.473   0.544   8.021 -0.1729 -0.7416  0.1099
   37CHL1  H22A 2721   4.442   0.456   7.961  0.7905 -0.7022 -0.4563
   37CHL1  H22B 2722   4.572   0.520   8.064 -0.7011 -1.5251  0.9158
   37CHL1   C23 2723   4.369   0.566   8.140  0.0255 -1.0351  0.5397
   37CHL1  H23A 2724   4.409   0.637   8.216 -0.8055  0.3774 -0.2869
   37CHL1  H23B 2725   4.275   0.608   8.098  0.8197  0.1122 -0.1431
   37CHL1   C24 2726   4.351   0.434   8.216 -0.5964  0.2661  0.4186
   37CHL1  H24A 2727   4.371   0.350   8.145  0.6424  0.4005  0.5847
   37CHL1  H24B 2728   4.435   0.441   8.288 -0.0050  0.9224 -0.3173
   37CHL1   C25 2729   4.216   0.432   8.293  0.4372 -0.3331 -0.2662
   37CHL1   H25 2730   4.140   0.438   8.212  1.9736  0.1023 -1.7184
   37CHL1   C26 2731   4.193   0.309   8.379  0.1922 -0.0948  0.1767
   37CHL1  H26A 2732   4.206   0.216   8.320 -2.3218 -0.9402  0.7897
   37CHL1  H26B 2733   4.267   0.297   8.461  1.8730 -0.5620 -1.3734
   37CHL1  H26C 2734   4.088   0.311   8.417 -0.0136  1.7365 -0.4229
   37CHL1   C27 2735   4.213   0.555   8.388 -0.5412  0.2563  0.5644
   37CHL1  H27A 2736   4.303   0.550   8.453  0.3570  0.3986 -0.6321
   37CHL1  H27B 2737   4.210   0.651   8.332  0.0429  1.1175  1.9521
   37CHL1  H27C 2738   4.133   0.541   8.463  1.2582 -1.8661  2.2437
   38CHL1    C3 2739   2.696   1.057   6.478 -0.3724 -0.2032  0.4955
   38CHL1    H3 2740   2.762   1.146   6.487  0.4330 -0.9044  1.8834
   38CHL1    O3 2741   2.694   0.990   6.355  0.5823 -0.3875  0.5967
   38CHL1   H3' 2742   2.762   1.033   6.302  0.2156 -1.2277 -0.5868
   38CHL1    C4 2743   2.751   0.963   6.573 -0.4266 -0.3435  0.0216
   38CHL1   H4A 2744   2.700   0.865   6.566  1.1504 -1.1289 -1.2310
   38CHL1   H4B 2745   2.852   0.930   6.541 -0.4977 -2.1101  1.4671
   38CHL1    C5 2746   2.753   1.001   6.720 -0.1334 -0.2460 -0.5603
   38CHL1    C6 2747   2.858   0.988   6.804  0.3031 -0.0156  0.1217
   38CHL1    H6 2748   2.947   0.939   6.761 -1.4341 -3.2153 -0.1366
   38CHL1    C7 2749   2.861   1.017   6.948 -0.4831 -0.0685 -0.4528
   38CHL1   H7A 2750   2.898   0.930   7.008 -1.4456 -0.3562 -0.2559
   38CHL1   H7B 2751   2.923   1.105   6.974  0.4931 -1.6561  3.2231
   38CHL1    C8 2752   2.716   1.050   7.006  0.0182 -0.3087  1.0208
   38CHL1    H8 2753   2.664   0.955   7.031 -2.0184  0.3367 -0.4857
   38CHL1   C14 2754   2.737   1.116   7.136 -0.0633  0.6165 -0.3903
   38CHL1   H14 2755   2.787   1.212   7.110 -0.5118  1.0918  0.4263
   38CHL1   C15 2756   2.824   1.048   7.248 -0.2322  0.4367 -0.3041
   38CHL1  H15A 2757   2.794   0.942   7.258  0.3697  0.0226 -2.3660
   38CHL1  H15B 2758   2.932   1.051   7.219 -0.9802  2.9780 -3.5399
   38CHL1   C16 2759   2.782   1.123   7.384 -0.1119 -0.3690  0.4418
   38CHL1  H16A 2760   2.746   1.065   7.471  1.2234  1.5200  2.3520
   38CHL1  H16B 2761   2.869   1.187   7.409 -1.4529  0.6808  2.7471
   38CHL1   C17 2762   2.659   1.215   7.342 -0.1066  0.4037  0.7906
   38CHL1   H17 2763   2.700   1.313   7.310 -0.0729 -0.1879 -1.0696
   38CHL1   C13 2764   2.609   1.162   7.203  0.3962  0.6551  0.2014
   38CHL1   C18 2765   2.512   1.041   7.231  0.2633 -0.2706 -0.0118
   38CHL1  H18A 2766   2.553   0.956   7.290  0.6618 -0.3662 -0.4198
   38CHL1  H18B 2767   2.422   1.080   7.282 -0.2722 -0.7810 -0.5524
   38CHL1  H18C 2768   2.469   0.999   7.137  0.0551  0.8740 -0.4361
   38CHL1   C12 2769   2.549   1.271   7.107 -0.1199  0.0454  0.7107
   38CHL1  H12A 2770   2.461   1.327   7.148  0.2886  0.1854  1.4136
   38CHL1  H12B 2771   2.622   1.354   7.093 -1.3508  0.8619 -1.3910
   38CHL1   C11 2772   2.519   1.215   6.966 -0.0924 -0.1802  0.3991
   38CHL1  H11A 2773   2.434   1.145   6.986  1.5240 -1.3562  4.0328
   38CHL1  H11B 2774   2.506   1.302   6.898  2.3530 -1.0341 -1.2755
   38CHL1    C9 2775   2.642   1.145   6.905 -0.0339 -0.1239 -0.2156
   38CHL1    H9 2776   2.712   1.228   6.881 -0.3190 -0.3002 -1.7846
   38CHL1   C10 2777   2.625   1.073   6.771 -0.3694 -0.2082  1.0712
   38CHL1   C19 2778   2.508   0.978   6.797  0.1284  0.4217 -0.1255
   38CHL1  H19A 2779   2.417   1.037   6.820  1.0639  2.1341 -0.6123
   38CHL1  H19B 2780   2.493   0.908   6.712 -0.9989  0.6439 -0.1197
   38CHL1  H19C 2781   2.535   0.907   6.878  0.1622 -0.9848 -1.3199
   38CHL1    C1 2782   2.577   1.175   6.660 -0.6127  0.3077  0.5664
   38CHL1   H1A 2783   2.489   1.228   6.701 -0.3632  0.7117  0.5903
   38CHL1   H1B 2784   2.656   1.254   6.664  0.0863 -0.4258  1.6667
   38CHL1    C2 2785   2.556   1.107   6.525 -0.0840 -0.2520 -0.0371
   38CHL1   H2A 2786   2.540   1.178   6.441  2.3082 -0.6243 -0.8898
   38CHL1   H2B 2787   2.481   1.026   6.532 -0.9958  0.6963  1.5150
   38CHL1   C20 2788   2.560   1.241   7.458  0.2663 -0.3957  0.2542
   38CHL1   H20 2789   2.516   1.144   7.487 -0.5850 -0.7041 -1.9025
   38CHL1   C21 2790   2.453   1.345   7.419 -0.1859  0.2476 -0.3848
   38CHL1  H21A 2791   2.380   1.299   7.349  0.8869 -0.4909 -1.0366
   38CHL1  H21B 2792   2.499   1.438   7.378  1.5280 -0.4271 -0.0764
   38CHL1  H21C 2793   2.390   1.373   7.506  1.0705  0.9501  0.3315
   38CHL1   C22 2794   2.623   1.292   7.592  0.4724  0.5206  0.7747
   38CHL1  H22A 2795   2.714   1.232   7.615 -0.3584 -1.0784  0.0475
   38CHL1  H22B 2796   2.664   1.392   7.567  1.4626 -0.3121 -1.1808
   38CHL1   C23 2797   2.530   1.293   7.717 -0.1682  0.5792 -0.1839
   38CHL1  H23A 2798   2.422   1.306   7.695 -0.6141 -2.6983 -0.5197
   38CHL1  H23B 2799   2.535   1.193   7.765  0.8329  0.2723 -0.8886
   38CHL1   C24 2800   2.565   1.393   7.827  0.7454  0.0444  0.0647
   38CHL1  H24A 2801   2.662   1.352   7.864  0.1114 -0.2646  1.4410
   38CHL1  H24B 2802   2.583   1.495   7.787 -1.4109 -0.0048 -1.1735
   38CHL1   C25 2803   2.472   1.409   7.948 -0.8739  0.3275  0.4855
   38CHL1   H25 2804   2.364   1.406   7.923 -0.5713 -0.5565 -0.7954
   38CHL1   C26 2805   2.504   1.296   8.050  0.0668 -0.3834  0.2334
   38CHL1  H26A 2806   2.607   1.305   8.089 -0.1636 -1.4458  1.1534
   38CHL1  H26B 2807   2.430   1.312   8.131 -0.1888 -0.7787  0.0865
   38CHL1  H26C 2808   2.491   1.191   8.014  0.6080 -0.9194  1.5640
   38CHL1   C27 2809   2.498   1.539   8.018 -0.0215 -1.2395 -0.3451
   38CHL1  H27A 2810   2.415   1.557   8.090  1.8834  1.4867  1.3364
   38CHL1  H27B 2811   2.590   1.540   8.080 -0.5227 -0.9995  0.4128
   38CHL1  H27C 2812   2.482   1.618   7.943 -0.1901 -0.3576  0.5920
   39CHL1    C3 2813   1.779   0.243   6.847  0.5974  0.3873  0.0872
   39CHL1    H3 2814   1.720   0.150   6.863 -1.3435  1.6778  0.8357
   39CHL1    O3 2815   1.780   0.283   6.710  0.1872  0.6138 -0.1231
   39CHL1   H3' 2816   1.810   0.374   6.719  1.1739  0.2763  0.1710
   39CHL1    C4 2817   1.712   0.359   6.928  0.0690 -0.1380  0.0427
   39CHL1   H4A 2818   1.764   0.456   6.912 -0.7059  0.5226  1.3779
   39CHL1   H4B 2819   1.609   0.382   6.894  0.9342  2.0453 -1.2651
   39CHL1    C5 2820   1.721   0.317   7.072 -0.3654 -0.4377 -1.1002
   39CHL1    C6 2821   1.604   0.293   7.143  0.0962 -0.3962 -0.1536
   39CHL1    H6 2822   1.505   0.296   7.097 -0.1640  2.8728  0.3782
   39CHL1    C7 2823   1.596   0.283   7.293  0.1931 -0.0055 -0.5385
   39CHL1   H7A 2824   1.518   0.352   7.332 -0.5267 -1.2743  0.3017
   39CHL1   H7B 2825   1.570   0.179   7.322  0.7323 -0.4828 -1.6967
   39CHL1    C8 2826   1.733   0.326   7.356  0.5595  0.1869 -0.0753
   39CHL1    H8 2827   1.736   0.437   7.353  1.9746  0.2399  1.6527
   39CHL1   C14 2828   1.734   0.278   7.499  0.0259  0.1434  0.0036
   39CHL1   H14 2829   1.727   0.167   7.493 -0.9090  0.0780  1.7594
   39CHL1   C15 2830   1.617   0.326   7.578 -0.1785 -0.0670 -0.0706
   39CHL1  H15A 2831   1.625   0.437   7.569  0.7095 -0.2169 -1.3946
   39CHL1  H15B 2832   1.511   0.308   7.552 -0.4484 -0.6649  1.3451
   39CHL1   C16 2833   1.659   0.292   7.718  0.2815  0.3620 -0.8210
   39CHL1  H16A 2834   1.653   0.378   7.788  2.7499 -0.4038  0.4280
   39CHL1  H16B 2835   1.592   0.215   7.763  0.7117  0.0796 -0.6592
   39CHL1   C17 2836   1.811   0.249   7.711 -0.0376 -0.0962 -0.3172
   39CHL1   H17 2837   1.822   0.139   7.698 -0.5738 -0.1772 -0.1041
   39CHL1   C13 2838   1.858   0.304   7.576 -0.6502 -0.4541 -0.1800
   39CHL1   C18 2839   1.889   0.456   7.595 -0.0804 -1.1988  0.1496
   39CHL1  H18A 2840   1.820   0.514   7.659  0.7604  0.4101 -0.3343
   39CHL1  H18B 2841   1.993   0.463   7.635  0.3563 -2.4979 -0.6707
   39CHL1  H18C 2842   1.894   0.509   7.497  0.7651  0.5143  1.0627
   39CHL1   C12 2843   1.975   0.231   7.509 -0.0843 -0.3230  0.5599
   39CHL1  H12A 2844   2.071   0.239   7.565  0.2761 -0.1736 -0.0778
   39CHL1  H12B 2845   1.947   0.125   7.496 -0.2906 -0.3582  1.2437
   39CHL1   C11 2846   1.987   0.283   7.366  0.5296  0.7114 -0.1949
   39CHL1  H11A 2847   2.026   0.387   7.372  0.3834  0.8243 -1.0493
   39CHL1  H11B 2848   2.070   0.224   7.322  1.2527  1.1873  0.5183
   39CHL1    C9 2849   1.857   0.276   7.285 -0.4933  0.3869 -0.9738
   39CHL1    H9 2850   1.828   0.169   7.279  0.8388 -0.0110 -0.6478
   39CHL1   C10 2851   1.854   0.317   7.137 -0.4586 -0.2552  0.4133
   39CHL1   C19 2852   1.930   0.449   7.129 -0.4526  0.3384 -0.9254
   39CHL1  H19A 2853   1.920   0.502   7.032  0.2343  1.8797 -0.1803
   39CHL1  H19B 2854   1.893   0.516   7.209 -0.3657  0.1701 -0.7429
   39CHL1  H19C 2855   2.038   0.435   7.154 -0.9267 -2.9517 -0.1909
   39CHL1    C1 2856   1.930   0.206   7.054  0.0789 -0.2669 -0.5442
   39CHL1   H1A 2857   2.037   0.212   7.083 -0.3739  0.2192  1.1995
   39CHL1   H1B 2858   1.873   0.112   7.071 -0.3648 -0.0980 -1.0616
   39CHL1    C2 2859   1.920   0.223   6.901  0.2844 -0.0342 -0.2943
   39CHL1   H2A 2860   1.956   0.126   6.861 -1.8981 -1.8347  1.8182
   39CHL1   H2B 2861   1.988   0.302   6.862  0.4688 -0.0885 -0.0847
   39CHL1   C20 2862   1.894   0.289   7.833  0.5738 -0.4841  0.2639
   39CHL1   H20 2863   1.902   0.399   7.846  0.1862 -0.5627  1.2758
   39CHL1   C21 2864   2.037   0.235   7.820 -0.0061 -0.1699  0.3618
   39CHL1  H21A 2865   2.050   0.138   7.769  2.0028 -0.1053  0.6574
   39CHL1  H21B 2866   2.078   0.214   7.921  0.0185 -0.4545  0.2919
   39CHL1  H21C 2867   2.107   0.301   7.764 -0.9882 -0.0734 -0.7661
   39CHL1   C22 2868   1.835   0.225   7.960  0.6949 -0.0348  0.3204
   39CHL1  H22A 2869   1.726   0.241   7.973  0.3614  0.6598 -2.5361
   39CHL1  H22B 2870   1.846   0.115   7.964  1.2766 -0.0303 -0.8082
   39CHL1   C23 2871   1.906   0.277   8.089 -0.0341 -0.2784  0.7872
   39CHL1  H23A 2872   1.968   0.189   8.115 -1.8450 -1.6288  0.7280
   39CHL1  H23B 2873   1.966   0.370   8.076  0.4215 -0.7880 -0.9781
   39CHL1   C24 2874   1.818   0.283   8.215  0.2912  0.0528  0.1473
   39CHL1  H24A 2875   1.776   0.180   8.217 -2.1307  0.9812  1.5131
   39CHL1  H24B 2876   1.879   0.302   8.305 -0.1898 -0.1819  0.5294
   39CHL1   C25 2877   1.709   0.399   8.218  0.0369 -0.4553 -0.3112
   39CHL1   H25 2878   1.669   0.403   8.115  1.3762  1.0221 -0.8179
   39CHL1   C26 2879   1.602   0.361   8.317  0.5659  0.4269  0.1128
   39CHL1  H26A 2880   1.519   0.434   8.306 -1.2553 -1.2012  2.1331
   39CHL1  H26B 2881   1.561   0.261   8.290  1.8106 -0.0759  0.0272
   39CHL1  H26C 2882   1.646   0.367   8.419 -0.4781  1.8615  0.5079
   39CHL1   C27 2883   1.774   0.537   8.244  0.5885  0.0038 -0.5642
   39CHL1  H27A 2884   1.849   0.562   8.166  0.3432 -2.5133 -1.7017
   39CHL1  H27B 2885   1.693   0.612   8.236 -0.5271 -1.2268 -1.0600
   39CHL1  H27C 2886   1.823   0.536   8.344  0.7386 -0.3455 -0.6389
   40CHL1    C3 2887   4.068   0.056   6.908 -0.2762  0.5279  0.3485
   40CHL1    H3 2888   4.111  -0.029   6.964  1.6557  2.2308  1.5789
   40CHL1    O3 2889   4.076   0.014   6.776 -0.2393  0.2351  0.2168
   40CHL1   H3' 2890   4.033   0.084   6.726 -1.4578  0.7488  1.8777
   40CHL1    C4 2891   3.918   0.075   6.949 -0.0138 -0.0180  1.0886
   40CHL1   H4A 2892   3.883   0.163   6.890  1.2222  0.2479  0.7237
   40CHL1   H4B 2893   3.855  -0.012   6.920  1.9663 -1.7733  1.8202
   40CHL1    C5 2894   3.905   0.119   7.089 -0.0391 -0.7417 -0.6101
   40CHL1    C6 2895   3.827   0.048   7.177 -0.9015  0.9601  0.3840
   40CHL1    H6 2896   3.764  -0.034   7.141 -0.9099  1.6915 -1.3538
   40CHL1    C7 2897   3.811   0.083   7.320 -0.2376 -0.4867 -0.7099
   40CHL1   H7A 2898   3.702   0.080   7.342  0.2757  0.2607  2.3342
   40CHL1   H7B 2899   3.862   0.012   7.389  1.8937  1.2322 -0.4322
   40CHL1    C8 2900   3.861   0.227   7.351 -0.1956 -0.0892 -1.2515
   40CHL1    H8 2901   3.783   0.295   7.311 -0.0316 -0.5934 -2.4766
   40CHL1   C14 2902   3.879   0.253   7.506  0.8085  0.2906  0.2138
   40CHL1   H14 2903   3.955   0.177   7.535  0.0055 -0.5334  0.2152
   40CHL1   C15 2904   3.765   0.211   7.598  0.0920 -0.6518 -0.0348
   40CHL1  H15A 2905   3.662   0.235   7.563 -0.9706 -0.4934  2.9438
   40CHL1  H15B 2906   3.767   0.101   7.616 -0.9689 -1.2268 -2.8972
   40CHL1   C16 2907   3.804   0.297   7.729  0.6613 -0.4124  0.3817
   40CHL1  H16A 2908   3.718   0.363   7.756  0.3730 -1.5601  2.4331
   40CHL1  H16B 2909   3.821   0.229   7.814  0.4486 -1.0742 -0.0926
   40CHL1   C17 2910   3.932   0.382   7.702  0.0836 -0.9051 -0.2235
   40CHL1   H17 2911   4.016   0.312   7.725  0.1298 -0.6256  0.4595
   40CHL1   C13 2912   3.926   0.392   7.545 -0.1016  0.3027  0.3844
   40CHL1   C18 2913   3.822   0.496   7.492  0.0676 -0.0652  0.1283
   40CHL1  H18A 2914   3.817   0.490   7.381  0.6577  0.5537  0.0636
   40CHL1  H18B 2915   3.721   0.469   7.530 -0.7562  0.1776 -1.7806
   40CHL1  H18C 2916   3.855   0.599   7.515  4.0506 -0.7698 -1.6900
   40CHL1   C12 2917   4.069   0.405   7.474  0.3256  0.5330 -0.0736
   40CHL1  H12A 2918   4.122   0.498   7.505  2.3329 -0.7516  0.5632
   40CHL1  H12B 2919   4.136   0.324   7.509  3.8814  3.1388 -0.2727
   40CHL1   C11 2920   4.066   0.395   7.322  0.3474 -0.9439  0.0376
   40CHL1  H11A 2921   4.012   0.484   7.284 -0.6395 -1.8043 -0.6344
   40CHL1  H11B 2922   4.169   0.397   7.279  0.0756 -0.3449 -0.6129
   40CHL1    C9 2923   3.992   0.263   7.278 -1.2448 -0.1158 -0.0449
   40CHL1    H9 2924   4.063   0.186   7.316 -1.0301  0.2266  0.2591
   40CHL1   C10 2925   3.987   0.244   7.131 -0.6880  0.6007  0.6770
   40CHL1   C19 2926   3.941   0.374   7.057 -0.3046 -0.0709  0.0914
   40CHL1  H19A 2927   3.854   0.402   7.119  0.0365 -0.0128  0.5487
   40CHL1  H19B 2928   4.022   0.448   7.069  0.8706 -1.5450  1.9671
   40CHL1  H19C 2929   3.910   0.360   6.951  0.1183 -1.3783  0.1163
   40CHL1    C1 2930   4.133   0.223   7.093  0.1074 -0.0876  0.6289
   40CHL1   H1A 2931   4.190   0.318   7.089  0.3545 -0.1410  2.2096
   40CHL1   H1B 2932   4.187   0.154   7.161 -0.4313 -1.2825 -0.1346
   40CHL1    C2 2933   4.161   0.173   6.947 -0.4530 -0.7370  0.3211
   40CHL1   H2A 2934   4.264   0.133   6.952 -0.3367 -0.3589  1.3144
   40CHL1   H2B 2935   4.160   0.256   6.873  3.1677 -0.9269 -0.1353
   40CHL1   C20 2936   3.948   0.509   7.793  0.1158 -0.3664  0.1970
   40CHL1   H20 2937   3.866   0.582   7.775 -0.3222 -1.4788 -2.9538
   40CHL1   C21 2938   4.071   0.592   7.753 -0.0208 -0.3361 -0.1082
   40CHL1  H21A 2939   4.058   0.627   7.649  2.6170  0.3620 -0.2779
   40CHL1  H21B 2940   4.163   0.531   7.762 -1.0892 -1.8378  1.2068
   40CHL1  H21C 2941   4.082   0.675   7.827 -0.2272 -0.3081 -0.1072
   40CHL1   C22 2942   3.961   0.460   7.943 -0.3600 -0.2745  0.3910
   40CHL1  H22A 2943   3.913   0.360   7.945  2.6698 -1.8427  1.2549
   40CHL1  H22B 2944   4.068   0.444   7.971 -0.1251  0.3597 -0.1289
   40CHL1   C23 2945   3.886   0.542   8.042  0.4025 -0.3045 -0.2797
   40CHL1  H23A 2946   3.895   0.491   8.140  1.3742 -0.6171 -0.5216
   40CHL1  H23B 2947   3.933   0.642   8.045 -1.8643  0.7981  1.0830
   40CHL1   C24 2948   3.738   0.549   8.013 -0.1135 -0.1978  0.5062
   40CHL1  H24A 2949   3.728   0.620   7.929  2.9714 -0.6790 -0.3885
   40CHL1  H24B 2950   3.708   0.450   7.972 -0.2321  0.0565 -0.0302
   40CHL1   C25 2951   3.632   0.574   8.124 -0.6775 -0.1606 -1.1267
   40CHL1   H25 2952   3.635   0.494   8.202 -0.4288 -0.7607 -1.7358
   40CHL1   C26 2953   3.650   0.709   8.192  0.2185 -0.6576 -0.0208
   40CHL1  H26A 2954   3.664   0.787   8.113  3.7693 -1.0802  0.0625
   40CHL1  H26B 2955   3.558   0.727   8.253 -0.2937  1.8656 -1.3625
   40CHL1  H26C 2956   3.740   0.705   8.256 -0.3620 -2.8362  0.7281
   40CHL1   C27 2957   3.495   0.567   8.052 -0.7755 -0.7911 -0.1570
   40CHL1  H27A 2958   3.488   0.642   7.971 -0.6878  1.3847  1.7318
   40CHL1  H27B 2959   3.460   0.467   8.019 -0.6915 -1.1347  0.7425
   40CHL1  H27C 2960   3.421   0.592   8.131  3.5569  0.4075  3.9914
   41CHL1    C3 2961   4.868   5.310   7.043 -0.0734 -0.7633 -0.5098
   41CHL1    H3 2962   4.921   5.216   7.070  0.3488  0.1494  2.1545
   41CHL1    O3 2963   4.821   5.311   6.910 -0.3972 -0.3792 -0.0378
   41CHL1   H3' 2964   4.753   5.243   6.907 -1.5109  0.5029  2.7085
   41CHL1    C4 2965   4.756   5.333   7.142 -0.7907 -0.2914  0.8055
   41CHL1   H4A 2966   4.697   5.422   7.110 -1.9299 -0.7225  1.6325
   41CHL1   H4B 2967   4.687   5.247   7.128 -1.1129  0.1902 -0.7982
   41CHL1    C5 2968   4.803   5.354   7.285 -0.3644  0.0385  0.3745
   41CHL1    C6 2969   4.755   5.286   7.385  0.3813 -0.6709  0.3174
   41CHL1    H6 2970   4.686   5.203   7.364 -0.1117  0.2925 -2.2109
   41CHL1    C7 2971   4.785   5.318   7.528 -0.1788 -0.2545 -0.2480
   41CHL1   H7A 2972   4.702   5.310   7.601  1.5619 -1.4585  1.7461
   41CHL1   H7B 2973   4.850   5.235   7.566 -0.7142  0.0429  1.4009
   41CHL1    C8 2974   4.846   5.455   7.550 -0.2781 -0.0864  0.0591
   41CHL1    H8 2975   4.769   5.536   7.547 -1.3508 -1.0897 -0.0613
   41CHL1   C14 2976   4.911   5.458   7.687 -0.1747  0.6552  0.2232
   41CHL1   H14 2977   4.990   5.380   7.678 -1.6759 -0.6784 -3.1815
   41CHL1   C15 2978   4.825   5.416   7.811 -0.1355  0.5744  0.5813
   41CHL1  H15A 2979   4.722   5.459   7.812  0.0673  1.0942 -0.0387
   41CHL1  H15B 2980   4.814   5.306   7.806  0.7913  0.5337 -1.1050
   41CHL1   C16 2981   4.909   5.471   7.930  0.4806  0.4452  0.3664
   41CHL1  H16A 2982   4.846   5.551   7.976  0.0808  0.2029  0.2464
   41CHL1  H16B 2983   4.919   5.396   8.012 -3.7844  0.5522  1.2347
   41CHL1   C17 2984   5.037   5.533   7.864  0.0073  0.2117  0.0736
   41CHL1   H17 2985   5.103   5.447   7.843 -1.0781 -0.6587  0.1495
   41CHL1   C13 2986   4.993   5.583   7.722  0.2156 -0.1639  0.6656
   41CHL1   C18 2987   4.896   5.700   7.729 -0.3755 -0.2404 -0.4755
   41CHL1  H18A 2988   4.950   5.796   7.746 -0.1950 -0.4736  0.3286
   41CHL1  H18B 2989   4.828   5.715   7.642 -0.0480  2.8036 -0.3391
   41CHL1  H18C 2990   4.811   5.683   7.800  0.1185 -1.9238 -0.2510
   41CHL1   C12 2991   5.104   5.599   7.611 -0.5745  0.2121 -0.1635
   41CHL1  H12A 2992   5.156   5.696   7.626 -1.6415  0.8698 -0.5837
   41CHL1  H12B 2993   5.174   5.514   7.622 -1.1589 -0.2800 -0.1742
   41CHL1   C11 2994   5.046   5.602   7.470 -0.0354 -0.5155 -0.4806
   41CHL1  H11A 2995   4.992   5.696   7.445 -1.0829 -1.2103 -0.9257
   41CHL1  H11B 2996   5.125   5.612   7.392 -1.4551 -0.7073 -2.0010
   41CHL1    C9 2997   4.954   5.479   7.443 -0.4831 -0.0655  0.6641
   41CHL1    H9 2998   5.018   5.390   7.459 -0.6502 -0.1531  0.8477
   41CHL1   C10 2999   4.900   5.469   7.299 -0.1452 -0.6194 -0.0538
   41CHL1   C19 3000   4.822   5.599   7.263  0.8138 -0.2622  0.1018
   41CHL1  H19A 3001   4.763   5.596   7.169  0.3298 -0.4387  0.4060
   41CHL1  H19B 3002   4.747   5.618   7.342  0.2253  0.5769 -0.6424
   41CHL1  H19C 3003   4.884   5.691   7.258 -3.1253  2.5652 -1.2149
   41CHL1    C1 3004   5.018   5.443   7.202 -1.2365  0.8346  0.6520
   41CHL1   H1A 3005   5.080   5.535   7.203  0.2229 -0.1167  0.9291
   41CHL1   H1B 3006   5.086   5.366   7.245  2.1816  4.8254  3.3010
   41CHL1    C2 3007   4.976   5.420   7.056  0.1296 -0.0058 -0.5485
   41CHL1   H2A 3008   5.069   5.397   7.000  0.1329 -0.9186 -0.1866
   41CHL1   H2B 3009   4.939   5.520   7.025  0.0329  1.2079  2.9971
   41CHL1   C20 3010   5.103   5.637   7.959 -0.0585  0.9914 -0.1863
   41CHL1   H20 3011   5.036   5.725   7.974 -2.1051 -0.7652  1.5951
   41CHL1   C21 3012   5.242   5.677   7.907 -0.2213  0.4073 -0.5673
   41CHL1  H21A 3013   5.231   5.728   7.808 -0.6429 -0.3307 -0.9055
   41CHL1  H21B 3014   5.303   5.588   7.884  1.6253  1.2859  0.6782
   41CHL1  H21C 3015   5.297   5.740   7.981  2.0224 -0.7489 -1.1610
   41CHL1   C22 3016   5.121   5.587   8.109 -0.2448 -0.2116 -0.1083
   41CHL1  H22A 3017   5.194   5.653   8.160  0.2937 -1.4143  0.7089
   41CHL1  H22B 3018   5.025   5.589   8.164  1.4783  0.8377  3.0953
   41CHL1   C23 3019   5.192   5.450   8.134 -0.4265  0.6832 -0.2754
   41CHL1  H23A 3020   5.129   5.367   8.097 -1.4099  0.5468  1.5905
   41CHL1  H23B 3021   5.284   5.444   8.073 -0.8522 -1.0656 -0.7941
   41CHL1   C24 3022   5.228   5.427   8.281 -0.5008  0.0284  0.1666
   41CHL1  H24A 3023   5.302   5.504   8.312 -1.3368  0.2036  1.8171
   41CHL1  H24B 3024   5.137   5.421   8.344 -0.7899 -2.6084 -0.3667
   41CHL1   C25 3025   5.301   5.296   8.308 -0.5399 -0.2002 -0.5313
   41CHL1   H25 3026   5.388   5.299   8.239 -0.1278  2.5547 -0.0117
   41CHL1   C26 3027   5.347   5.306   8.459  0.3554 -0.0019 -0.2215
   41CHL1  H26A 3028   5.424   5.384   8.480  0.3122  0.1142 -0.4819
   41CHL1  H26B 3029   5.262   5.300   8.530  0.4496  1.8819  0.1120
   41CHL1  H26C 3030   5.406   5.212   8.468 -0.8821 -0.7909 -0.2061
   41CHL1   C27 3031   5.213   5.178   8.277 -0.1811  0.0908 -0.2251
   41CHL1  H27A 3032   5.266   5.081   8.264  2.0954  1.0516  1.3328
   41CHL1  H27B 3033   5.137   5.171   8.358 -1.5427  2.2498 -1.2225
   41CHL1  H27C 3034   5.157   5.175   8.181 -0.9198 -1.4917  0.2188
   42CHL1    C3 3035   5.345   3.468   6.899  0.2020  0.5467 -0.9603
   42CHL1    H3 3036   5.249   3.508   6.937  0.0493 -0.5623 -0.1390
   42CHL1    O3 3037   5.354   3.456   6.763 -0.0498  0.0328 -0.3204
   42CHL1   H3' 3038   5.423   3.397   6.733 -0.6342 -0.9547  0.2254
   42CHL1    C4 3039   5.461   3.556   6.967  0.3349  0.4308  0.2145
   42CHL1   H4A 3040   5.558   3.529   6.921  0.2407 -0.3041  0.4378
   42CHL1   H4B 3041   5.443   3.661   6.937  1.3824  0.6181  0.1985
   42CHL1    C5 3042   5.460   3.550   7.119 -0.5622  0.4198  0.7494
   42CHL1    C6 3043   5.436   3.661   7.193  0.7975  0.5107 -0.2532
   42CHL1    H6 3044   5.410   3.757   7.145 -1.3834  0.1823  0.1309
   42CHL1    C7 3045   5.438   3.656   7.344 -0.3081 -0.6040  0.5840
   42CHL1   H7A 3046   5.506   3.738   7.374  2.0675 -2.3061  0.1520
   42CHL1   H7B 3047   5.339   3.659   7.394 -0.2325  0.8292  0.6766
   42CHL1    C8 3048   5.498   3.521   7.398 -0.5187 -0.8926  0.2620
   42CHL1    H8 3049   5.606   3.529   7.373 -0.0712 -0.9854  2.0561
   42CHL1   C14 3050   5.470   3.506   7.545  0.5922 -0.0217 -0.5552
   42CHL1   H14 3051   5.363   3.479   7.546  0.6215 -0.2494 -1.7054
   42CHL1   C15 3052   5.494   3.624   7.641  0.2696 -1.0745  0.4490
   42CHL1  H15A 3053   5.569   3.702   7.618 -1.2901  0.3281 -0.0655
   42CHL1  H15B 3054   5.396   3.676   7.647 -0.0712 -1.6886  0.2931
   42CHL1   C16 3055   5.521   3.561   7.774  0.7962  0.4732  0.2103
   42CHL1  H16A 3056   5.627   3.578   7.802  0.5253  3.3026 -0.2315
   42CHL1  H16B 3057   5.478   3.602   7.867 -1.5263 -0.0120 -0.5898
   42CHL1   C17 3058   5.504   3.410   7.751 -0.2343 -0.4530 -0.6814
   42CHL1   H17 3059   5.394   3.402   7.758 -0.3775  1.6067  0.0941
   42CHL1   C13 3060   5.543   3.388   7.602  0.7549  0.1085 -0.0173
   42CHL1   C18 3061   5.696   3.411   7.579  0.4319 -0.6096  0.6230
   42CHL1  H18A 3062   5.745   3.323   7.626 -0.8363 -1.1204  1.0287
   42CHL1  H18B 3063   5.733   3.419   7.475 -0.4832  3.2264  0.4435
   42CHL1  H18C 3064   5.730   3.504   7.629 -1.2815  0.6889 -0.5334
   42CHL1   C12 3065   5.496   3.252   7.535 -0.2997  0.1050  1.2857
   42CHL1  H12A 3066   5.556   3.169   7.579 -0.4423 -0.3926  0.5617
   42CHL1  H12B 3067   5.389   3.247   7.566 -0.2158  0.8289  1.7073
   42CHL1   C11 3068   5.497   3.260   7.383  0.4483  0.1528  0.5858
   42CHL1  H11A 3069   5.607   3.251   7.370  0.3795  0.3476 -0.1740
   42CHL1  H11B 3070   5.435   3.177   7.344 -0.4576  0.8336  0.5388
   42CHL1    C9 3071   5.448   3.398   7.322  0.4288 -0.1030 -0.7731
   42CHL1    H9 3072   5.339   3.402   7.339  0.1551 -0.1729 -2.3900
   42CHL1   C10 3073   5.474   3.399   7.172  0.2616 -0.8771  0.0288
   42CHL1   C19 3074   5.611   3.348   7.129 -0.1060  0.4804  0.3625
   42CHL1  H19A 3075   5.617   3.346   7.018 -1.1542 -0.2097  0.3006
   42CHL1  H19B 3076   5.700   3.397   7.173  0.2166 -0.0105  0.2637
   42CHL1  H19C 3077   5.619   3.239   7.150  1.2300  0.2500 -1.1182
   42CHL1    C1 3078   5.361   3.320   7.096 -0.2397  0.3363 -0.3345
   42CHL1   H1A 3079   5.367   3.217   7.137  0.0993  0.4348 -0.1397
   42CHL1   H1B 3080   5.270   3.372   7.135 -0.7978 -0.2839 -0.7725
   42CHL1    C2 3081   5.365   3.325   6.944  0.2745 -0.0795  0.3858
   42CHL1   H2A 3082   5.272   3.271   6.918 -0.8235  1.4390  1.0289
   42CHL1   H2B 3083   5.456   3.274   6.904  1.1672  2.1898 -0.6116
   42CHL1   C20 3084   5.570   3.326   7.855  0.0501 -0.0697  0.3069
   42CHL1   H20 3085   5.586   3.236   7.792  2.1229 -0.0367  0.7286
   42CHL1   C21 3086   5.474   3.288   7.963 -0.3444 -0.1185  0.2050
   42CHL1  H21A 3087   5.532   3.210   8.017 -0.2438  1.0455  1.8519
   42CHL1  H21B 3088   5.379   3.256   7.915 -1.0416  1.7301  0.2665
   42CHL1  H21C 3089   5.455   3.383   8.018  1.5004  0.2293  0.2869
   42CHL1   C22 3090   5.713   3.364   7.908  0.0186 -0.4056  0.8897
   42CHL1  H22A 3091   5.785   3.394   7.830 -0.3762  1.1361  1.0826
   42CHL1  H22B 3092   5.693   3.457   7.966 -0.1241  0.9511 -1.2495
   42CHL1   C23 3093   5.772   3.270   8.014  0.1323 -0.4844  0.1767
   42CHL1  H23A 3094   5.729   3.271   8.116  0.8905 -0.2466  0.4976
   42CHL1  H23B 3095   5.757   3.164   7.984  1.2008 -0.4670 -0.4704
   42CHL1   C24 3096   5.919   3.302   8.035  0.1581 -0.9616 -0.3185
   42CHL1  H24A 3097   5.978   3.293   7.941 -1.8081  0.4150 -1.7630
   42CHL1  H24B 3098   5.941   3.404   8.074 -2.6521 -0.4289  0.0379
   42CHL1   C25 3099   5.982   3.202   8.131  0.1926 -0.0170 -0.4920
   42CHL1   H25 3100   5.914   3.189   8.218 -0.9859  0.3001 -1.3229
   42CHL1   C26 3101   5.996   3.064   8.063 -0.0943  0.0241 -0.7142
   42CHL1  H26A 3102   5.898   3.023   8.032 -0.3210  1.1021 -1.4736
   42CHL1  H26B 3103   6.064   3.072   7.975  1.6703  2.0426  0.7279
   42CHL1  H26C 3104   6.042   2.993   8.135 -0.2676  1.5609  0.9580
   42CHL1   C27 3105   6.120   3.246   8.182  0.0430  0.0577  0.9306
   42CHL1  H27A 3106   6.175   3.293   8.098 -1.1159 -0.7383 -0.3137
   42CHL1  H27B 3107   6.179   3.164   8.228 -2.3547 -1.5966  1.2327
   42CHL1  H27C 3108   6.107   3.330   8.253  0.5310  1.3005 -0.3857
   43CHL1    C3 3109   5.761   0.664   6.844 -1.2302 -0.1194 -0.1781
   43CHL1    H3 3110   5.743   0.561   6.806 -3.8444 -0.0517  0.6401
   43CHL1    O3 3111   5.765   0.747   6.727 -0.2606  0.2064 -0.0813
   43CHL1   H3' 3112   5.687   0.728   6.675 -1.5639  2.2716  1.0119
   43CHL1    C4 3113   5.653   0.713   6.937 -0.1953  0.9836 -0.6243
   43CHL1   H4A 3114   5.657   0.824   6.934  3.1485  1.0252  0.6060
   43CHL1   H4B 3115   5.556   0.678   6.896 -0.2835 -0.3400  0.6193
   43CHL1    C5 3116   5.661   0.667   7.081 -0.3658 -0.7533 -0.2089
   43CHL1    C6 3117   5.559   0.615   7.149 -0.1018 -0.3965  0.3706
   43CHL1    H6 3118   5.461   0.593   7.104 -0.2357 -1.8966  1.3278
   43CHL1    C7 3119   5.553   0.595   7.295  0.2358 -0.0631 -0.3991
   43CHL1   H7A 3120   5.455   0.625   7.337  0.1810 -1.4939  0.5749
   43CHL1   H7B 3121   5.565   0.487   7.320  3.6936  0.4905  0.9318
   43CHL1    C8 3122   5.681   0.654   7.371 -0.1130  0.3199  0.1694
   43CHL1    H8 3123   5.672   0.765   7.368  1.4849  0.4626 -1.9581
   43CHL1   C14 3124   5.696   0.606   7.515  0.1189 -0.1687 -0.0234
   43CHL1   H14 3125   5.708   0.496   7.508  1.8070 -0.1915  1.9834
   43CHL1   C15 3126   5.580   0.623   7.612 -0.3828  0.2297  0.7575
   43CHL1  H15A 3127   5.528   0.720   7.600 -0.3747  0.2241  0.6712
   43CHL1  H15B 3128   5.499   0.551   7.589  0.6885 -0.4450 -1.2757
   43CHL1   C16 3129   5.651   0.624   7.750 -0.0340 -0.3395 -0.1223
   43CHL1  H16A 3130   5.653   0.722   7.800 -0.5540  0.7173 -2.0568
   43CHL1  H16B 3131   5.620   0.543   7.820  2.9381 -1.2280  0.3165
   43CHL1   C17 3132   5.800   0.589   7.720 -0.1282 -0.1383 -0.8082
   43CHL1   H17 3133   5.814   0.480   7.705  1.0406 -0.6165  2.6840
   43CHL1   C13 3134   5.830   0.642   7.581  0.1608  0.2031 -0.3908
   43CHL1   C18 3135   5.842   0.796   7.593 -0.3267  0.0623 -0.1286
   43CHL1  H18A 3136   5.813   0.859   7.505 -0.3556 -0.7092 -0.6794
   43CHL1  H18B 3137   5.783   0.843   7.675  0.3845 -0.5666  0.7618
   43CHL1  H18C 3138   5.948   0.823   7.614  0.2361 -2.3394  0.3270
   43CHL1   C12 3139   5.951   0.581   7.494  0.1222 -0.6430  0.1456
   43CHL1  H12A 3140   6.052   0.605   7.533  0.5416  1.4892 -2.0655
   43CHL1  H12B 3141   5.942   0.470   7.492 -1.0917 -0.6226  1.7345
   43CHL1   C11 3142   5.943   0.645   7.351  0.4285 -0.7097  0.3557
   43CHL1  H11A 3143   5.961   0.754   7.355 -0.7427 -0.4520 -0.6534
   43CHL1  H11B 3144   6.022   0.605   7.284 -1.3912  0.2059 -2.5400
   43CHL1    C9 3145   5.805   0.616   7.289  0.1432  0.0070  0.3385
   43CHL1    H9 3146   5.805   0.507   7.266  1.6956  0.5782 -2.9475
   43CHL1   C10 3147   5.800   0.686   7.148  0.1867  0.3464 -0.0575
   43CHL1   C19 3148   5.836   0.834   7.155 -0.3249 -0.6779  0.1420
   43CHL1  H19A 3149   5.766   0.892   7.219  0.6719  2.1984 -1.1948
   43CHL1  H19B 3150   5.934   0.860   7.199 -0.2437 -0.5163 -0.1312
   43CHL1  H19C 3151   5.832   0.879   7.053 -0.4335  0.1727  0.5118
   43CHL1    C1 3152   5.904   0.610   7.050  0.6163 -0.3033 -0.9138
   43CHL1   H1A 3153   6.004   0.645   7.083  0.3374  1.8707 -2.1519
   43CHL1   H1B 3154   5.898   0.499   7.053  0.1469 -0.3812 -2.9657
   43CHL1    C2 3155   5.901   0.667   6.909  0.3711 -0.3814  0.0933
   43CHL1   H2A 3156   5.982   0.614   6.854  0.4171 -0.4169  0.1960
   43CHL1   H2B 3157   5.935   0.773   6.914 -1.0242  0.0530  4.4236
   43CHL1   C20 3158   5.891   0.629   7.838  0.0107  0.7874  0.5516
   43CHL1   H20 3159   5.914   0.737   7.826  0.9118  0.4108 -1.6001
   43CHL1   C21 3160   6.020   0.553   7.821  0.1421 -0.4515 -0.0435
   43CHL1  H21A 3161   6.074   0.578   7.727  0.4662  2.4605  0.8250
   43CHL1  H21B 3162   5.999   0.443   7.827  0.3168 -0.6205 -1.9701
   43CHL1  H21C 3163   6.088   0.586   7.903  2.3119 -1.8480 -1.1750
   43CHL1   C22 3164   5.846   0.603   7.986  0.2573  0.1010 -0.0672
   43CHL1  H22A 3165   5.735   0.604   7.987  0.2370 -1.1116  0.4172
   43CHL1  H22B 3166   5.887   0.501   8.004  1.2220  0.5270  0.2117
   43CHL1   C23 3167   5.911   0.695   8.086  1.1853 -0.2608  0.1364
   43CHL1  H23A 3168   6.020   0.681   8.078  0.9900 -1.7174 -0.4112
   43CHL1  H23B 3169   5.903   0.800   8.051 -1.3872 -1.6613 -4.2831
   43CHL1   C24 3170   5.852   0.654   8.225 -0.3721  0.1224  0.3640
   43CHL1  H24A 3171   5.746   0.688   8.225 -1.0919 -1.9874 -0.6303
   43CHL1  H24B 3172   5.848   0.544   8.234  0.0470  0.0164 -0.6724
   43CHL1   C25 3173   5.933   0.709   8.339 -0.1455 -0.5315 -0.5641
   43CHL1   H25 3174   5.939   0.820   8.337 -0.3091 -0.5290 -1.1654
   43CHL1   C26 3175   5.842   0.675   8.460  0.1372  0.1015 -0.2559
   43CHL1  H26A 3176   5.880   0.725   8.552  0.3525 -0.7940  0.1557
   43CHL1  H26B 3177   5.734   0.693   8.442 -0.4129 -0.9729  1.6727
   43CHL1  H26C 3178   5.863   0.570   8.491  2.2425  0.5354 -0.0497
   43CHL1   C27 3179   6.067   0.635   8.342 -0.0365 -0.3080 -0.0388
   43CHL1  H27A 3180   6.118   0.651   8.439  1.0229  1.2216 -0.8143
   43CHL1  H27B 3181   6.058   0.528   8.313  0.8221 -0.2897 -0.4217
   43CHL1  H27C 3182   6.128   0.686   8.264 -1.2444 -0.3049 -1.0145
   44CHL1    C3 3183   5.610   5.706   6.569 -0.4338  0.1370 -0.3708
   44CHL1    H3 3184   5.548   5.614   6.572 -1.0628  0.5741  0.1481
   44CHL1    O3 3185   5.620   5.749   6.437 -0.6312  0.6314  0.0754
   44CHL1   H3' 3186   5.670   5.679   6.394  0.4703 -0.4350  2.8362
   44CHL1    C4 3187   5.531   5.810   6.647 -0.3161 -0.0861  0.4652
   44CHL1   H4A 3188   5.566   5.913   6.625 -2.5891  0.9799  1.4626
   44CHL1   H4B 3189   5.435   5.818   6.591 -0.0396  0.8969  0.1023
   44CHL1    C5 3190   5.519   5.783   6.796 -0.0745  0.1945 -0.6942
   44CHL1    C6 3191   5.401   5.782   6.859  0.8410  0.1479 -0.0906
   44CHL1    H6 3192   5.315   5.812   6.797  0.7737 -0.7727 -0.4496
   44CHL1    C7 3193   5.382   5.776   7.007 -0.2692 -0.1594  0.3544
   44CHL1   H7A 3194   5.285   5.822   7.035 -0.5283 -0.5954  0.1803
   44CHL1   H7B 3195   5.354   5.668   7.014 -1.5303 -0.1398 -2.7836
   44CHL1    C8 3196   5.515   5.789   7.089 -0.3389 -0.0414 -0.0552
   44CHL1    H8 3197   5.532   5.898   7.101  0.1256 -0.0240 -0.7913
   44CHL1   C14 3198   5.510   5.730   7.228  0.2171  0.5138  0.5204
   44CHL1   H14 3199   5.484   5.623   7.216  0.8154  0.4302 -0.0670
   44CHL1   C15 3200   5.400   5.785   7.319  0.1072 -0.0727 -0.3047
   44CHL1  H15A 3201   5.414   5.896   7.313  4.7262 -0.3081  1.6033
   44CHL1  H15B 3202   5.296   5.759   7.291 -0.2347 -1.0504  1.7268
   44CHL1   C16 3203   5.433   5.743   7.458 -0.3433  0.7891 -0.3834
   44CHL1  H16A 3204   5.443   5.826   7.532  0.5290 -1.3469  2.0802
   44CHL1  H16B 3205   5.365   5.670   7.507  2.0638 -1.3770 -0.0401
   44CHL1   C17 3206   5.572   5.675   7.450  0.0277 -0.0352  0.2529
   44CHL1   H17 3207   5.553   5.568   7.426  2.1830 -0.1660 -1.2453
   44CHL1   C13 3208   5.630   5.741   7.319 -1.1216 -0.1936  0.6559
   44CHL1   C18 3209   5.679   5.886   7.350 -0.5709  0.0417 -0.2306
   44CHL1  H18A 3210   5.769   5.893   7.414 -0.5679  2.3261 -0.3734
   44CHL1  H18B 3211   5.696   5.926   7.248  1.9653 -0.6013 -0.1302
   44CHL1  H18C 3212   5.604   5.955   7.395 -0.4781  0.0542 -0.0944
   44CHL1   C12 3213   5.748   5.662   7.243 -0.3500 -0.7901 -0.2726
   44CHL1  H12A 3214   5.842   5.679   7.299  0.6287 -1.2942 -1.6974
   44CHL1  H12B 3215   5.730   5.553   7.249 -1.6288 -0.6010 -0.2529
   44CHL1   C11 3216   5.762   5.700   7.095 -0.3490 -0.4252  0.6706
   44CHL1  H11A 3217   5.813   5.799   7.094 -0.7438 -0.1649  2.3778
   44CHL1  H11B 3218   5.833   5.635   7.040  1.3364  2.4481 -0.8278
   44CHL1    C9 3219   5.632   5.717   7.012  0.8407  0.5450 -0.1095
   44CHL1    H9 3220   5.598   5.612   6.994 -3.5936  1.6313  0.8614
   44CHL1   C10 3221   5.654   5.763   6.863  0.0764  0.2618 -0.8856
   44CHL1   C19 3222   5.728   5.899   6.872  0.4471 -0.5598 -0.4446
   44CHL1  H19A 3223   5.831   5.886   6.912  0.0228  0.9076  1.2916
   44CHL1  H19B 3224   5.733   5.953   6.776 -0.8158 -1.0326 -0.8057
   44CHL1  H19C 3225   5.675   5.968   6.941 -0.5286  0.9215 -2.5835
   44CHL1    C1 3226   5.738   5.657   6.784 -0.3446  0.0094 -0.3849
   44CHL1   H1A 3227   5.840   5.639   6.823  0.3432  1.0332 -1.6335
   44CHL1   H1B 3228   5.683   5.561   6.786  1.6638 -1.2043 -1.3829
   44CHL1    C2 3229   5.746   5.696   6.634  0.3762  0.0350  0.2518
   44CHL1   H2A 3230   5.804   5.619   6.578 -2.2334 -2.4115  0.6729
   44CHL1   H2B 3231   5.797   5.794   6.636 -0.7806  0.6459  0.6525
   44CHL1   C20 3232   5.657   5.669   7.578 -1.0204 -0.3951  0.2803
   44CHL1   H20 3233   5.649   5.775   7.613 -0.9909 -0.1945 -0.3065
   44CHL1   C21 3234   5.803   5.629   7.552 -0.2555  0.6549 -0.1389
   44CHL1  H21A 3235   5.844   5.599   7.650 -0.3049 -1.2895 -0.6749
   44CHL1  H21B 3236   5.866   5.712   7.512  1.0191  0.0253  0.5251
   44CHL1  H21C 3237   5.814   5.543   7.482 -0.1893  2.5653 -2.6169
   44CHL1   C22 3238   5.591   5.588   7.692  0.7457 -0.1083 -0.2476
   44CHL1  H22A 3239   5.481   5.574   7.685  0.7569 -0.5096  0.3262
   44CHL1  H22B 3240   5.626   5.486   7.668  1.2313 -0.0478  0.1732
   44CHL1   C23 3241   5.637   5.628   7.833  0.7581 -0.1303  0.7295
   44CHL1  H23A 3242   5.746   5.636   7.849  0.5993 -1.1013  2.5583
   44CHL1  H23B 3243   5.607   5.735   7.840 -0.8280 -0.0750 -3.6607
   44CHL1   C24 3244   5.597   5.524   7.938 -0.3308 -0.8955 -0.1821
   44CHL1  H24A 3245   5.492   5.491   7.924 -0.9195  0.7610  0.1434
   44CHL1  H24B 3246   5.666   5.438   7.928  0.6772 -0.1752  0.3763
   44CHL1   C25 3247   5.614   5.562   8.087  0.0620 -0.2352  0.6790
   44CHL1   H25 3248   5.521   5.621   8.101  0.6786  0.7217  0.8548
   44CHL1   C26 3249   5.611   5.441   8.178 -0.2525  0.0744  0.4713
   44CHL1  H26A 3250   5.523   5.380   8.149  0.2300  0.1625 -1.3145
   44CHL1  H26B 3251   5.694   5.368   8.165 -1.8895 -2.0713  1.4865
   44CHL1  H26C 3252   5.612   5.476   8.283 -0.2481 -0.7800  0.7625
   44CHL1   C27 3253   5.735   5.651   8.120 -0.3245  0.2892  0.5897
   44CHL1  H27A 3254   5.826   5.589   8.132 -0.4641  0.2403  1.5114
   44CHL1  H27B 3255   5.760   5.737   8.055 -0.7586 -0.3043 -0.3821
   44CHL1  H27C 3256   5.706   5.692   8.220 -1.5398  2.5633 -0.6283
   45CHL1    C3 3257   0.317   3.764   6.727  0.8338  0.1466 -0.7124
   45CHL1    H3 3258   0.230   3.695   6.738 -0.2606  1.5837  0.0561
   45CHL1    O3 3259   0.353   3.740   6.590  0.1039  0.0628  0.1585
   45CHL1   H3' 3260   0.442   3.769   6.570 -0.3520  1.1546 -0.3854
   45CHL1    C4 3261   0.294   3.914   6.751  0.1564  0.3504 -0.5370
   45CHL1   H4A 3262   0.388   3.969   6.726  0.9964 -0.9165 -0.3025
   45CHL1   H4B 3263   0.214   3.954   6.686  0.0382 -0.2116 -0.7468
   45CHL1    C5 3264   0.250   3.929   6.900 -0.3821 -0.2667  0.5293
   45CHL1    C6 3265   0.129   3.981   6.929  0.5544 -0.1886  0.5197
   45CHL1    H6 3266   0.058   4.005   6.848  1.5700  1.2939  0.0212
   45CHL1    C7 3267   0.082   4.000   7.070  0.0689 -0.4604  0.1699
   45CHL1   H7A 3268   0.023   4.092   7.086 -3.6399 -2.0418 -2.7675
   45CHL1   H7B 3269   0.013   3.920   7.103 -1.0847  0.4202 -0.0729
   45CHL1    C8 3270   0.196   3.994   7.180  0.0010  0.8023  0.1106
   45CHL1    H8 3271   0.244   4.092   7.158 -0.6928  1.2319  0.4766
   45CHL1   C14 3272   0.145   3.973   7.316  0.5574 -0.0870 -0.1683
   45CHL1   H14 3273   0.088   3.879   7.324 -0.8221  0.8408  1.5143
   45CHL1   C15 3274   0.035   4.073   7.361  0.2534 -0.3903  0.3584
   45CHL1  H15A 3275   0.071   4.175   7.339 -1.5685  0.3171  0.4658
   45CHL1  H15B 3276  -0.064   4.056   7.314 -0.7234 -0.3091  2.2741
   45CHL1   C16 3277   0.024   4.054   7.513 -0.1074 -0.1282  0.0579
   45CHL1  H16A 3278   0.028   4.154   7.561 -1.8911  0.5972 -1.2370
   45CHL1  H16B 3279  -0.067   4.005   7.554 -1.7094 -0.6659 -3.7973
   45CHL1   C17 3280   0.156   3.970   7.544  1.0616  0.6571 -0.5141
   45CHL1   H17 3281   0.119   3.866   7.552 -1.0261  1.4826  2.8684
   45CHL1   C13 3282   0.247   3.975   7.419 -0.1621 -0.0625  0.2256
   45CHL1   C18 3283   0.325   4.108   7.411 -0.2988  0.1481 -0.4474
   45CHL1  H18A 3284   0.262   4.196   7.435 -0.1009  0.1480  0.0902
   45CHL1  H18B 3285   0.398   4.112   7.495 -0.8771 -0.5870  0.1055
   45CHL1  H18C 3286   0.382   4.130   7.318  2.9132 -3.8910  0.2502
   45CHL1   C12 3287   0.338   3.853   7.405  0.1802 -0.5634 -0.4126
   45CHL1  H12A 3288   0.431   3.852   7.466  0.9865 -0.0777 -1.6016
   45CHL1  H12B 3289   0.273   3.767   7.432 -1.6388 -0.2145 -3.3232
   45CHL1   C11 3290   0.395   3.840   7.264 -0.8321  0.2401  0.1188
   45CHL1  H11A 3291   0.489   3.899   7.268  0.2902 -1.4384 -0.4383
   45CHL1  H11B 3292   0.432   3.737   7.249  0.1373  0.6822 -0.6040
   45CHL1    C9 3293   0.295   3.873   7.148  0.1925 -0.5718 -0.3839
   45CHL1    H9 3294   0.229   3.784   7.143  2.0284 -1.9393 -1.7179
   45CHL1   C10 3295   0.356   3.881   7.003  0.0476 -0.5032 -1.2067
   45CHL1   C19 3296   0.479   3.979   7.004 -0.4910 -0.1237 -0.2081
   45CHL1  H19A 3297   0.563   3.931   7.058  0.5080  0.0271 -1.5579
   45CHL1  H19B 3298   0.513   4.000   6.900 -3.1983 -0.5020 -1.2517
   45CHL1  H19C 3299   0.452   4.077   7.048  1.1005 -0.1565  0.9122
   45CHL1    C1 3300   0.408   3.737   6.968  0.1071  0.0726 -0.4139
   45CHL1   H1A 3301   0.498   3.716   7.029  0.8015  1.1256 -1.0433
   45CHL1   H1B 3302   0.331   3.661   6.992  1.1990 -1.1412 -0.6195
   45CHL1    C2 3303   0.433   3.715   6.818 -0.3106  0.6751 -0.8888
   45CHL1   H2A 3304   0.430   3.604   6.816 -1.1014  0.6807 -0.5261
   45CHL1   H2B 3305   0.531   3.758   6.788 -0.7580  0.6522 -2.4634
   45CHL1   C20 3306   0.213   4.001   7.677 -0.1317 -0.7586  0.1428
   45CHL1   H20 3307   0.234   4.110   7.678  1.3392 -0.9367 -2.2212
   45CHL1   C21 3308   0.352   3.934   7.704  0.1010 -0.9835 -0.5332
   45CHL1  H21A 3309   0.380   3.970   7.805  0.8420  1.2501 -1.4693
   45CHL1  H21B 3310   0.440   3.974   7.650 -0.1135 -1.7437 -1.4814
   45CHL1  H21C 3311   0.352   3.823   7.702  1.1322 -1.1837  3.1918
   45CHL1   C22 3312   0.113   3.962   7.787  0.5149 -0.2214  0.5063
   45CHL1  H22A 3313   0.022   4.019   7.758  0.9721  0.6399  0.7362
   45CHL1  H22B 3314   0.085   3.855   7.788 -0.4841  0.0138 -0.5161
   45CHL1   C23 3315   0.143   4.013   7.927  0.5727  0.0107 -0.8034
   45CHL1  H23A 3316   0.225   3.949   7.963  0.8200  0.4063 -0.6578
   45CHL1  H23B 3317   0.179   4.119   7.928 -0.7650  0.5090  1.4697
   45CHL1   C24 3318   0.029   4.016   8.028  0.8602  1.1452 -0.0963
   45CHL1  H24A 3319  -0.050   4.092   8.008 -0.9214  0.7321  4.2395
   45CHL1  H24B 3320  -0.010   3.912   8.025 -2.9412  2.2374  2.5033
   45CHL1   C25 3321   0.072   4.043   8.173 -0.1648 -0.6320 -0.4404
   45CHL1   H25 3322   0.131   3.955   8.208  0.2987 -0.6435 -1.2338
   45CHL1   C26 3323   0.170   4.165   8.191 -0.1748  0.3288 -0.5713
   45CHL1  H26A 3324   0.132   4.258   8.144 -2.3963 -1.0832 -1.7486
   45CHL1  H26B 3325   0.165   4.185   8.300 -0.0020 -1.0241 -0.2940
   45CHL1  H26C 3326   0.278   4.147   8.169  0.2171  2.0751 -0.1743
   45CHL1   C27 3327  -0.044   4.064   8.271 -0.1041  0.0960  0.7493
   45CHL1  H27A 3328  -0.005   4.075   8.374 -0.5260 -1.3182  1.0698
   45CHL1  H27B 3329  -0.100   4.150   8.228  0.3884  0.5912  1.0861
   45CHL1  H27C 3330  -0.099   3.969   8.256  0.6171 -0.1293 -0.7115
   46CHL1    C3 3331   6.750   4.884   6.904 -0.3005 -0.8550 -0.1194
   46CHL1    H3 3332   6.645   4.910   6.882  0.0056  1.9521  1.2939
   46CHL1    O3 3333   6.814   4.840   6.783 -0.3624 -0.0992 -0.1220
   46CHL1   H3' 3334   6.910   4.849   6.791  0.2600 -4.0767 -1.1869
   46CHL1    C4 3335   6.826   5.004   6.959  0.2843 -0.1170 -0.1619
   46CHL1   H4A 3336   6.933   4.975   6.967  0.5213  0.2675 -1.5407
   46CHL1   H4B 3337   6.838   5.088   6.886 -0.0870  0.9306  0.9562
   46CHL1    C5 3338   6.775   5.067   7.085 -0.0944 -0.2836  0.4025
   46CHL1    C6 3339   6.738   5.193   7.091 -0.2953 -0.0009 -0.2956
   46CHL1    H6 3340   6.748   5.259   7.003 -0.6318 -1.9917 -1.9078
   46CHL1    C7 3341   6.686   5.245   7.223  0.1990  0.1278  0.3182
   46CHL1   H7A 3342   6.724   5.344   7.256  1.0234 -0.3239  0.7489
   46CHL1   H7B 3343   6.576   5.259   7.223  0.0921  0.0399  3.3704
   46CHL1    C8 3344   6.715   5.156   7.350  0.8079  0.1960 -0.5609
   46CHL1    H8 3345   6.823   5.171   7.371  0.4869 -0.8694  2.2579
   46CHL1   C14 3346   6.645   5.204   7.478  0.0436  0.5643 -0.0506
   46CHL1   H14 3347   6.534   5.197   7.468  0.0821  0.6082 -0.5167
   46CHL1   C15 3348   6.674   5.348   7.524 -0.4290 -0.0511 -0.3972
   46CHL1  H15A 3349   6.781   5.379   7.517 -0.8611  1.1778 -2.5497
   46CHL1  H15B 3350   6.609   5.405   7.454  0.0666 -0.3066 -1.0715
   46CHL1   C16 3351   6.612   5.349   7.671 -0.2879 -1.3055  0.7715
   46CHL1  H16A 3352   6.700   5.393   7.723  0.0589  0.0568 -0.8748
   46CHL1  H16B 3353   6.525   5.418   7.675  0.4725  0.1406 -3.3916
   46CHL1   C17 3354   6.570   5.199   7.709  0.0903 -0.3541 -0.3649
   46CHL1   H17 3355   6.465   5.183   7.678 -0.2999  0.4278  0.5258
   46CHL1   C13 3356   6.660   5.116   7.605  0.6387  0.3856 -0.3853
   46CHL1   C18 3357   6.813   5.130   7.641  0.4561  0.8162 -0.3044
   46CHL1  H18A 3358   6.831   5.052   7.717  0.8579  1.4833  0.2954
   46CHL1  H18B 3359   6.876   5.109   7.552  0.5795  0.7914 -0.2098
   46CHL1  H18C 3360   6.841   5.221   7.698 -1.3731  0.9420  0.4637
   46CHL1   C12 3361   6.619   4.970   7.572 -0.0619  0.1337  0.8735
   46CHL1  H12A 3362   6.656   4.897   7.647  0.0568  1.0450  1.7325
   46CHL1  H12B 3363   6.509   4.958   7.566  0.0621 -1.1371  0.9751
   46CHL1   C11 3364   6.698   4.918   7.441  0.0335  1.3036 -0.4503
   46CHL1  H11A 3365   6.802   4.910   7.479 -0.5939  0.7116  1.2268
   46CHL1  H11B 3366   6.665   4.813   7.429  1.1887  0.9594 -0.6775
   46CHL1    C9 3367   6.691   5.010   7.319  0.5655 -0.3516  0.4080
   46CHL1    H9 3368   6.583   5.010   7.291  0.0191  2.5359  2.0972
   46CHL1   C10 3369   6.768   4.964   7.200 -0.0263 -0.7231  0.4229
   46CHL1   C19 3370   6.913   4.935   7.235 -0.1221  0.4170 -0.7114
   46CHL1  H19A 3371   6.961   5.028   7.271  0.2871  0.7047 -1.9432
   46CHL1  H19B 3372   6.914   4.858   7.315 -1.1221  2.0369  0.9292
   46CHL1  H19C 3373   6.974   4.888   7.155  1.7432  1.8596 -0.2010
   46CHL1    C1 3374   6.696   4.830   7.148  0.2659  0.7337  0.1066
   46CHL1   H1A 3375   6.710   4.755   7.230  0.1639  1.4296  0.7713
   46CHL1   H1B 3376   6.588   4.852   7.135 -0.1766 -1.4899 -0.4699
   46CHL1    C2 3377   6.753   4.773   7.010  0.0928 -0.0500 -0.4689
   46CHL1   H2A 3378   6.682   4.693   6.979  0.0856 -0.0692 -0.4019
   46CHL1   H2B 3379   6.856   4.736   7.027  0.9316  2.1010 -0.6684
   46CHL1   C20 3380   6.586   5.178   7.863  0.2848  0.0339  0.1016
   46CHL1   H20 3381   6.689   5.190   7.901  1.0629 -1.8089 -1.2800
   46CHL1   C21 3382   6.529   5.034   7.897 -0.3286 -0.0713  0.2952
   46CHL1  H21A 3383   6.425   5.018   7.861 -0.1241  0.3993 -0.5161
   46CHL1  H21B 3384   6.530   5.014   8.006 -0.0139  2.5085  0.8398
   46CHL1  H21C 3385   6.594   4.956   7.853 -0.7769 -1.1824  1.5151
   46CHL1   C22 3386   6.506   5.286   7.949 -0.6479 -0.2255  0.2553
   46CHL1  H22A 3387   6.538   5.388   7.920 -1.9436 -0.4705 -2.2782
   46CHL1  H22B 3388   6.397   5.278   7.932 -0.5813 -0.0764 -0.2520
   46CHL1   C23 3389   6.534   5.275   8.104  1.1763 -0.0168  0.3640
   46CHL1  H23A 3390   6.525   5.172   8.143 -0.6583  0.1107  0.3391
   46CHL1  H23B 3391   6.642   5.301   8.115  0.7541  1.8768  0.4380
   46CHL1   C24 3392   6.449   5.371   8.184 -0.2544 -0.3174 -0.3032
   46CHL1  H24A 3393   6.339   5.355   8.186 -0.2272 -0.6163 -0.8641
   46CHL1  H24B 3394   6.481   5.361   8.290 -1.4591 -1.7783 -0.0465
   46CHL1   C25 3395   6.466   5.521   8.169  0.3051 -0.4038 -0.2201
   46CHL1   H25 3396   6.467   5.549   8.062 -0.8366  0.9752  0.0965
   46CHL1   C26 3397   6.338   5.575   8.236  0.3102 -0.5844 -0.8772
   46CHL1  H26A 3398   6.341   5.686   8.248  0.8840 -0.7764  1.1574
   46CHL1  H26B 3399   6.245   5.568   8.175 -1.5351  3.3061  1.1062
   46CHL1  H26C 3400   6.323   5.525   8.334 -0.5992  1.1688 -0.0830
   46CHL1   C27 3401   6.600   5.579   8.231 -0.2891 -0.2734 -0.4648
   46CHL1  H27A 3402   6.690   5.515   8.221 -1.3593 -1.9151  0.0397
   46CHL1  H27B 3403   6.623   5.684   8.202  1.2581 -0.1838  0.9556
   46CHL1  H27C 3404   6.591   5.578   8.342 -0.7277  1.7845 -0.4382
   47CHL1    C3 3405   5.934   5.199   6.461  0.0233 -0.7352  0.0299
   47CHL1    H3 3406   5.862   5.120   6.431 -1.5253  0.0293  1.5223
   47CHL1    O3 3407   6.032   5.231   6.372  0.3224 -0.6375 -0.2889
   47CHL1   H3' 3408   6.075   5.308   6.411  1.2960 -1.1212 -0.3783
   47CHL1    C4 3409   5.864   5.334   6.506 -0.5237 -0.5581  0.2773
   47CHL1   H4A 3410   5.947   5.400   6.539  0.2717 -0.5202 -1.6231
   47CHL1   H4B 3411   5.817   5.391   6.422 -2.2556 -0.0594  1.5402
   47CHL1    C5 3412   5.772   5.311   6.618  0.0094  0.5688  0.0784
   47CHL1    C6 3413   5.638   5.335   6.615 -1.3941  1.0775 -0.0624
   47CHL1    H6 3414   5.577   5.367   6.529 -2.1202 -0.2723 -0.0701
   47CHL1    C7 3415   5.545   5.320   6.735 -0.0029  0.0447  0.2678
   47CHL1   H7A 3416   5.488   5.414   6.749  1.1925  0.4364  3.5305
   47CHL1   H7B 3417   5.484   5.228   6.719  0.6885  0.0426 -3.0789
   47CHL1    C8 3418   5.619   5.294   6.867  0.2222  0.0713  0.9306
   47CHL1    H8 3419   5.661   5.385   6.915  0.3157  0.8150 -0.5067
   47CHL1   C14 3420   5.516   5.244   6.973 -0.5114 -0.0602  0.1010
   47CHL1   H14 3421   5.483   5.145   6.937 -0.3818 -1.0647  2.5609
   47CHL1   C15 3422   5.399   5.331   6.996  0.3824  0.2062 -0.3858
   47CHL1  H15A 3423   5.440   5.433   7.010  2.6476 -0.5287 -1.1838
   47CHL1  H15B 3424   5.317   5.332   6.921  1.0363 -0.4897 -1.1318
   47CHL1   C16 3425   5.335   5.282   7.126  0.7174 -0.0033  0.5197
   47CHL1  H16A 3426   5.319   5.359   7.204  1.0317 -0.0986  0.6799
   47CHL1  H16B 3427   5.238   5.229   7.115  0.9591 -0.4265  0.4067
   47CHL1   C17 3428   5.438   5.175   7.179  1.2967 -0.2372  0.5862
   47CHL1   H17 3429   5.406   5.078   7.136  0.8621  0.6816 -1.2611
   47CHL1   C13 3430   5.572   5.203   7.111  0.3763 -0.4608  0.0156
   47CHL1   C18 3431   5.645   5.312   7.187 -0.1957 -0.0850  0.1808
   47CHL1  H18A 3432   5.578   5.400   7.189 -1.3152 -0.7932 -2.3777
   47CHL1  H18B 3433   5.679   5.284   7.289 -0.1069  0.8982  0.4367
   47CHL1  H18C 3434   5.732   5.353   7.132 -0.3652  0.5494  0.3752
   47CHL1   C12 3435   5.667   5.082   7.083  0.0521  0.0263 -0.1838
   47CHL1  H12A 3436   5.720   5.057   7.178  1.3366 -1.5489 -1.2652
   47CHL1  H12B 3437   5.614   4.992   7.048  2.2943 -0.9038 -1.3753
   47CHL1   C11 3438   5.774   5.121   6.976  0.3787 -0.5430 -0.1550
   47CHL1  H11A 3439   5.841   5.193   7.027 -0.7746 -0.8765  1.9340
   47CHL1  H11B 3440   5.830   5.027   6.954  0.0301 -0.8811  0.3873
   47CHL1    C9 3441   5.725   5.190   6.848  0.0769  1.0469 -0.1272
   47CHL1    H9 3442   5.673   5.104   6.799  0.0051  2.1668 -2.1474
   47CHL1   C10 3443   5.830   5.241   6.746  0.1112  0.2349  0.3973
   47CHL1   C19 3444   5.919   5.351   6.816 -0.6461  0.0526  0.2934
   47CHL1  H19A 3445   5.864   5.438   6.859  2.2182  2.5065 -0.7106
   47CHL1  H19B 3446   5.982   5.298   6.890  0.2285 -1.1792 -1.2641
   47CHL1  H19C 3447   5.994   5.401   6.751  0.7512 -0.9718  1.0691
   47CHL1    C1 3448   5.920   5.121   6.700  0.2192 -0.2431  0.1323
   47CHL1   H1A 3449   5.976   5.099   6.793 -3.2615 -0.2314  2.4305
   47CHL1   H1B 3450   5.850   5.037   6.676 -3.0680  2.0844  0.9327
   47CHL1    C2 3451   6.015   5.150   6.582 -0.0177  0.4282 -0.3562
   47CHL1   H2A 3452   6.075   5.056   6.581  0.1546  0.4946  1.4247
   47CHL1   H2B 3453   6.084   5.230   6.615 -0.7702  1.0351 -0.2480
   47CHL1   C20 3454   5.431   5.141   7.330  0.6103  0.7691 -0.6444
   47CHL1   H20 3455   5.460   5.233   7.384 -0.9116 -0.1033  1.7901
   47CHL1   C21 3456   5.524   5.024   7.372  0.6742 -0.2489  0.3637
   47CHL1  H21A 3457   5.506   4.939   7.303  0.7199  1.2539 -1.5956
   47CHL1  H21B 3458   5.501   4.985   7.474 -1.1316 -0.9284 -0.2612
   47CHL1  H21C 3459   5.627   5.065   7.375  0.9652 -0.9890  0.7926
   47CHL1   C22 3460   5.287   5.109   7.375  0.5395  0.6651 -0.9195
   47CHL1  H22A 3461   5.224   5.199   7.357  0.0929  0.7614  0.9353
   47CHL1  H22B 3462   5.230   5.033   7.317 -2.9666  0.9143  1.8230
   47CHL1   C23 3463   5.275   5.095   7.524  0.4533 -0.7001  0.5621
   47CHL1  H23A 3464   5.322   5.002   7.563  0.4805 -0.2904  1.5348
   47CHL1  H23B 3465   5.316   5.176   7.589 -3.4019  0.6756  1.5587
   47CHL1   C24 3466   5.132   5.101   7.567  0.3041  0.3956  0.0360
   47CHL1  H24A 3467   5.101   5.205   7.593  1.5155  0.6857  0.3788
   47CHL1  H24B 3468   5.073   5.054   7.486 -0.6382 -2.3705  2.1771
   47CHL1   C25 3469   5.096   5.032   7.706 -0.7254 -0.0971  0.0494
   47CHL1   H25 3470   5.138   4.929   7.701 -1.3024 -0.4312  1.5779
   47CHL1   C26 3471   5.167   5.116   7.812 -0.1537  0.0250 -0.3872
   47CHL1  H26A 3472   5.120   5.216   7.799 -2.4664 -0.8754  0.4441
   47CHL1  H26B 3473   5.156   5.066   7.911 -0.7138  0.0910 -0.4133
   47CHL1  H26C 3474   5.275   5.122   7.787  0.1430 -1.9320  0.2410
   47CHL1   C27 3475   4.945   5.025   7.737  0.2195  0.0990 -0.3826
   47CHL1  H27A 3476   4.944   4.987   7.841  1.3001 -1.6315 -0.9726
   47CHL1  H27B 3477   4.907   5.129   7.724 -0.8507 -0.5205 -2.5020
   47CHL1  H27C 3478   4.900   4.948   7.671 -1.1347  0.5865 -0.0534
   48CHL1    C3 3479   3.703   2.055   6.428  0.5208  0.0621  0.3377
   48CHL1    H3 3480   3.774   1.984   6.474  0.2888 -1.0607 -0.9778
   48CHL1    O3 3481   3.719   2.051   6.288  0.4998  0.5094  0.1646
   48CHL1   H3' 3482   3.667   2.122   6.250 -1.2422 -0.6253  0.3083
   48CHL1    C4 3483   3.557   2.015   6.476  0.6539  0.2317 -0.4912
   48CHL1   H4A 3484   3.487   2.071   6.411  1.2626  0.8542 -0.6218
   48CHL1   H4B 3485   3.553   1.906   6.456 -0.8081 -0.0805  1.1995
   48CHL1    C5 3486   3.535   2.041   6.627  0.2257  0.1148 -0.4553
   48CHL1    C6 3487   3.483   1.949   6.715 -0.2818 -0.6510 -0.8568
   48CHL1    H6 3488   3.450   1.853   6.672 -1.8150 -0.6398  0.2214
   48CHL1    C7 3489   3.460   1.971   6.862 -0.1994 -0.4433 -0.5463
   48CHL1   H7A 3490   3.359   1.932   6.888 -0.9347  1.3614 -0.5430
   48CHL1   H7B 3491   3.530   1.911   6.924 -1.3937 -0.7233  0.5737
   48CHL1    C8 3492   3.474   2.123   6.907  0.4640 -0.2227 -0.4913
   48CHL1    H8 3493   3.379   2.176   6.881  0.9572  0.3884 -1.0753
   48CHL1   C14 3494   3.513   2.122   7.059  0.0479 -0.5570  0.3317
   48CHL1   H14 3495   3.615   2.081   7.044 -0.4585 -0.8306 -3.5305
   48CHL1   C15 3496   3.438   2.032   7.151 -0.1323  0.2594 -0.1653
   48CHL1  H15A 3497   3.328   2.042   7.138  0.0104  3.2580  0.2171
   48CHL1  H15B 3498   3.465   1.924   7.155 -2.0777 -0.2987 -0.9138
   48CHL1   C16 3499   3.468   2.086   7.291  0.0556  1.0180  0.2936
   48CHL1  H16A 3500   3.374   2.086   7.350 -1.2357 -3.6307 -1.3411
   48CHL1  H16B 3501   3.529   2.017   7.353  1.2247  0.2796 -1.5874
   48CHL1   C17 3502   3.538   2.220   7.277 -0.2119  0.1840 -0.4763
   48CHL1   H17 3503   3.647   2.205   7.295 -0.0788  1.4381 -0.1564
   48CHL1   C13 3504   3.526   2.258   7.123  0.3170  0.3786 -0.2243
   48CHL1   C18 3505   3.387   2.325   7.113 -0.2347 -0.5047 -0.7855
   48CHL1  H18A 3506   3.378   2.428   7.153 -0.5706 -0.5374 -0.7770
   48CHL1  H18B 3507   3.367   2.335   7.004 -0.4412 -1.4094 -0.8358
   48CHL1  H18C 3508   3.310   2.266   7.166  0.0062 -1.2035 -1.2012
   48CHL1   C12 3509   3.631   2.337   7.051 -0.3220 -0.5193 -0.3631
   48CHL1  H12A 3510   3.628   2.443   7.085  0.6049 -0.0000 -1.8012
   48CHL1  H12B 3511   3.729   2.293   7.081 -0.0692 -2.3141 -3.4063
   48CHL1   C11 3512   3.612   2.336   6.897  0.4932  0.4975 -0.0319
   48CHL1  H11A 3513   3.520   2.389   6.867 -0.9527 -1.4186  0.8074
   48CHL1  H11B 3514   3.696   2.391   6.849  2.0985 -1.7067  0.0773
   48CHL1    C9 3515   3.592   2.192   6.831 -0.1956  0.4982 -0.7504
   48CHL1    H9 3516   3.688   2.144   6.861  0.2890  0.5344 -2.1644
   48CHL1   C10 3517   3.582   2.180   6.679 -0.3722  0.1511 -0.3277
   48CHL1   C19 3518   3.486   2.289   6.631 -0.1857 -0.6958  0.5407
   48CHL1  H19A 3519   3.528   2.391   6.642 -0.9423 -0.1114 -1.4991
   48CHL1  H19B 3520   3.485   2.288   6.520  2.0307  1.1212  0.4293
   48CHL1  H19C 3521   3.383   2.271   6.669 -0.2327  0.7552  1.1864
   48CHL1    C1 3522   3.725   2.212   6.625  0.4853  0.3994  0.2323
   48CHL1   H1A 3523   3.763   2.312   6.652  0.4581  0.7512 -0.9592
   48CHL1   H1B 3524   3.798   2.145   6.676  0.6772  0.1837 -0.3134
   48CHL1    C2 3525   3.736   2.196   6.465  0.7770 -0.5923  0.0812
   48CHL1   H2A 3526   3.838   2.227   6.433  0.9978 -1.0238  0.3541
   48CHL1   H2B 3527   3.673   2.274   6.417  1.1845 -0.1984  0.1729
   48CHL1   C20 3528   3.498   2.327   7.382 -0.2679 -0.2549 -0.4048
   48CHL1   H20 3529   3.394   2.359   7.359 -0.8001 -1.4661  0.2247
   48CHL1   C21 3530   3.587   2.446   7.367  0.3672  0.2354  0.3311
   48CHL1  H21A 3531   3.691   2.417   7.338  0.3515  1.1966 -0.7589
   48CHL1  H21B 3532   3.581   2.506   7.460 -0.3716 -0.7021  0.9024
   48CHL1  H21C 3533   3.574   2.512   7.279  1.6001  0.1945  0.0954
   48CHL1   C22 3534   3.503   2.283   7.531 -0.0117  0.0672 -0.5023
   48CHL1  H22A 3535   3.456   2.183   7.535  1.8925 -1.0069 -2.9352
   48CHL1  H22B 3536   3.605   2.267   7.572 -0.8710 -1.5824  1.1645
   48CHL1   C23 3537   3.425   2.370   7.632  0.3750 -0.9007 -0.4160
   48CHL1  H23A 3538   3.482   2.463   7.650  2.9877 -2.0555 -2.0699
   48CHL1  H23B 3539   3.326   2.397   7.590  0.2013  0.3725  0.7650
   48CHL1   C24 3540   3.400   2.299   7.766 -0.0925  0.0620 -0.4211
   48CHL1  H24A 3541   3.337   2.210   7.745 -0.0312  0.0145 -0.4031
   48CHL1  H24B 3542   3.489   2.245   7.805  0.3260  0.5990 -0.6242
   48CHL1   C25 3543   3.345   2.383   7.881 -0.2556 -0.7382 -0.3579
   48CHL1   H25 3544   3.249   2.427   7.846  0.7864  0.1145 -2.3041
   48CHL1   C26 3545   3.309   2.306   8.012 -0.4323  0.0601 -0.4240
   48CHL1  H26A 3546   3.401   2.277   8.066 -0.2434  0.9925 -0.2140
   48CHL1  H26B 3547   3.236   2.367   8.070 -0.4860 -0.1949 -0.2272
   48CHL1  H26C 3548   3.259   2.214   7.975  0.2520  0.0435 -1.3555
   48CHL1   C27 3549   3.435   2.505   7.918 -0.4969  0.2433  0.0903
   48CHL1  H27A 3550   3.465   2.567   7.831  1.9902 -3.2003 -1.7305
   48CHL1  H27B 3551   3.381   2.569   7.992 -1.1701 -1.6421  1.3030
   48CHL1  H27C 3552   3.530   2.472   7.964 -0.0838  1.3121  0.0466
   49CHL1    C3 3553   1.519   1.980   6.869  0.0278  0.8859  0.6092
   49CHL1    H3 3554   1.515   1.878   6.913  0.6877  0.2175 -0.8249
   49CHL1    O3 3555   1.533   1.956   6.725 -0.3665  0.0438 -0.6764
   49CHL1   H3' 3556   1.553   2.037   6.678 -0.1991  0.1111 -0.4890
   49CHL1    C4 3557   1.387   2.047   6.881  0.6247  0.0363  0.2753
   49CHL1   H4A 3558   1.387   2.144   6.827  2.0240 -0.7762 -1.2842
   49CHL1   H4B 3559   1.307   1.987   6.833  1.3288 -2.3140  1.8727
   49CHL1    C5 3560   1.363   2.068   7.029 -1.2460 -0.7082 -0.0356
   49CHL1    C6 3561   1.263   2.018   7.099  0.1767 -0.2596  0.2360
   49CHL1    H6 3562   1.176   1.964   7.060 -1.1051  0.5126  1.9023
   49CHL1    C7 3563   1.230   2.023   7.249 -0.2147 -0.2309  0.5554
   49CHL1   H7A 3564   1.121   2.041   7.265 -0.0654  0.3450  0.9743
   49CHL1   H7B 3565   1.265   1.930   7.298  0.6570  0.2020  0.7783
   49CHL1    C8 3566   1.292   2.154   7.300 -0.1883 -0.4441  0.2034
   49CHL1    H8 3567   1.252   2.240   7.243  2.0061  0.4899 -0.0087
   49CHL1   C14 3568   1.277   2.177   7.450 -0.2641 -0.2320 -0.0774
   49CHL1   H14 3569   1.326   2.098   7.510 -1.9251 -0.1701  1.4434
   49CHL1   C15 3570   1.143   2.190   7.515  0.4508 -0.5352 -0.1597
   49CHL1  H15A 3571   1.084   2.269   7.465  1.2006  1.8621  2.4876
   49CHL1  H15B 3572   1.075   2.102   7.516 -0.8544  0.4568 -0.1613
   49CHL1   C16 3573   1.160   2.244   7.654 -0.1196 -0.3248 -0.3538
   49CHL1  H16A 3574   1.094   2.333   7.665 -0.5962 -0.6561 -0.5126
   49CHL1  H16B 3575   1.134   2.178   7.739 -0.1019 -0.4278 -0.4288
   49CHL1   C17 3576   1.319   2.284   7.653  0.1067 -0.5154  0.2173
   49CHL1   H17 3577   1.376   2.202   7.703  1.7079  1.0026  1.0122
   49CHL1   C13 3578   1.360   2.293   7.507  0.6898 -0.4566  0.2962
   49CHL1   C18 3579   1.310   2.430   7.457 -0.0382 -0.6123  0.1945
   49CHL1  H18A 3580   1.301   2.433   7.347 -0.6015 -1.1478  0.2210
   49CHL1  H18B 3581   1.215   2.461   7.505  0.1613 -1.8775  1.5037
   49CHL1  H18C 3582   1.392   2.502   7.480  0.5065 -1.4638  1.0107
   49CHL1   C12 3583   1.506   2.266   7.476 -0.3654 -0.0736  0.7754
   49CHL1  H12A 3584   1.567   2.344   7.526 -3.0647  3.6721 -1.2584
   49CHL1  H12B 3585   1.530   2.172   7.530  0.3519 -0.1966  0.2669
   49CHL1   C11 3586   1.528   2.268   7.328  0.2183  0.9224 -0.0405
   49CHL1  H11A 3587   1.511   2.374   7.298  0.8953  0.8408 -0.7594
   49CHL1  H11B 3588   1.635   2.248   7.303 -0.1391 -1.3968  0.0714
   49CHL1    C9 3589   1.446   2.154   7.260 -0.3777 -0.3237  0.0891
   49CHL1    H9 3590   1.486   2.057   7.295 -1.1191 -0.1664  1.4123
   49CHL1   C10 3591   1.477   2.154   7.100 -0.2822  0.4417  0.0282
   49CHL1   C19 3592   1.460   2.304   7.054  0.0613  0.4332  1.0058
   49CHL1  H19A 3593   1.473   2.315   6.945 -0.8345  1.7568  1.0071
   49CHL1  H19B 3594   1.364   2.350   7.086  0.5929  1.1875  1.5545
   49CHL1  H19C 3595   1.548   2.354   7.100 -0.0389  1.8061 -0.2431
   49CHL1    C1 3596   1.623   2.099   7.065  0.0678  0.4187  0.3468
   49CHL1   H1A 3597   1.697   2.176   7.094  1.0037 -0.6038  0.7256
   49CHL1   H1B 3598   1.660   2.015   7.128  0.5168  0.5523  0.2678
   49CHL1    C2 3599   1.631   2.065   6.915  0.6889 -0.5040  0.1423
   49CHL1   H2A 3600   1.726   2.019   6.880  0.3759  0.6783 -2.5088
   49CHL1   H2B 3601   1.616   2.165   6.868 -3.8801 -1.0953 -0.1117
   49CHL1   C20 3602   1.347   2.403   7.749 -0.2217  0.5531  0.1579
   49CHL1   H20 3603   1.295   2.496   7.715  1.9131  2.3502  1.5469
   49CHL1   C21 3604   1.494   2.437   7.748 -0.2186  0.3059  0.8772
   49CHL1  H21A 3605   1.554   2.343   7.749 -0.6093  0.0603  1.2075
   49CHL1  H21B 3606   1.513   2.512   7.828 -2.6275  3.3385 -1.1462
   49CHL1  H21C 3607   1.520   2.490   7.654 -1.8621  0.2432  0.3553
   49CHL1   C22 3608   1.300   2.374   7.893 -0.2719 -0.0196 -0.5864
   49CHL1  H22A 3609   1.321   2.471   7.944 -0.1102 -0.5172  0.3252
   49CHL1  H22B 3610   1.191   2.354   7.903 -0.3567 -0.5138 -2.2622
   49CHL1   C23 3611   1.364   2.260   7.971  0.0218 -0.1199  0.2413
   49CHL1  H23A 3612   1.322   2.168   7.927 -1.8541  0.8103  0.0041
   49CHL1  H23B 3613   1.470   2.271   7.940  0.2741 -0.0088  1.1091
   49CHL1   C24 3614   1.351   2.258   8.118  0.1754 -0.4739  0.8586
   49CHL1  H24A 3615   1.383   2.356   8.158 -2.1411  1.0639 -0.7816
   49CHL1  H24B 3616   1.243   2.257   8.145 -0.0997  0.4815 -0.1514
   49CHL1   C25 3617   1.427   2.145   8.194  0.1919 -0.3194 -0.0737
   49CHL1   H25 3618   1.533   2.144   8.162  0.0208 -0.3056 -0.6608
   49CHL1   C26 3619   1.400   2.165   8.345  0.2419  0.4989  0.0223
   49CHL1  H26A 3620   1.453   2.252   8.388  0.4653  0.6633 -0.5766
   49CHL1  H26B 3621   1.291   2.167   8.363  0.2516  1.0714  0.0368
   49CHL1  H26C 3622   1.450   2.083   8.402 -0.3108  1.4041  1.8861
   49CHL1   C27 3623   1.364   2.010   8.153  0.5061  0.3947  0.9820
   49CHL1  H27A 3624   1.253   2.016   8.161  0.0384 -1.0387 -2.4498
   49CHL1  H27B 3625   1.412   1.969   8.062 -0.7126  2.2179 -0.5673
   49CHL1  H27C 3626   1.394   1.934   8.227 -1.4429 -3.3857 -1.7610
   50CHL1    C3 3627   2.601   2.264   6.770  0.4708  0.2689  0.3946
   50CHL1    H3 3628   2.500   2.218   6.771  0.7439 -0.3457  2.0869
   50CHL1    O3 3629   2.660   2.254   6.642  0.2552  0.4039 -0.0939
   50CHL1   H3' 3630   2.707   2.171   6.632 -0.1819  0.3645 -2.4913
   50CHL1    C4 3631   2.610   2.408   6.803 -0.6745  0.2808  0.1725
   50CHL1   H4A 3632   2.714   2.444   6.790  0.4789 -1.9379  2.3577
   50CHL1   H4B 3633   2.553   2.467   6.728  1.7886  1.3438 -0.9909
   50CHL1    C5 3634   2.566   2.437   6.945  0.2840  0.1209  0.0628
   50CHL1    C6 3635   2.467   2.519   6.974 -0.2484 -0.3540 -0.2834
   50CHL1    H6 3636   2.410   2.558   6.889 -1.4975 -0.6722  0.3795
   50CHL1    C7 3637   2.413   2.555   7.111  0.9764 -1.3675 -0.3472
   50CHL1   H7A 3638   2.420   2.666   7.116 -2.8275 -0.8469 -2.6417
   50CHL1   H7B 3639   2.305   2.532   7.115  0.0290  2.3273 -0.8817
   50CHL1    C8 3640   2.491   2.489   7.228 -0.5591  0.6881  0.1468
   50CHL1    H8 3641   2.577   2.557   7.248 -1.5444  1.9288  0.2661
   50CHL1   C14 3642   2.406   2.472   7.355 -0.6277 -0.2128 -0.1142
   50CHL1   H14 3643   2.320   2.405   7.330  0.5143 -0.9735 -2.2970
   50CHL1   C15 3644   2.338   2.607   7.405 -0.8547 -0.4503  0.4970
   50CHL1  H15A 3645   2.411   2.690   7.399  0.8331 -1.9353 -1.0732
   50CHL1  H15B 3646   2.254   2.627   7.336 -0.3670 -2.9975 -0.9778
   50CHL1   C16 3647   2.304   2.587   7.550 -0.4063 -0.2346 -0.9174
   50CHL1  H16A 3648   2.344   2.670   7.612 -0.8296 -0.5519 -0.2166
   50CHL1  H16B 3649   2.193   2.585   7.555 -0.3469 -2.3126  0.8879
   50CHL1   C17 3650   2.369   2.445   7.582  0.6688  0.2644 -0.1841
   50CHL1   H17 3651   2.277   2.384   7.570 -0.2546  1.5776  0.0013
   50CHL1   C13 3652   2.479   2.414   7.472  0.2739 -0.2527  0.5499
   50CHL1   C18 3653   2.603   2.495   7.506  0.6055  0.2667 -0.3956
   50CHL1  H18A 3654   2.669   2.489   7.416 -0.2618  0.6615 -1.0795
   50CHL1  H18B 3655   2.579   2.600   7.533  0.0413  0.1762 -0.5258
   50CHL1  H18C 3656   2.662   2.452   7.590  1.3191 -0.2657 -1.1502
   50CHL1   C12 3657   2.508   2.274   7.427  0.0935 -0.6388 -0.1672
   50CHL1  H12A 3658   2.562   2.227   7.513 -2.6972  0.0485  2.1402
   50CHL1  H12B 3659   2.415   2.217   7.406  0.7859 -1.9206  0.0785
   50CHL1   C11 3660   2.598   2.265   7.299 -0.8006 -0.6943 -0.0985
   50CHL1  H11A 3661   2.695   2.307   7.334 -0.5974 -1.2334 -0.0108
   50CHL1  H11B 3662   2.623   2.159   7.276  2.8271 -0.1380  0.7271
   50CHL1    C9 3663   2.542   2.352   7.185 -0.1829 -0.0541 -0.7531
   50CHL1    H9 3664   2.452   2.292   7.159 -0.1764  0.7693 -2.8745
   50CHL1   C10 3665   2.626   2.354   7.055  0.3345  1.1935 -0.1382
   50CHL1   C19 3666   2.763   2.412   7.092  0.9190 -0.2818  0.0088
   50CHL1  H19A 3667   2.822   2.356   7.168  2.2738  0.9209 -0.1098
   50CHL1  H19B 3668   2.830   2.419   7.004  0.1168  1.3867 -0.5011
   50CHL1  H19C 3669   2.750   2.511   7.141 -0.1857 -0.5023  0.1921
   50CHL1    C1 3670   2.635   2.197   7.011  0.4870 -0.5033 -0.5526
   50CHL1   H1A 3671   2.688   2.137   7.088  0.5134 -0.5999 -0.6438
   50CHL1   H1B 3672   2.534   2.152   7.002  1.0751 -1.6677 -1.8500
   50CHL1    C2 3673   2.688   2.178   6.867  0.1124 -0.3396 -0.0474
   50CHL1   H2A 3674   2.671   2.073   6.834 -0.0028 -0.3611  0.0779
   50CHL1   H2B 3675   2.794   2.209   6.862  0.3571 -1.3351 -1.2403
   50CHL1   C20 3676   2.403   2.429   7.729  0.6972  0.4412  0.3459
   50CHL1   H20 3677   2.508   2.448   7.761  0.6787 -0.7913  1.2114
   50CHL1   C21 3678   2.388   2.268   7.766 -0.0088 -0.9162  0.3844
   50CHL1  H21A 3679   2.424   2.256   7.870  1.3809 -1.0275 -0.1011
   50CHL1  H21B 3680   2.458   2.209   7.704  1.1578 -0.1459  0.9383
   50CHL1  H21C 3681   2.286   2.224   7.756 -0.3589 -0.0620  0.0313
   50CHL1   C22 3682   2.308   2.510   7.825 -1.0255 -0.1661 -0.6375
   50CHL1  H22A 3683   2.325   2.618   7.803 -0.3188 -0.7517 -3.2305
   50CHL1  H22B 3684   2.201   2.481   7.816 -0.8092 -1.6863  1.1062
   50CHL1   C23 3685   2.345   2.485   7.977  0.5078 -0.0823  0.2974
   50CHL1  H23A 3686   2.301   2.392   8.020  1.8317 -0.4295  0.9676
   50CHL1  H23B 3687   2.455   2.469   7.975  0.6125  0.6575 -0.0656
   50CHL1   C24 3688   2.321   2.605   8.067  0.4213 -0.2629 -0.1628
   50CHL1  H24A 3689   2.335   2.703   8.016 -3.2669  0.7970  0.5441
   50CHL1  H24B 3690   2.216   2.604   8.105  1.2483  0.3355  2.3303
   50CHL1   C25 3691   2.409   2.591   8.193 -0.0350  0.4046 -0.0689
   50CHL1   H25 3692   2.517   2.584   8.170 -0.0288 -1.8283  0.4234
   50CHL1   C26 3693   2.386   2.704   8.299  0.2142 -0.5284 -0.9269
   50CHL1  H26A 3694   2.280   2.707   8.331  0.3897 -0.3867 -0.3587
   50CHL1  H26B 3695   2.439   2.686   8.395 -2.4417 -2.2203  0.3601
   50CHL1  H26C 3696   2.410   2.806   8.262  0.5986  1.1660  3.4378
   50CHL1   C27 3697   2.383   2.461   8.266 -1.0353 -0.0899  0.8063
   50CHL1  H27A 3698   2.294   2.464   8.332 -1.7509 -1.9324 -0.0150
   50CHL1  H27B 3699   2.379   2.370   8.202 -0.3438  1.1825 -1.1365
   50CHL1  H27C 3700   2.472   2.461   8.332  0.0704 -1.9639 -0.6025
   51CHL1    C3 3701   2.466   1.862   6.849  0.1416  0.7559  0.2143
   51CHL1    H3 3702   2.487   1.970   6.855  0.8052  0.5753  1.2716
   51CHL1    O3 3703   2.478   1.839   6.709  0.4780 -0.5026  0.2209
   51CHL1   H3' 3704   2.471   1.744   6.697  0.2730 -0.6587  1.4648
   51CHL1    C4 3705   2.561   1.771   6.934  0.0148 -0.8008  0.6534
   51CHL1   H4A 3706   2.542   1.669   6.893  0.3969 -0.8208  0.5214
   51CHL1   H4B 3707   2.665   1.799   6.907 -0.7563  2.2844  0.5460
   51CHL1    C5 3708   2.539   1.769   7.083 -0.1211 -0.6823 -0.4733
   51CHL1    C6 3709   2.647   1.792   7.169  0.7478  0.0643 -0.4551
   51CHL1    H6 3710   2.748   1.798   7.124  1.2806 -2.5715  0.1889
   51CHL1    C7 3711   2.643   1.807   7.314  0.3900 -0.0209 -0.8802
   51CHL1   H7A 3712   2.720   1.743   7.363  1.4387  0.9235 -1.2397
   51CHL1   H7B 3713   2.674   1.911   7.341 -0.0179  0.0214 -0.5683
   51CHL1    C8 3714   2.499   1.783   7.364 -0.6045  0.6413  0.1989
   51CHL1    H8 3715   2.497   1.672   7.374  1.0804  0.4578 -1.0010
   51CHL1   C14 3716   2.488   1.851   7.496 -0.7425 -0.2671  0.6082
   51CHL1   H14 3717   2.499   1.961   7.483  0.3427  0.1578  4.0483
   51CHL1   C15 3718   2.602   1.824   7.600 -0.2426  0.0617  0.8526
   51CHL1  H15A 3719   2.617   1.715   7.590  2.0986  0.2622  1.5230
   51CHL1  H15B 3720   2.700   1.871   7.578  0.1520 -0.7122  0.9426
   51CHL1   C16 3721   2.552   1.865   7.737 -0.2085 -0.0467 -0.2069
   51CHL1  H16A 3722   2.541   1.766   7.787  1.5632  0.2989  0.9461
   51CHL1  H16B 3723   2.603   1.952   7.784  0.1759 -1.7138  2.6891
   51CHL1   C17 3724   2.402   1.905   7.712  0.1316  0.5137 -0.4929
   51CHL1   H17 3725   2.398   2.012   7.681  0.3518  0.3323 -1.1555
   51CHL1   C13 3726   2.362   1.839   7.581  0.0987  0.8176 -0.1076
   51CHL1   C18 3727   2.337   1.689   7.611  0.2633 -0.6412 -0.0871
   51CHL1  H18A 3728   2.239   1.675   7.663  0.1288  1.0359  0.1867
   51CHL1  H18B 3729   2.337   1.640   7.512 -2.6542  0.9340 -0.9946
   51CHL1  H18C 3730   2.420   1.645   7.669 -0.7284  0.3734  2.2275
   51CHL1   C12 3731   2.252   1.908   7.489 -0.2668 -0.8378  0.4660
   51CHL1  H12A 3732   2.150   1.885   7.525 -0.7348 -1.0699 -0.9547
   51CHL1  H12B 3733   2.261   2.019   7.485 -0.7819 -0.8354 -1.6578
   51CHL1   C11 3734   2.251   1.856   7.345  0.3185 -0.5083 -0.1879
   51CHL1  H11A 3735   2.217   1.751   7.358 -2.7677  0.2107 -1.5634
   51CHL1  H11B 3736   2.175   1.909   7.284  0.7324  2.8913  1.9994
   51CHL1    C9 3737   2.388   1.844   7.273  0.1654 -0.4120 -0.7836
   51CHL1    H9 3738   2.404   1.952   7.254 -4.9386  0.4344 -1.6849
   51CHL1   C10 3739   2.398   1.781   7.133  0.1315  0.2138  0.1364
   51CHL1   C19 3740   2.350   1.631   7.139 -0.8157 -0.6303 -0.3086
   51CHL1  H19A 3741   2.244   1.619   7.169 -1.2955  0.0626 -1.6765
   51CHL1  H19B 3742   2.357   1.594   7.035  1.3179  0.9915 -0.8105
   51CHL1  H19C 3743   2.420   1.571   7.202  0.4352  2.0610  1.0398
   51CHL1    C1 3744   2.309   1.865   7.041  0.5856  0.2434  0.6160
   51CHL1   H1A 3745   2.204   1.839   7.068  0.6184  0.5195  1.0227
   51CHL1   H1B 3746   2.311   1.976   7.055 -1.2587  0.6359 -1.6168
   51CHL1    C2 3747   2.326   1.835   6.894  0.9187  0.4075  0.3931
   51CHL1   H2A 3748   2.261   1.909   6.842  2.7532  0.8980 -1.3569
   51CHL1   H2B 3749   2.295   1.731   6.870 -0.0700  0.5416  1.0554
   51CHL1   C20 3750   2.303   1.888   7.832 -0.2292 -0.0915  0.8379
   51CHL1   H20 3751   2.311   1.787   7.876 -1.5332  0.7754  3.2774
   51CHL1   C21 3752   2.161   1.928   7.790 -0.0671  0.7149 -0.4792
   51CHL1  H21A 3753   2.165   2.027   7.740 -0.3471  0.5587 -0.8184
   51CHL1  H21B 3754   2.099   1.916   7.882 -0.1638  0.3685 -0.5868
   51CHL1  H21C 3755   2.119   1.856   7.716  0.1154 -0.7428  0.7852
   51CHL1   C22 3756   2.340   1.984   7.946  0.5374  0.3342 -0.1315
   51CHL1  H22A 3757   2.450   1.998   7.945  0.7090 -0.8789 -0.0989
   51CHL1  H22B 3758   2.294   2.083   7.924 -0.6573 -0.2264 -0.2497
   51CHL1   C23 3759   2.311   1.921   8.086  0.1335  0.8127 -0.1516
   51CHL1  H23A 3760   2.211   1.872   8.081  0.0572  0.7901  1.2060
   51CHL1  H23B 3761   2.390   1.844   8.099 -0.4073  0.6696  3.4510
   51CHL1   C24 3762   2.334   2.032   8.192 -0.3467 -0.2082  0.5842
   51CHL1  H24A 3763   2.439   2.067   8.179 -0.3538 -0.1269  0.7571
   51CHL1  H24B 3764   2.261   2.114   8.175  0.6066  0.6934  0.7726
   51CHL1   C25 3765   2.312   1.992   8.344  0.4923  0.2094 -0.2098
   51CHL1   H25 3766   2.381   1.913   8.381 -1.7704 -1.6977  0.2006
   51CHL1   C26 3767   2.334   2.116   8.429  0.1053 -0.4598 -0.9779
   51CHL1  H26A 3768   2.338   2.089   8.536 -0.4300  0.9800 -0.5761
   51CHL1  H26B 3769   2.434   2.162   8.411  0.6185 -1.3352 -0.4067
   51CHL1  H26C 3770   2.256   2.192   8.405 -1.2348 -1.0214  1.3576
   51CHL1   C27 3771   2.167   1.952   8.360 -0.2795  0.0539 -0.1514
   51CHL1  H27A 3772   2.159   1.940   8.470 -0.9327 -2.8005 -0.4340
   51CHL1  H27B 3773   2.092   2.027   8.325  0.5078  1.4057  0.9670
   51CHL1  H27C 3774   2.151   1.854   8.309  1.3139 -0.5758  0.4883
   52CHL1    C3 3775   5.842   2.242   6.877 -0.0584  0.5025 -0.0379
   52CHL1    H3 3776   5.873   2.136   6.887  0.6718  0.7454  0.2843
   52CHL1    O3 3777   5.856   2.277   6.738 -0.5471 -0.2752 -0.4365
   52CHL1   H3' 3778   5.884   2.369   6.736  2.0231 -0.9923 -0.5920
   52CHL1    C4 3779   5.691   2.262   6.923 -0.0496 -0.1280 -0.5976
   52CHL1   H4A 3780   5.670   2.371   6.918 -0.0029  0.0069  1.3742
   52CHL1   H4B 3781   5.633   2.205   6.848 -0.8170  0.2008 -0.2620
   52CHL1    C5 3782   5.678   2.208   7.065 -0.1628 -0.1613 -0.0772
   52CHL1    C6 3783   5.594   2.108   7.104 -0.0042 -0.1945  0.4904
   52CHL1    H6 3784   5.537   2.062   7.022  0.9118 -0.1256 -0.2076
   52CHL1    C7 3785   5.571   2.063   7.244  0.1413 -0.1604 -0.3477
   52CHL1   H7A 3786   5.461   2.075   7.254  0.2840  1.5148 -0.3974
   52CHL1   H7B 3787   5.599   1.956   7.253  2.5776  0.5699  1.4887
   52CHL1    C8 3788   5.647   2.159   7.342 -0.1146 -1.0963 -0.1306
   52CHL1    H8 3789   5.584   2.249   7.352 -0.2390 -0.8183 -2.6285
   52CHL1   C14 3790   5.657   2.085   7.474  0.3220 -0.2351  0.1080
   52CHL1   H14 3791   5.708   1.992   7.442 -2.5340 -2.4099  1.5263
   52CHL1   C15 3792   5.526   2.012   7.535 -0.3121 -0.5565  0.0687
   52CHL1  H15A 3793   5.453   2.096   7.540  1.9042  1.4523  0.4911
   52CHL1  H15B 3794   5.494   1.917   7.489 -2.3126 -0.5913  1.3697
   52CHL1   C16 3795   5.567   1.989   7.686  0.7830 -0.3113  0.2517
   52CHL1  H16A 3796   5.488   2.023   7.755  1.7653  1.5951  0.4947
   52CHL1  H16B 3797   5.573   1.878   7.689  0.8450 -0.3553 -1.0238
   52CHL1   C17 3798   5.701   2.057   7.709 -0.1416  0.3626 -0.0685
   52CHL1   H17 3799   5.765   1.970   7.684 -2.3503 -0.6371 -2.7755
   52CHL1   C13 3800   5.718   2.157   7.597  0.4191 -1.0978  0.0466
   52CHL1   C18 3801   5.636   2.280   7.634 -0.5628  0.1367 -0.9804
   52CHL1  H18A 3802   5.664   2.336   7.726 -2.0426 -2.4759  1.1713
   52CHL1  H18B 3803   5.627   2.354   7.551  1.2656 -1.4650 -2.7110
   52CHL1  H18C 3804   5.534   2.247   7.660 -0.4844  1.5120  1.3627
   52CHL1   C12 3805   5.862   2.194   7.547 -0.2721  0.3381 -0.1554
   52CHL1  H12A 3806   5.907   2.269   7.615  0.8446  1.1433 -1.7305
   52CHL1  H12B 3807   5.931   2.107   7.543 -1.9782 -1.0553 -0.6979
   52CHL1   C11 3808   5.874   2.267   7.407  0.1215  0.3544 -0.4507
   52CHL1  H11A 3809   5.849   2.374   7.423  1.4410  0.8303 -1.4170
   52CHL1  H11B 3810   5.981   2.259   7.376 -0.0324  0.2811 -0.9730
   52CHL1    C9 3811   5.786   2.199   7.296 -0.1547 -0.5584  0.7352
   52CHL1    H9 3812   5.843   2.108   7.270 -0.2187  0.1358 -2.2310
   52CHL1   C10 3813   5.776   2.281   7.156 -0.1401 -0.9756 -0.7478
   52CHL1   C19 3814   5.735   2.427   7.186  0.3367 -0.6728 -0.2036
   52CHL1  H19A 3815   5.649   2.431   7.256 -2.2898 -3.0449 -3.0310
   52CHL1  H19B 3816   5.817   2.473   7.246 -0.3089  1.6205 -0.9859
   52CHL1  H19C 3817   5.716   2.485   7.093  2.2795  0.0350 -0.1988
   52CHL1    C1 3818   5.921   2.288   7.103 -0.5144  0.3809  0.1210
   52CHL1   H1A 3819   5.974   2.362   7.166 -1.8032 -0.5256  2.3980
   52CHL1   H1B 3820   5.968   2.190   7.126  0.5367  1.3386  2.4238
   52CHL1    C2 3821   5.933   2.330   6.956 -0.1857 -0.0920  0.0738
   52CHL1   H2A 3822   6.039   2.320   6.924 -0.2319  1.3017 -0.5860
   52CHL1   H2B 3823   5.900   2.434   6.939  0.3825 -0.1397 -1.5570
   52CHL1   C20 3824   5.734   2.104   7.855 -0.0242  0.4777  0.0501
   52CHL1   H20 3825   5.789   2.200   7.849  1.6476 -0.3924  0.8520
   52CHL1   C21 3826   5.815   1.992   7.915 -0.4702  0.3606  0.7051
   52CHL1  H21A 3827   5.760   1.895   7.918  1.7024 -1.0908 -2.0575
   52CHL1  H21B 3828   5.864   2.019   8.011 -0.3117  0.6336  0.5484
   52CHL1  H21C 3829   5.899   1.968   7.847 -1.2551  1.5467 -0.7233
   52CHL1   C22 3830   5.610   2.132   7.944 -0.1455  0.0819 -0.1928
   52CHL1  H22A 3831   5.547   2.209   7.896  0.1074 -0.4471 -1.4233
   52CHL1  H22B 3832   5.547   2.042   7.959 -1.4177  0.6535 -1.8312
   52CHL1   C23 3833   5.649   2.183   8.077  0.6195 -0.6577 -0.4395
   52CHL1  H23A 3834   5.730   2.123   8.124  0.5139  1.4649  2.7708
   52CHL1  H23B 3835   5.701   2.279   8.059  0.6818 -0.1634  2.0320
   52CHL1   C24 3836   5.535   2.191   8.184  0.3485  0.6520  0.0489
   52CHL1  H24A 3837   5.452   2.256   8.148  0.1209  0.8338  0.8958
   52CHL1  H24B 3838   5.500   2.086   8.196  1.3614  0.2102 -0.7243
   52CHL1   C25 3839   5.574   2.244   8.321 -0.5158  0.6298 -0.2744
   52CHL1   H25 3840   5.618   2.344   8.301  1.2960  0.1074  0.8887
   52CHL1   C26 3841   5.446   2.245   8.408 -0.1792  0.4177  0.5865
   52CHL1  H26A 3842   5.460   2.290   8.509 -0.6567 -0.5170  1.0827
   52CHL1  H26B 3843   5.367   2.299   8.351  1.0282  1.7517  0.0976
   52CHL1  H26C 3844   5.407   2.143   8.430 -1.9479  0.4643 -1.9548
   52CHL1   C27 3845   5.678   2.164   8.401 -0.5602 -0.0053 -0.6219
   52CHL1  H27A 3846   5.669   2.180   8.510  2.6156  1.9351 -0.5146
   52CHL1  H27B 3847   5.668   2.055   8.381 -2.2424 -0.0107  0.0628
   52CHL1  H27C 3848   5.778   2.198   8.367 -1.7161  1.7480 -2.5544
   53CHL1    C3 3849   0.022   0.342   7.005 -0.1018  0.3599 -0.2347
   53CHL1    H3 3850  -0.081   0.301   7.010  0.2018 -0.5940 -1.4980
   53CHL1    O3 3851   0.049   0.395   6.875  0.5540 -0.4309  0.0309
   53CHL1   H3' 3852   0.134   0.437   6.890  1.1921 -1.3951 -0.7536
   53CHL1    C4 3853   0.028   0.455   7.102 -0.3680  0.4050 -0.2444
   53CHL1   H4A 3854   0.122   0.504   7.071  0.3938 -1.1342 -0.4230
   53CHL1   H4B 3855  -0.049   0.533   7.079 -0.5954 -0.2926 -1.9794
   53CHL1    C5 3856   0.029   0.411   7.249 -0.3700 -0.1377  0.3391
   53CHL1    C6 3857  -0.056   0.469   7.336 -0.1406 -0.1104  0.2611
   53CHL1    H6 3858  -0.136   0.534   7.297 -2.0834 -0.7052  3.0107
   53CHL1    C7 3859  -0.069   0.423   7.477  0.0823 -0.4754  0.3975
   53CHL1   H7A 3860  -0.069   0.507   7.549  1.0752 -0.8710  0.8848
   53CHL1   H7B 3861  -0.165   0.369   7.493 -1.5449  1.7148 -1.3895
   53CHL1    C8 3862   0.044   0.337   7.531  0.2933  0.2100  0.3451
   53CHL1    H8 3863   0.132   0.402   7.551 -1.2259  2.3974  0.2198
   53CHL1   C14 3864  -0.005   0.264   7.659  0.9888  0.3040 -0.7068
   53CHL1   H14 3865  -0.092   0.199   7.637  1.7500 -2.7178  3.9906
   53CHL1   C15 3866  -0.063   0.349   7.774  0.0790  0.3973 -1.2055
   53CHL1  H15A 3867   0.013   0.428   7.798 -2.2351  2.4433 -0.1300
   53CHL1  H15B 3868  -0.164   0.394   7.768 -0.3778 -0.0793  1.5315
   53CHL1   C16 3869  -0.047   0.254   7.897 -0.1577  0.3745 -0.0769
   53CHL1  H16A 3870   0.004   0.311   7.979 -1.3967 -0.9479  1.6757
   53CHL1  H16B 3871  -0.146   0.212   7.926  0.9022 -2.3247 -0.0871
   53CHL1   C17 3872   0.047   0.134   7.850 -0.0563 -0.2554 -0.4017
   53CHL1   H17 3873  -0.026   0.055   7.820  1.7594 -1.6407 -1.3678
   53CHL1   C13 3874   0.107   0.181   7.711  0.2071  1.0368 -1.6212
   53CHL1   C18 3875   0.232   0.269   7.752  0.6899  0.0981  0.1522
   53CHL1  H18A 3876   0.273   0.324   7.664  3.9792 -2.6002 -0.2185
   53CHL1  H18B 3877   0.205   0.337   7.836  0.8908  0.5107 -0.1121
   53CHL1  H18C 3878   0.313   0.195   7.770  1.2444  0.4780 -0.7333
   53CHL1   C12 3879   0.130   0.064   7.605  0.2227  0.7258 -0.7708
   53CHL1  H12A 3880   0.195  -0.016   7.644 -0.3598  1.2944  1.5152
   53CHL1  H12B 3881   0.030   0.020   7.584 -0.3359  1.1047  0.9463
   53CHL1   C11 3882   0.185   0.126   7.476 -0.7677 -0.5835  0.7825
   53CHL1  H11A 3883   0.275   0.185   7.504 -1.1216  0.4527 -0.1619
   53CHL1  H11B 3884   0.204   0.054   7.394  0.3284  2.0776 -1.4866
   53CHL1    C9 3885   0.084   0.235   7.423 -0.8026 -0.2225 -0.2268
   53CHL1    H9 3886  -0.005   0.173   7.401 -0.9256  0.6100 -2.2720
   53CHL1   C10 3887   0.122   0.298   7.288 -0.0034 -0.2363  0.0631
   53CHL1   C19 3888   0.270   0.357   7.307 -0.7996 -0.0505  0.7062
   53CHL1  H19A 3889   0.296   0.406   7.211  2.3895 -2.5990  0.0633
   53CHL1  H19B 3890   0.275   0.424   7.396 -0.8729 -0.4389  1.0048
   53CHL1  H19C 3891   0.330   0.266   7.327 -1.6939 -0.0501  4.1559
   53CHL1    C1 3892   0.125   0.184   7.174  0.1133  0.0558 -0.0623
   53CHL1   H1A 3893   0.212   0.119   7.197  0.2564 -0.3523 -1.6751
   53CHL1   H1B 3894   0.024   0.137   7.173  0.3546 -0.5228 -2.6539
   53CHL1    C2 3895   0.134   0.237   7.032  0.2144 -0.5232 -0.0511
   53CHL1   H2A 3896   0.122   0.153   6.960  3.7789 -0.7729 -0.5648
   53CHL1   H2B 3897   0.235   0.273   7.001 -0.7577  0.6837 -1.9983
   53CHL1   C20 3898   0.141   0.087   7.969 -0.7240  0.3460  0.6946
   53CHL1   H20 3899   0.214   0.165   7.998  1.4325 -1.6750  1.0595
   53CHL1   C21 3900   0.221  -0.037   7.924 -0.2036  0.1338  0.2329
   53CHL1  H21A 3901   0.278  -0.081   8.009 -1.3154  0.3031  1.0871
   53CHL1  H21B 3902   0.289  -0.004   7.843 -0.5366 -0.9698 -0.5245
   53CHL1  H21C 3903   0.145  -0.111   7.889  1.4658 -2.9974  2.6774
   53CHL1   C22 3904   0.063   0.068   8.101 -0.0144  0.0175  0.3866
   53CHL1  H22A 3905   0.139   0.030   8.172  0.2906 -1.6394 -0.7789
   53CHL1  H22B 3906   0.012   0.158   8.141  0.5781  0.5120  0.0402
   53CHL1   C23 3907  -0.042  -0.051   8.106 -0.0367  0.7278  0.0651
   53CHL1  H23A 3908  -0.118  -0.038   8.026 -0.5620  0.0707  0.4452
   53CHL1  H23B 3909   0.008  -0.150   8.097 -1.1255  0.2335 -0.7335
   53CHL1   C24 3910  -0.124  -0.052   8.241 -0.0571  0.0235  0.2640
   53CHL1  H24A 3911  -0.049  -0.053   8.323 -1.0447 -0.0935  1.1864
   53CHL1  H24B 3912  -0.190   0.038   8.243 -1.2915 -0.8517  1.3256
   53CHL1   C25 3913  -0.220  -0.178   8.264 -0.7389 -0.2947 -0.1458
   53CHL1   H25 3914  -0.264  -0.163   8.365 -0.7867 -0.3288 -0.1621
   53CHL1   C26 3915  -0.326  -0.175   8.166  0.5803  0.2680 -0.0045
   53CHL1  H26A 3916  -0.408  -0.248   8.184  2.7404 -2.3769 -0.3448
   53CHL1  H26B 3917  -0.360  -0.070   8.153  2.6631  0.9647 -0.1626
   53CHL1  H26C 3918  -0.288  -0.198   8.064 -0.2079  1.1623 -0.5192
   53CHL1   C27 3919  -0.143  -0.311   8.268 -0.3785  0.1576  0.1290
   53CHL1  H27A 3920  -0.103  -0.323   8.165  0.3804  0.7123  0.3470
   53CHL1  H27B 3921  -0.060  -0.296   8.341 -0.1145 -1.1989  0.1267
   53CHL1  H27C 3922  -0.208  -0.397   8.295  0.9731 -0.5446  1.2956
   54CHL1    C3 3923   0.651   0.529   6.999 -0.0923  0.5302  0.3524
   54CHL1    H3 3924   0.571   0.606   6.998 -0.8541 -0.2577  0.1264
   54CHL1    O3 3925   0.673   0.503   6.864  0.3166  0.1176 -0.2424
   54CHL1   H3' 3926   0.754   0.452   6.862  1.1358  1.3368 -2.9575
   54CHL1    C4 3927   0.783   0.575   7.063 -0.6118  0.6730  0.3372
   54CHL1   H4A 3928   0.854   0.490   7.060 -2.1679 -0.6378 -0.9713
   54CHL1   H4B 3929   0.814   0.668   7.010 -0.3081  0.6714  0.5116
   54CHL1    C5 3930   0.758   0.609   7.210 -0.6146  0.2541  0.1513
   54CHL1    C6 3931   0.792   0.732   7.258 -0.3795 -0.0301  0.0710
   54CHL1    H6 3932   0.848   0.805   7.198  1.0115  1.0381  2.4995
   54CHL1    C7 3933   0.778   0.773   7.409  0.0077  0.0869  0.2507
   54CHL1   H7A 3934   0.873   0.815   7.448 -1.2948  1.8309  1.6994
   54CHL1   H7B 3935   0.696   0.847   7.422  0.1995  0.0075  2.1924
   54CHL1    C8 3936   0.757   0.645   7.497 -0.4167 -0.4464  0.2458
   54CHL1    H8 3937   0.855   0.594   7.516  0.9987  2.5112  1.4507
   54CHL1   C14 3938   0.723   0.692   7.636  0.1209  0.4497 -0.0922
   54CHL1   H14 3939   0.634   0.758   7.634  1.0231  1.7280  0.1894
   54CHL1   C15 3940   0.831   0.777   7.707  0.3443 -0.0824 -0.7697
   54CHL1  H15A 3941   0.936   0.753   7.680  0.0494 -0.4607 -1.6177
   54CHL1  H15B 3942   0.809   0.881   7.674  2.1552  0.9534  1.0377
   54CHL1   C16 3943   0.789   0.756   7.856 -0.0122  0.9399 -0.4355
   54CHL1  H16A 3944   0.877   0.718   7.912  1.2781  0.0184 -2.9248
   54CHL1  H16B 3945   0.762   0.856   7.896 -1.9346  0.3506 -0.1492
   54CHL1   C17 3946   0.670   0.655   7.863  0.2360 -0.0313  0.5012
   54CHL1   H17 3947   0.576   0.711   7.846 -1.7433 -2.5262  2.3869
   54CHL1   C13 3948   0.690   0.577   7.731 -1.0387 -0.6257 -0.2367
   54CHL1   C18 3949   0.811   0.486   7.768 -0.3676  0.0810  0.2896
   54CHL1  H18A 3950   0.867   0.462   7.675 -0.1868  0.0070  0.4167
   54CHL1  H18B 3951   0.887   0.515   7.844 -2.3499 -1.3698  3.0113
   54CHL1  H18C 3952   0.777   0.393   7.818  0.2344 -0.2725  0.0616
   54CHL1   C12 3953   0.572   0.499   7.679 -0.2331 -0.5904 -0.9082
   54CHL1  H12A 3954   0.528   0.422   7.745 -0.2053 -1.3988 -1.8101
   54CHL1  H12B 3955   0.483   0.561   7.656 -1.3503 -2.1347 -0.9306
   54CHL1   C11 3956   0.614   0.435   7.542  0.0014  0.3152 -0.5347
   54CHL1  H11A 3957   0.695   0.362   7.560  1.3777  1.8091 -0.4880
   54CHL1  H11B 3958   0.530   0.383   7.489 -1.0402  3.1063 -1.8053
   54CHL1    C9 3959   0.652   0.544   7.443 -0.3275 -0.4978 -0.4172
   54CHL1    H9 3960   0.564   0.611   7.437  0.4058  0.8340  2.3488
   54CHL1   C10 3961   0.696   0.494   7.301  0.0193  0.0622  0.0051
   54CHL1   C19 3962   0.796   0.377   7.317  0.5594  0.4059 -0.1217
   54CHL1  H19A 3963   0.876   0.410   7.387  1.4506 -0.7203 -0.5680
   54CHL1  H19B 3964   0.757   0.294   7.380  2.0174  1.5508  2.4512
   54CHL1  H19C 3965   0.839   0.340   7.222 -0.6912  0.3081 -0.6668
   54CHL1    C1 3966   0.573   0.441   7.223 -0.1084 -0.6235 -0.6787
   54CHL1   H1A 3967   0.546   0.354   7.287  2.3103 -0.1362  1.1570
   54CHL1   H1B 3968   0.488   0.512   7.231 -0.3987 -0.9437 -0.8672
   54CHL1    C2 3969   0.594   0.407   7.081 -0.6217 -0.3506  0.0657
   54CHL1   H2A 3970   0.499   0.384   7.028 -0.7615  1.1657 -0.3948
   54CHL1   H2B 3971   0.658   0.320   7.056 -0.7406 -0.2394 -0.6493
   54CHL1   C20 3972   0.655   0.583   8.005 -0.9026 -0.2181  0.5541
   54CHL1   H20 3973   0.749   0.525   8.022 -1.0576 -0.3169  1.1137
   54CHL1   C21 3974   0.545   0.472   8.006 -0.2353 -0.9671  0.4439
   54CHL1  H21A 3975   0.460   0.515   7.949  0.0623 -2.9232 -1.6078
   54CHL1  H21B 3976   0.507   0.440   8.105 -1.6220  0.6552  0.4933
   54CHL1  H21C 3977   0.581   0.380   7.956 -0.2819 -1.3596  1.1230
   54CHL1   C22 3978   0.646   0.691   8.119  0.0701  0.1405 -0.7305
   54CHL1  H22A 3979   0.676   0.640   8.213  2.4975 -0.4052 -1.7243
   54CHL1  H22B 3980   0.722   0.770   8.102  0.2333  0.6546  2.0114
   54CHL1   C23 3981   0.513   0.774   8.135 -0.5084  0.1340 -0.0116
   54CHL1  H23A 3982   0.485   0.804   8.032 -2.3276 -3.0653 -0.5665
   54CHL1  H23B 3983   0.436   0.704   8.173  0.9336 -2.8924 -2.2636
   54CHL1   C24 3984   0.524   0.904   8.215  0.1390  0.3380 -0.2928
   54CHL1  H24A 3985   0.564   0.884   8.317 -1.1529 -0.6023  0.0654
   54CHL1  H24B 3986   0.599   0.974   8.174 -1.5381  1.6528 -1.2462
   54CHL1   C25 3987   0.385   0.980   8.228 -0.0335  0.9143  0.2907
   54CHL1   H25 3988   0.346   0.984   8.124 -0.1773  1.0995  0.3519
   54CHL1   C26 3989   0.277   0.908   8.307 -0.2537 -0.8839  0.3431
   54CHL1  H26A 3990   0.297   0.904   8.416  1.1595 -0.0347  0.1394
   54CHL1  H26B 3991   0.181   0.960   8.290 -0.1260 -0.5840  0.5334
   54CHL1  H26C 3992   0.267   0.803   8.274  0.9328 -0.9146  0.0413
   54CHL1   C27 3993   0.413   1.123   8.276  0.9271 -1.3035  0.7187
   54CHL1  H27A 3994   0.321   1.181   8.251  0.6518 -1.4766  1.3231
   54CHL1  H27B 3995   0.433   1.118   8.385  1.5584 -1.3071  0.6070
   54CHL1  H27C 3996   0.498   1.163   8.217  0.5962 -1.6377 -0.0133
   55CHL1    C3 3997   1.403   3.462   6.906 -0.5317 -0.1260  0.2908
   55CHL1    H3 3998   1.513   3.451   6.919 -0.8830 -2.6575  1.9927
   55CHL1    O3 3999   1.380   3.435   6.768  0.3222  0.2729 -0.7026
   55CHL1   H3' 4000   1.284   3.442   6.770  0.3160  0.7036 -1.7157
   55CHL1    C4 4001   1.329   3.353   6.983  0.6019  0.2111 -0.1799
   55CHL1   H4A 4002   1.223   3.354   6.950 -0.0740  1.1729  1.8989
   55CHL1   H4B 4003   1.370   3.252   6.958 -1.1930 -0.5666 -0.1505
   55CHL1    C5 4004   1.324   3.362   7.134  0.1784  0.8112  0.0661
   55CHL1    C6 4005   1.374   3.262   7.212 -0.4510 -0.8140 -0.4055
   55CHL1    H6 4006   1.417   3.171   7.170  0.5281 -0.1431 -0.9044
   55CHL1    C7 4007   1.360   3.269   7.361  0.1389  0.0282  0.5058
   55CHL1   H7A 4008   1.303   3.179   7.389  0.8906 -0.3268  0.9225
   55CHL1   H7B 4009   1.459   3.261   7.411 -0.5130 -1.0894  1.6797
   55CHL1    C8 4010   1.285   3.390   7.414 -0.1245 -1.0723  0.3572
   55CHL1    H8 4011   1.175   3.381   7.403 -0.5732  2.5116  0.6916
   55CHL1   C14 4012   1.319   3.405   7.556  0.3189 -0.3763 -0.1193
   55CHL1   H14 4013   1.424   3.438   7.576 -0.7030  2.9226  0.4287
   55CHL1   C15 4014   1.296   3.288   7.645  0.6248  0.2608 -0.7881
   55CHL1  H15A 4015   1.198   3.238   7.631  0.7455 -0.1306 -0.2679
   55CHL1  H15B 4016   1.375   3.210   7.635 -0.2644 -0.7382 -0.2122
   55CHL1   C16 4017   1.297   3.349   7.787  0.0263  0.5467  0.2745
   55CHL1  H16A 4018   1.211   3.314   7.848  0.4597  0.5600  0.9059
   55CHL1  H16B 4019   1.379   3.328   7.859 -1.1003 -2.5498  0.8037
   55CHL1   C17 4020   1.278   3.501   7.771 -0.6723  0.5586 -0.3443
   55CHL1   H17 4021   1.379   3.546   7.784 -0.4600 -0.3497  1.5783
   55CHL1   C13 4022   1.234   3.523   7.623 -0.3232  0.6175  0.0520
   55CHL1   C18 4023   1.082   3.501   7.623  0.6269  0.3616 -0.5975
   55CHL1  H18A 4024   1.030   3.585   7.674  0.4185  0.6848 -1.3314
   55CHL1  H18B 4025   1.028   3.494   7.526 -0.0815 -0.2303 -0.1714
   55CHL1  H18C 4026   1.057   3.409   7.679  1.4147 -0.8467 -2.1598
   55CHL1   C12 4027   1.270   3.657   7.551  0.1885  0.1054  0.4292
   55CHL1  H12A 4028   1.200   3.734   7.590 -0.8693 -0.1821 -0.8235
   55CHL1  H12B 4029   1.372   3.697   7.566 -0.8963  4.4717 -2.0051
   55CHL1   C11 4030   1.248   3.647   7.402  0.3881  0.3482  0.2291
   55CHL1  H11A 4031   1.138   3.642   7.386  0.5648 -1.7733 -0.6049
   55CHL1  H11B 4032   1.280   3.741   7.353 -0.5614  0.4914 -0.1552
   55CHL1    C9 4033   1.323   3.523   7.338 -0.6288 -0.4825  1.3539
   55CHL1    H9 4034   1.433   3.536   7.347 -0.8717  2.5887  1.1731
   55CHL1   C10 4035   1.286   3.504   7.187 -0.2043  0.9210 -0.0996
   55CHL1   C19 4036   1.132   3.525   7.166 -0.5535  0.9033  0.4174
   55CHL1  H19A 4037   1.116   3.635   7.166 -0.8123  0.8929  2.2428
   55CHL1  H19B 4038   1.094   3.476   7.074  0.3165  0.9210  0.0352
   55CHL1  H19C 4039   1.075   3.482   7.251  0.7118  0.2651  0.9803
   55CHL1    C1 4040   1.365   3.605   7.102  0.8386 -0.0552 -0.8836
   55CHL1   H1A 4041   1.323   3.702   7.136  0.9488 -0.1872 -0.3539
   55CHL1   H1B 4042   1.471   3.619   7.132  0.1140  2.0338  0.9001
   55CHL1    C2 4043   1.352   3.600   6.953  0.6637  0.6535  0.1992
   55CHL1   H2A 4044   1.403   3.693   6.920 -0.0759  0.9200 -0.2178
   55CHL1   H2B 4045   1.243   3.599   6.929  1.0372  0.0486 -1.6462
   55CHL1   C20 4046   1.205   3.567   7.897 -0.9103  0.4938  0.2298
   55CHL1   H20 4047   1.106   3.519   7.910 -1.1567  0.5352 -1.2844
   55CHL1   C21 4048   1.189   3.716   7.880  0.5794  0.6872  0.1896
   55CHL1  H21A 4049   1.116   3.734   7.797  0.7968 -1.2464 -0.4584
   55CHL1  H21B 4050   1.286   3.767   7.862 -0.1630  2.1431  0.1699
   55CHL1  H21C 4051   1.132   3.768   7.961 -2.4171 -0.9942 -0.6914
   55CHL1   C22 4052   1.287   3.548   8.032  0.0146 -0.3641  0.0405
   55CHL1  H22A 4053   1.395   3.540   8.006 -0.3821 -1.9949 -1.2661
   55CHL1  H22B 4054   1.279   3.636   8.100 -2.2118 -0.2707 -0.2774
   55CHL1   C23 4055   1.266   3.417   8.109 -0.4859 -0.2765  0.0002
   55CHL1  H23A 4056   1.290   3.327   8.048 -0.0686 -0.1927  0.0383
   55CHL1  H23B 4057   1.324   3.409   8.203 -1.1127 -3.5628  0.2197
   55CHL1   C24 4058   1.118   3.384   8.156  0.0171 -0.5037 -0.2928
   55CHL1  H24A 4059   1.078   3.467   8.217  1.2767 -0.3841  0.4129
   55CHL1  H24B 4060   1.058   3.375   8.063 -0.8067 -2.2318  0.3533
   55CHL1   C25 4061   1.113   3.254   8.246 -0.0156 -0.4730  0.8250
   55CHL1   H25 4062   1.175   3.286   8.332 -1.5299  2.2660  1.0135
   55CHL1   C26 4063   0.974   3.221   8.304  0.0864 -0.4421 -0.0554
   55CHL1  H26A 4064   0.930   3.317   8.336  1.1976  0.5510 -1.3906
   55CHL1  H26B 4065   0.909   3.179   8.224 -1.3687  1.3677  0.1202
   55CHL1  H26C 4066   1.003   3.143   8.378  1.6838 -2.0680 -2.2441
   55CHL1   C27 4067   1.155   3.119   8.173  0.6358 -0.8416  0.0617
   55CHL1  H27A 4068   1.260   3.124   8.137  0.9348 -0.0212  0.9959
   55CHL1  H27B 4069   1.159   3.031   8.241 -1.0159 -0.5952  0.5256
   55CHL1  H27C 4070   1.084   3.103   8.089  1.5951  0.5123 -1.0521
   56CHL1    C3 4071   5.800   0.274   6.731  0.3366 -0.2123 -0.4058
   56CHL1    H3 4072   5.835   0.374   6.765 -0.3706 -0.3561  0.8259
   56CHL1    O3 4073   5.789   0.271   6.587 -0.5683  0.6123 -0.2304
   56CHL1   H3' 4074   5.787   0.176   6.572 -0.8628  0.6307 -0.3179
   56CHL1    C4 4075   5.881   0.159   6.780  0.2380  0.2734 -0.0977
   56CHL1   H4A 4076   5.841   0.063   6.740 -0.8778 -0.1426  1.8846
   56CHL1   H4B 4077   5.982   0.166   6.735  0.0547  1.5244 -0.3614
   56CHL1    C5 4078   5.887   0.148   6.938  0.2988  0.3968 -0.0515
   56CHL1    C6 4079   6.000   0.157   7.003  0.5541  0.1902 -0.1050
   56CHL1    H6 4080   6.089   0.160   6.939 -0.9404 -0.6108 -2.3438
   56CHL1    C7 4081   6.022   0.138   7.149 -0.2699  0.0034 -1.1905
   56CHL1   H7A 4082   6.102   0.064   7.171  0.1442  0.8472  0.2644
   56CHL1   H7B 4083   6.049   0.230   7.205  0.2297 -1.9581  2.1174
   56CHL1    C8 4084   5.889   0.103   7.223  0.5340  0.1494 -0.1822
   56CHL1    H8 4085   5.881  -0.007   7.226  0.3716  0.1549 -0.4322
   56CHL1   C14 4086   5.902   0.146   7.370  0.9805 -0.2248  0.1095
   56CHL1   H14 4087   5.917   0.255   7.361  0.7283 -0.2546 -0.6955
   56CHL1   C15 4088   6.017   0.097   7.458 -2.2099  0.2848  0.6819
   56CHL1  H15A 4089   6.040  -0.012   7.456  1.7100  0.9475  0.4352
   56CHL1  H15B 4090   6.102   0.167   7.441 -1.5852 -0.5155  0.4642
   56CHL1   C16 4091   5.974   0.118   7.605  0.1724 -0.0588 -0.4086
   56CHL1  H16A 4092   5.980   0.013   7.640  0.2445 -0.8995 -2.7704
   56CHL1  H16B 4093   6.035   0.196   7.657  2.0145 -1.6092 -0.1492
   56CHL1   C17 4094   5.824   0.161   7.601 -0.0387 -0.7307  0.1745
   56CHL1   H17 4095   5.825   0.272   7.594  1.1013 -0.8256 -4.4515
   56CHL1   C13 4096   5.773   0.123   7.456 -0.0006 -0.3333  0.1499
   56CHL1   C18 4097   5.743  -0.026   7.459 -0.1912  0.2216  0.5685
   56CHL1  H18A 4098   5.822  -0.088   7.506 -0.0549 -0.9218 -1.0647
   56CHL1  H18B 4099   5.641  -0.048   7.497  0.5241 -0.2514  2.3061
   56CHL1  H18C 4100   5.726  -0.070   7.358  0.1197  1.4447 -0.0254
   56CHL1   C12 4101   5.659   0.205   7.391 -0.0603 -0.1267 -0.0249
   56CHL1  H12A 4102   5.559   0.170   7.424  0.2620 -1.8341 -0.7738
   56CHL1  H12B 4103   5.679   0.314   7.407  0.4053 -0.0402 -1.0634
   56CHL1   C11 4104   5.650   0.179   7.238  0.3304  0.2527 -1.2562
   56CHL1  H11A 4105   5.602   0.078   7.233 -1.3236  0.9710 -0.6006
   56CHL1  H11B 4106   5.572   0.245   7.194 -0.8081 -0.7729 -0.8449
   56CHL1    C9 4107   5.776   0.187   7.156 -0.2422 -0.3758 -0.1420
   56CHL1    H9 4108   5.798   0.294   7.173 -0.8696 -0.2161 -0.2959
   56CHL1   C10 4109   5.753   0.156   7.008  0.8437  0.2581  0.1260
   56CHL1   C19 4110   5.681   0.019   6.993 -0.0007 -0.0323 -0.2491
   56CHL1  H19A 4111   5.738  -0.055   7.053 -0.7364  1.4113  2.3932
   56CHL1  H19B 4112   5.575   0.025   7.028 -0.1490 -0.3433 -0.6319
   56CHL1  H19C 4113   5.664  -0.014   6.888 -2.1255  0.6344 -0.1715
   56CHL1    C1 4114   5.669   0.274   6.939  0.3071 -0.0061 -0.3120
   56CHL1   H1A 4115   5.565   0.275   6.979  0.8921  0.1308  1.2487
   56CHL1   H1B 4116   5.723   0.369   6.956  1.2063 -0.0515 -2.5241
   56CHL1    C2 4117   5.658   0.262   6.786  0.4634 -0.2590 -0.4581
   56CHL1   H2A 4118   5.611   0.358   6.757 -0.2343 -0.1391  0.9769
   56CHL1   H2B 4119   5.600   0.173   6.756  0.9114 -0.8753  0.4518
   56CHL1   C20 4120   5.745   0.129   7.732 -0.2924 -0.0849  0.2536
   56CHL1   H20 4121   5.750   0.019   7.747 -0.0846  0.0823  1.5726
   56CHL1   C21 4122   5.606   0.175   7.715  0.3579 -0.4068 -0.9022
   56CHL1  H21A 4123   5.609   0.280   7.677 -1.2267 -0.7912 -2.1848
   56CHL1  H21B 4124   5.544   0.161   7.806 -0.6865  0.4580 -1.4540
   56CHL1  H21C 4125   5.551   0.128   7.631 -0.5135  2.2455 -1.9166
   56CHL1   C22 4126   5.805   0.195   7.856  0.0892  0.5328  0.0140
   56CHL1  H22A 4127   5.914   0.175   7.854 -0.2796 -1.6389 -1.1858
   56CHL1  H22B 4128   5.777   0.302   7.841 -0.4483  0.5320  0.9319
   56CHL1   C23 4129   5.765   0.128   7.992  0.0367 -0.0973  0.2530
   56CHL1  H23A 4130   5.662   0.089   8.006 -0.4891  1.5001  1.0486
   56CHL1  H23B 4131   5.833   0.039   7.996  1.1990  0.6488 -1.5058
   56CHL1   C24 4132   5.803   0.223   8.104  0.2923  0.2534  0.2125
   56CHL1  H24A 4133   5.912   0.239   8.094  0.4958 -0.5734  1.0482
   56CHL1  H24B 4134   5.751   0.319   8.082  2.4338  1.1048 -1.4360
   56CHL1   C25 4135   5.749   0.178   8.243  0.0149 -0.0398  0.7849
   56CHL1   H25 4136   5.656   0.119   8.228  0.0431  0.1363 -0.2210
   56CHL1   C26 4137   5.843   0.083   8.316 -0.1388  0.1985  0.7640
   56CHL1  H26A 4138   5.940   0.128   8.345  0.6164 -1.6138  1.1740
   56CHL1  H26B 4139   5.876  -0.010   8.267  1.4756 -0.3190  2.6984
   56CHL1  H26C 4140   5.800   0.044   8.411 -0.2907 -1.5026  0.0293
   56CHL1   C27 4141   5.706   0.289   8.339  0.7294 -1.5127  0.4725
   56CHL1  H27A 4142   5.792   0.352   8.371 -1.3879  1.1886  1.2051
   56CHL1  H27B 4143   5.636   0.350   8.279  1.2398 -1.5520 -0.1710
   56CHL1  H27C 4144   5.648   0.256   8.427 -3.3620  1.3307 -0.8656
   57SAPC     N 4145   6.210   3.616  10.869 -0.7898 -0.1502  0.3593
   57SAPC   C12 4146   6.148   3.592  10.732 -0.8667 -0.2064 -0.3403
   57SAPC  H12A 4147   6.131   3.684  10.679  0.0260 -0.1905 -0.6065
   57SAPC  H12B 4148   6.055   3.539  10.746  0.2307 -1.7485  1.6199
   57SAPC   C13 4149   6.356   3.654  10.853  0.5489  0.0905  0.1685
   57SAPC  H13A 4150   6.401   3.620  10.945 -1.8579  1.2487  1.8952
   57SAPC  H13B 4151   6.390   3.593  10.770 -0.0702  1.1366 -0.8949
   57SAPC  H13C 4152   6.373   3.759  10.837  1.1287  0.0501  0.5003
   57SAPC   C14 4153   6.146   3.731  10.956  0.2685  0.4932  0.3354
   57SAPC  H14A 4154   6.145   3.819  10.894 -1.5757 -0.4218 -1.0190
   57SAPC  H14B 4155   6.045   3.714  10.988  0.5904  0.6916  1.5146
   57SAPC  H14C 4156   6.212   3.759  11.037  2.7786 -1.3510 -0.9270
   57SAPC   C15 4157   6.203   3.499  10.952  0.0056  0.0855 -0.3828
   57SAPC  H15A 4158   6.243   3.506  11.051 -1.6367  1.7149  0.2230
   57SAPC  H15B 4159   6.101   3.463  10.962 -0.0447  0.8991  2.8265
   57SAPC  H15C 4160   6.247   3.414  10.901  0.5440  0.4196 -0.4820
   57SAPC   C11 4161   6.233   3.507  10.633 -0.0067  0.4949  1.0516
   57SAPC  H11A 4162   6.315   3.566  10.587  1.1593 -1.2274  0.8143
   57SAPC  H11B 4163   6.166   3.487  10.546  0.6080  0.1096  0.6552
   57SAPC     P 4164   6.242   3.228  10.653  0.1016 -0.0528  0.0313
   57SAPC   O13 4165   6.360   3.140  10.637  0.4252 -0.9777 -0.0508
   57SAPC   O14 4166   6.140   3.187  10.757  0.5495 -0.0890 -0.4885
   57SAPC   O12 4167   6.287   3.380  10.687  0.2491 -0.0288  0.2830
   57SAPC   O11 4168   6.173   3.243  10.513  0.0568 -0.0672  0.0082
   57SAPC    C1 4169   6.234   3.216  10.388 -0.0726  0.2238  0.0705
   57SAPC    HA 4170   6.319   3.146  10.400 -0.8282 -0.4504  1.8022
   57SAPC    HB 4171   6.169   3.148  10.330 -1.6720  2.1827 -0.5675
   57SAPC    C2 4172   6.285   3.339  10.311 -0.0956  0.7801  0.0594
   57SAPC    HS 4173   6.344   3.400  10.383  2.0620 -1.5110  0.3766
   57SAPC   O21 4174   6.170   3.404  10.257  0.6347 -0.2372  0.4867
   57SAPC   C21 4175   6.183   3.537  10.250 -0.3126  0.9697 -0.8258
   57SAPC   O22 4176   6.285   3.602  10.289 -0.0761  0.2512 -0.2144
   57SAPC   C22 4177   6.067   3.593  10.169  0.1769  0.3174 -0.3213
   57SAPC   H2R 4178   6.112   3.665  10.097  1.4857  0.1588  0.3061
   57SAPC   H2S 4179   5.996   3.523  10.120 -1.6190  1.5401  0.4122
   57SAPC    C3 4180   6.384   3.308  10.207 -0.3727 -0.3594 -0.4062
   57SAPC    HX 4181   6.470   3.252  10.249 -0.6917 -0.9299 -0.5087
   57SAPC    HY 4182   6.418   3.411  10.184  1.8171 -0.9013  0.1285
   57SAPC   O31 4183   6.316   3.250  10.094  0.9117 -0.0531  0.7135
   57SAPC   C31 4184   6.307   3.119  10.091 -0.5889  0.5088 -0.2322
   57SAPC   O32 4185   6.349   3.047  10.180  0.7723  0.0461  0.3198
   57SAPC   C32 4186   6.236   3.070   9.972 -0.0368 -0.2325  0.6710
   57SAPC   H2X 4187   6.287   2.981   9.931  0.1224 -0.2241  0.8462
   57SAPC   H2Y 4188   6.232   3.144   9.890 -1.8075  0.9834  1.7587
   57SAPC   C23 4189   5.979   3.692  10.248 -0.1052  0.3750 -0.4913
   57SAPC   H3R 4190   6.046   3.754  10.312  2.7159 -1.5209 -1.4039
   57SAPC   H3S 4191   5.917   3.642  10.326  0.5265 -0.4528 -0.5061
   57SAPC   C24 4192   5.888   3.780  10.159  0.2409  0.1003  0.5063
   57SAPC   H4R 4193   5.955   3.823  10.083 -0.6249 -0.4444 -0.5959
   57SAPC   H4S 4194   5.857   3.871  10.215  0.3461  0.0938  0.5761
   57SAPC   C25 4195   5.777   3.699  10.100 -0.1495  0.2378  0.2716
   57SAPC   H5R 4196   5.725   3.631  10.169 -1.2776 -0.7579 -1.4726
   57SAPC   C26 4197   5.729   3.710   9.971 -0.0051 -0.2781  0.2300
   57SAPC   H6R 4198   5.642   3.648   9.943 -0.9089  0.5372  1.1200
   57SAPC   C27 4199   5.780   3.797   9.859  0.3397 -1.0892 -0.0332
   57SAPC   H7R 4200   5.847   3.875   9.900 -1.6191  3.0529 -3.9631
   57SAPC   H7S 4201   5.696   3.854   9.814 -1.7294 -2.8203  1.3914
   57SAPC   C28 4202   5.857   3.708   9.759 -0.4767 -1.5252 -0.4688
   57SAPC   H8R 4203   5.941   3.652   9.805  1.6904  1.0310 -1.0401
   57SAPC   C29 4204   5.847   3.701   9.626  0.1974 -0.8105  0.6781
   57SAPC   H9R 4205   5.906   3.629   9.568 -1.4108 -1.1326 -0.6663
   57SAPC  C210 4206   5.747   3.776   9.537  0.0435 -0.3230  0.0524
   57SAPC  H10R 4207   5.766   3.883   9.559 -1.2089 -0.0431 -0.1511
   57SAPC  H10S 4208   5.650   3.763   9.590 -0.0137  0.3928  0.1421
   57SAPC  C211 4209   5.739   3.745   9.386 -0.1878 -0.3487  1.0552
   57SAPC  H11R 4210   5.638   3.731   9.347 -0.6665 -0.0891  2.1507
   57SAPC  C212 4211   5.838   3.727   9.294  0.6848  0.6417  0.2362
   57SAPC  H12R 4212   5.802   3.681   9.200  1.2956 -1.4491  0.9805
   57SAPC  C213 4213   5.987   3.753   9.326  0.5315  0.7804 -0.3072
   57SAPC  H13R 4214   6.000   3.806   9.423  2.0350  2.7242 -1.5085
   57SAPC  H13S 4215   6.012   3.825   9.245 -0.4922 -1.1003 -2.3900
   57SAPC  C214 4216   6.073   3.633   9.322 -0.3180  0.4070  0.4122
   57SAPC  H14R 4217   6.047   3.553   9.251  1.0134  0.5574 -0.2781
   57SAPC  C215 4218   6.180   3.617   9.400 -0.1721 -0.3545 -0.2064
   57SAPC  H15R 4219   6.236   3.523   9.389 -0.1614 -0.2359 -1.2672
   57SAPC  C216 4220   6.232   3.702   9.509  0.5081 -0.1541  0.4359
   57SAPC  H16R 4221   6.164   3.788   9.530 -0.2751 -0.4032 -0.9623
   57SAPC  H16S 4222   6.332   3.745   9.486  0.0104  0.7859 -0.0206
   57SAPC  C217 4223   6.233   3.623   9.641  0.3746 -0.1948 -0.5017
   57SAPC  H17R 4224   6.295   3.531   9.630 -2.3186 -2.8881  3.6417
   57SAPC  H17S 4225   6.132   3.590   9.673  0.8315 -0.1267  1.0971
   57SAPC  C218 4226   6.312   3.699   9.750  0.1103 -0.6197  0.0962
   57SAPC  H18R 4227   6.271   3.802   9.743 -1.1584 -1.1610 -4.7624
   57SAPC  H18S 4228   6.418   3.712   9.718  0.3408  2.3470  1.7580
   57SAPC  C219 4229   6.331   3.624   9.885  0.5131  0.2980 -0.0270
   57SAPC  H19R 4230   6.386   3.531   9.855  1.6143  0.5915  1.0239
   57SAPC  H19S 4231   6.229   3.597   9.920  0.2565  0.0762 -0.8993
   57SAPC  C220 4232   6.421   3.685   9.987 -0.0562  0.4269 -0.6507
   57SAPC  H20R 4233   6.515   3.720   9.938  0.7095  0.4905  0.7993
   57SAPC  H20S 4234   6.472   3.610  10.051 -1.0305 -0.6117 -1.0600
   57SAPC  H20T 4235   6.373   3.761  10.053  0.7399  0.1795  0.2360
   57SAPC   C33 4236   6.090   3.032  10.011 -0.4730 -0.3063  0.7302
   57SAPC   H3X 4237   6.095   2.946  10.081 -1.8592 -0.6845  0.4042
   57SAPC   H3Y 4238   6.047   2.989   9.918  0.1740 -0.5304  0.5317
   57SAPC   C34 4239   6.003   3.148  10.065  0.0522  0.3315 -0.9896
   57SAPC   H4X 4240   6.038   3.183  10.164 -0.5745  0.1388 -0.6940
   57SAPC   H4Y 4241   5.900   3.107  10.075  0.2155  0.2167  0.3658
   57SAPC   C35 4242   6.002   3.266   9.963  0.1031 -0.2710 -0.3065
   57SAPC   H5X 4243   6.096   3.323   9.971 -0.9588  1.3643  1.4134
   57SAPC   H5Y 4244   5.923   3.339   9.991  1.2927  0.7914  0.3486
   57SAPC   C36 4245   5.964   3.231   9.822 -0.5117  0.5766  0.6106
   57SAPC   H6X 4246   5.883   3.154   9.820 -0.7976  0.8842 -0.1283
   57SAPC   H6Y 4247   6.054   3.188   9.772 -1.3984 -1.9771  1.0324
   57SAPC   C37 4248   5.946   3.353   9.731 -0.0349 -0.6390  0.3379
   57SAPC   H7X 4249   6.032   3.424   9.730 -1.9639  2.0279  2.9844
   57SAPC   H7Y 4250   5.853   3.390   9.780  1.3301  1.9369  1.1392
   57SAPC   C38 4251   5.898   3.315   9.590  0.4600  0.4085  0.0536
   57SAPC   H8X 4252   5.830   3.395   9.556  0.9007 -0.2445 -2.5514
   57SAPC   H8Y 4253   5.842   3.220   9.602  1.0898 -0.0648 -0.6681
   57SAPC   C39 4254   6.012   3.295   9.488  0.2725 -0.3142 -0.0517
   57SAPC   H9X 4255   6.057   3.199   9.521  0.8623 -0.0774 -0.1636
   57SAPC   H9Y 4256   6.089   3.374   9.492  1.0960 -1.0315 -1.2165
   57SAPC  C310 4257   5.946   3.271   9.345  0.5111  0.6774  0.3575
   57SAPC  H10X 4258   5.881   3.357   9.321 -3.7917 -2.2377  0.4982
   57SAPC  H10Y 4259   5.878   3.183   9.345  0.5888  0.5809 -1.7274
   57SAPC  C311 4260   6.059   3.252   9.246  0.4221  0.0284  0.7724
   57SAPC  H11X 4261   6.113   3.155   9.254  1.3884  0.4712 -0.1050
   57SAPC  H11Y 4262   6.133   3.335   9.250  0.5030  0.1395 -1.7027
   57SAPC  C312 4263   5.999   3.240   9.101 -0.2149 -0.5537 -0.7348
   57SAPC  H12X 4264   5.932   3.152   9.086 -1.6842  0.4780 -0.4487
   57SAPC  H12Y 4265   6.084   3.207   9.039  0.6281 -1.9040  1.0513
   57SAPC  C313 4266   5.931   3.366   9.052 -0.3100 -0.3433  0.2797
   57SAPC  H13X 4267   6.013   3.441   9.062 -0.1121 -0.3191 -1.3414
   57SAPC  H13Y 4268   5.836   3.380   9.107 -0.0374 -0.2247  0.7255
   57SAPC  C314 4269   5.910   3.367   8.895  0.0088  0.5174  0.1402
   57SAPC  H14X 4270   6.005   3.334   8.849 -1.7282 -1.9662 -1.9267
   57SAPC  H14Y 4271   5.899   3.477   8.879  1.8854  0.5172 -1.5200
   57SAPC  C315 4272   5.780   3.302   8.845  0.2136  0.7604  0.0298
   57SAPC  H15X 4273   5.700   3.373   8.875  0.8382  1.1101  0.9094
   57SAPC  H15Y 4274   5.750   3.206   8.892  0.5058 -0.3859 -1.9986
   57SAPC  C316 4275   5.783   3.292   8.696 -0.9144 -0.0642  1.1610
   57SAPC  H16X 4276   5.815   3.387   8.648  0.9217 -0.9255  0.6126
   57SAPC  H16Y 4277   5.678   3.271   8.666 -0.5629 -0.5351  0.2343
   57SAPC  C317 4278   5.882   3.188   8.632 -0.3544 -0.2074 -0.5780
   57SAPC  H17X 4279   5.845   3.087   8.661 -1.3520  0.1655 -0.5199
   57SAPC  H17Y 4280   5.984   3.192   8.675  0.1070 -0.2497 -1.6552
   57SAPC  C318 4281   5.893   3.194   8.480 -0.2081  0.7306  0.1630
   57SAPC  H18X 4282   5.931   3.092   8.457 -1.6979 -0.0693  1.1182
   57SAPC  H18Y 4283   5.960   3.278   8.451 -1.1603  2.2253  2.0253
   57SAPC  H18Z 4284   5.802   3.211   8.420 -0.1189 -2.9294 -1.2565
   58SAPC     N 4285   1.811   1.407  11.125  0.3041 -0.7367 -0.1075
   58SAPC   C12 4286   1.890   1.366  11.005 -0.1204 -1.0364  0.2408
   58SAPC  H12A 4287   1.832   1.284  10.964  1.7326 -1.0677 -2.6000
   58SAPC  H12B 4288   1.987   1.328  11.034  0.4300 -0.8478 -1.2673
   58SAPC   C13 4289   1.665   1.431  11.089  0.5137 -0.0325 -0.1030
   58SAPC  H13A 4290   1.613   1.455  11.181 -2.1953 -2.7385 -0.7876
   58SAPC  H13B 4291   1.654   1.506  11.012  1.7350  0.2430 -0.0321
   58SAPC  H13C 4292   1.616   1.342  11.053  0.4015  0.6439 -1.6888
   58SAPC   C14 4293   1.812   1.309  11.230  0.1792  0.1192 -0.5147
   58SAPC  H14A 4294   1.747   1.348  11.307 -3.3392 -2.1971 -2.0419
   58SAPC  H14B 4295   1.762   1.221  11.192 -0.9663  1.2254 -1.6868
   58SAPC  H14C 4296   1.904   1.277  11.275  0.1202  1.4438  0.5984
   58SAPC   C15 4297   1.865   1.539  11.177  0.0573  0.0739 -0.5754
   58SAPC  H15A 4298   1.811   1.578  11.262 -0.7319 -4.1633  1.1192
   58SAPC  H15B 4299   1.970   1.543  11.199  0.1258  4.5430 -0.7655
   58SAPC  H15C 4300   1.859   1.616  11.101 -0.5859 -2.3636 -3.1814
   58SAPC   C11 4301   1.897   1.463  10.886 -0.1123  0.2230  0.7853
   58SAPC  H11A 4302   1.983   1.438  10.820 -2.0502  0.2593 -1.9034
   58SAPC  H11B 4303   1.919   1.569  10.910 -0.3210  0.9801 -2.0357
   58SAPC     P 4304   1.749   1.354  10.701 -0.1117  0.0110  0.1492
   58SAPC   O13 4305   1.764   1.220  10.760  0.1175 -0.0909 -0.3525
   58SAPC   O14 4306   1.617   1.380  10.649  0.3973  0.1513  0.3584
   58SAPC   O12 4307   1.779   1.459  10.811  0.2518 -0.2091 -0.4195
   58SAPC   O11 4308   1.859   1.378  10.606  0.6894  0.1084  0.6075
   58SAPC    C1 4309   1.878   1.503  10.536  0.1190 -0.0992 -0.4199
   58SAPC    HA 4310   1.783   1.553  10.508  0.5976 -0.3333 -2.6296
   58SAPC    HB 4311   1.941   1.571  10.597  0.2968 -0.6535  0.0304
   58SAPC    C2 4312   1.962   1.481  10.408 -0.1211  0.1932 -0.1257
   58SAPC    HS 4313   1.980   1.580  10.361  0.0229  0.1114 -0.2451
   58SAPC   O21 4314   1.903   1.387  10.318  0.1010  0.4962 -1.2415
   58SAPC   C21 4315   1.940   1.409  10.195  0.6070  0.4513  0.4873
   58SAPC   O22 4316   2.010   1.503  10.157  0.1139  0.3651 -0.8038
   58SAPC   C22 4317   1.854   1.310  10.113  0.6107 -0.5192 -0.0638
   58SAPC   H2R 4318   1.926   1.259  10.045  1.2800  0.6947 -0.2870
   58SAPC   H2S 4319   1.823   1.238  10.192  0.6892  0.7311  1.1467
   58SAPC    C3 4320   2.097   1.425  10.452 -0.3634  0.0104 -1.1028
   58SAPC    HX 4321   2.091   1.315  10.446 -1.0684  0.0169 -0.6822
   58SAPC    HY 4322   2.118   1.451  10.558  1.3391  2.4719 -1.9477
   58SAPC   O31 4323   2.200   1.463  10.359  0.2244  0.5529  0.0603
   58SAPC   C31 4324   2.278   1.559  10.401 -0.0601 -0.2111 -0.3399
   58SAPC   O32 4325   2.286   1.613  10.508  0.6090  0.4302  0.2460
   58SAPC   C32 4326   2.378   1.592  10.290 -0.5075 -0.3682  0.2268
   58SAPC   H2X 4327   2.324   1.585  10.193 -0.3152  1.7106 -0.0724
   58SAPC   H2Y 4328   2.462   1.521  10.305  0.2404  0.2301 -0.9975
   58SAPC   C23 4329   1.731   1.386  10.054 -0.3607 -0.3962 -0.7215
   58SAPC   H3R 4330   1.776   1.475  10.005  0.4621  0.8670  2.1514
   58SAPC   H3S 4331   1.661   1.430  10.128  0.7688  0.6519 -0.2434
   58SAPC   C24 4332   1.650   1.305   9.949 -0.6617  0.3580 -0.0161
   58SAPC   H4R 4333   1.601   1.221  10.002  0.8098 -0.2677  0.3869
   58SAPC   H4S 4334   1.731   1.266   9.883 -0.2168  1.0099  0.1350
   58SAPC   C25 4335   1.552   1.389   9.881  0.4639  0.2786  0.0859
   58SAPC   H5R 4336   1.479   1.431   9.952  0.5528  1.5891 -0.5552
   58SAPC   C26 4337   1.552   1.413   9.745  0.1984 -1.2327 -0.4192
   58SAPC   H6R 4338   1.471   1.482   9.718 -0.5138 -2.2846 -1.0450
   58SAPC   C27 4339   1.646   1.358   9.644 -0.2603 -0.7746 -0.0361
   58SAPC   H7R 4340   1.663   1.251   9.668  0.0550 -0.5168  0.9259
   58SAPC   H7S 4341   1.741   1.415   9.641 -0.1266 -0.9798  0.2368
   58SAPC   C28 4342   1.592   1.382   9.507 -0.1986  0.3592 -0.0981
   58SAPC   H8R 4343   1.488   1.353   9.486  0.0670  1.0881 -2.8268
   58SAPC   C29 4344   1.644   1.449   9.400  0.6109 -0.7256 -0.3537
   58SAPC   H9R 4345   1.581   1.447   9.310 -1.4528 -1.5425  1.0338
   58SAPC  C210 4346   1.778   1.513   9.380 -0.3878 -0.4677 -0.1852
   58SAPC  H10R 4347   1.838   1.441   9.439 -2.4910 -1.8782  0.3226
   58SAPC  H10S 4348   1.783   1.615   9.425 -0.9060  0.2548 -1.6836
   58SAPC  C211 4349   1.815   1.508   9.231  0.0802  0.2460 -0.6116
   58SAPC  H11R 4350   1.728   1.523   9.166  1.5132  1.7120 -2.3356
   58SAPC  C212 4351   1.930   1.516   9.169 -0.2288  0.4738 -0.5573
   58SAPC  H12R 4352   1.936   1.499   9.060 -0.1611  1.6492 -0.7487
   58SAPC  C213 4353   2.064   1.523   9.242 -0.4104 -0.6504  0.3896
   58SAPC  H13R 4354   2.047   1.524   9.352  1.6355 -0.9556  0.7404
   58SAPC  H13S 4355   2.102   1.626   9.225  0.2329 -1.1675 -1.4800
   58SAPC  C214 4356   2.164   1.421   9.204  0.0690  0.1787  0.3600
   58SAPC  H14R 4357   2.156   1.370   9.106  1.6387  0.4533  0.0553
   58SAPC  C215 4358   2.269   1.388   9.280  0.3224  0.4775  1.0152
   58SAPC  H15R 4359   2.346   1.321   9.240 -0.5331  1.0667 -1.8827
   58SAPC  C216 4360   2.299   1.453   9.414 -0.3911  1.0468 -0.1839
   58SAPC  H16R 4361   2.204   1.480   9.465 -0.8761 -2.6500  1.1708
   58SAPC  H16S 4362   2.373   1.536   9.406 -1.0358  1.5850 -0.7633
   58SAPC  C217 4363   2.359   1.350   9.512 -0.1457 -0.4310  0.1301
   58SAPC  H17R 4364   2.447   1.305   9.461 -0.8028  0.3211 -1.7725
   58SAPC  H17S 4365   2.290   1.266   9.535 -1.2785  0.6981  0.9187
   58SAPC  C218 4366   2.384   1.419   9.647 -0.7056  0.4161 -0.2648
   58SAPC  H18R 4367   2.298   1.486   9.667 -0.9287  0.5302 -1.5001
   58SAPC  H18S 4368   2.469   1.490   9.637 -0.3578  0.0211 -0.1455
   58SAPC  C219 4369   2.403   1.320   9.770 -0.4368 -0.1419  0.4341
   58SAPC  H19R 4370   2.490   1.253   9.751 -0.4210  0.1512 -0.5940
   58SAPC  H19S 4371   2.313   1.257   9.784 -0.8758  0.4455  0.2895
   58SAPC  C220 4372   2.416   1.407   9.891  0.8344 -0.7054 -0.1995
   58SAPC  H20R 4373   2.404   1.348   9.985  1.0485 -0.7325 -0.1888
   58SAPC  H20S 4374   2.331   1.479   9.884  0.0608 -1.6942 -1.4102
   58SAPC  H20T 4375   2.517   1.451   9.898  1.4641 -2.2904  2.1209
   58SAPC   C33 4376   2.439   1.734  10.297  0.0223  0.6989  0.2364
   58SAPC   H3X 4377   2.509   1.738  10.383  0.4378 -0.2087 -0.0488
   58SAPC   H3Y 4378   2.363   1.814  10.305 -0.0572  0.7943 -1.2512
   58SAPC   C34 4379   2.511   1.768  10.165  0.4219 -0.0945  0.3662
   58SAPC   H4X 4380   2.592   1.697  10.138 -1.2861 -2.6397  1.4922
   58SAPC   H4Y 4381   2.558   1.865  10.190  0.4300 -0.1725  0.6606
   58SAPC   C35 4382   2.420   1.777  10.033 -0.3539 -0.5580 -0.7236
   58SAPC   H5X 4383   2.349   1.861  10.047  1.2246  0.8811 -0.9639
   58SAPC   H5Y 4384   2.377   1.675  10.021 -0.2132 -0.7165  0.0861
   58SAPC   C36 4385   2.494   1.818   9.907 -0.3235 -0.0734  1.0280
   58SAPC   H6X 4386   2.579   1.746   9.897  0.4948  1.0021 -0.0996
   58SAPC   H6Y 4387   2.534   1.920   9.923  2.0790 -0.6201 -0.8815
   58SAPC   C37 4388   2.408   1.812   9.778  0.3059  0.7759 -1.0132
   58SAPC   H7X 4389   2.328   1.888   9.787 -0.2932  0.1757 -1.1969
   58SAPC   H7Y 4390   2.351   1.716   9.779 -0.0699  0.9986 -0.9318
   58SAPC   C38 4391   2.487   1.825   9.647 -0.3749 -0.4714  0.6064
   58SAPC   H8X 4392   2.562   1.743   9.642  1.8602  1.4909  0.0513
   58SAPC   H8Y 4393   2.548   1.917   9.651 -1.2757  0.2517 -1.1628
   58SAPC   C39 4394   2.380   1.837   9.535 -0.4883  0.2535 -0.4005
   58SAPC   H9X 4395   2.312   1.923   9.551  0.6513  0.9497  0.9266
   58SAPC   H9Y 4396   2.311   1.752   9.555  0.8566 -0.7416  0.1157
   58SAPC  C310 4397   2.439   1.845   9.391 -0.0375  0.2277 -0.4969
   58SAPC  H10X 4398   2.504   1.755   9.381 -0.5223  0.0040 -1.9374
   58SAPC  H10Y 4399   2.500   1.936   9.371  2.6574 -1.6609 -1.5434
   58SAPC  C311 4400   2.337   1.832   9.277 -0.2897  0.7409 -0.0056
   58SAPC  H11X 4401   2.256   1.909   9.283 -0.4768  0.5769 -0.4172
   58SAPC  H11Y 4402   2.282   1.736   9.278 -3.0982  2.1618 -1.9706
   58SAPC  C312 4403   2.403   1.835   9.137  0.3060  0.2690  0.8045
   58SAPC  H12X 4404   2.494   1.770   9.137  2.7936  3.5264  0.5463
   58SAPC  H12Y 4405   2.420   1.944   9.126  0.9427  0.4801  3.1938
   58SAPC  C313 4406   2.291   1.776   9.040 -0.1744 -0.4792 -0.2817
   58SAPC  H13X 4407   2.194   1.820   9.074 -0.7528 -2.5095  0.7945
   58SAPC  H13Y 4408   2.293   1.665   9.045  0.3348 -0.4509  0.1717
   58SAPC  C314 4409   2.326   1.825   8.894  0.6118 -0.3046 -0.5517
   58SAPC  H14X 4410   2.407   1.766   8.845  0.6230 -2.4271  1.8254
   58SAPC  H14Y 4411   2.355   1.931   8.905  0.2722  0.0409 -2.5750
   58SAPC  C315 4412   2.199   1.830   8.801 -0.2479  0.4373 -0.3338
   58SAPC  H15X 4413   2.228   1.883   8.707  1.0057  1.3196  0.5130
   58SAPC  H15Y 4414   2.128   1.892   8.859  0.1255  0.7882 -0.2423
   58SAPC  C316 4415   2.131   1.693   8.782 -0.1582  0.8314  0.2371
   58SAPC  H16X 4416   2.088   1.660   8.878 -0.0347  0.1746  0.0681
   58SAPC  H16Y 4417   2.212   1.620   8.761 -0.2148  0.7983  0.1355
   58SAPC  C317 4418   2.020   1.678   8.666 -0.2471 -0.2710 -0.2065
   58SAPC  H17X 4419   2.062   1.726   8.575  3.4437  0.5008  1.7342
   58SAPC  H17Y 4420   1.933   1.736   8.702 -1.2236 -1.0634 -1.1978
   58SAPC  C318 4421   1.984   1.536   8.630  0.4010  0.2932  0.3858
   58SAPC  H18X 4422   2.074   1.477   8.602  0.1905 -0.2163  0.7610
   58SAPC  H18Y 4423   1.903   1.520   8.556 -0.2048  1.9919  0.6485
   58SAPC  H18Z 4424   1.950   1.483   8.722  0.6918  1.1865  1.0271
   59SAPC     N 4425   3.829   2.730  11.240 -0.2203 -0.6475  0.0662
   59SAPC   C12 4426   3.718   2.749  11.135  0.4713  0.0209 -0.2507
   59SAPC  H12A 4427   3.700   2.855  11.123 -0.1582 -0.2326 -1.8043
   59SAPC  H12B 4428   3.633   2.693  11.171 -0.5936  0.2732 -2.2309
   59SAPC   C13 4429   3.765   2.754  11.377  0.5042 -0.4403  0.0737
   59SAPC  H13A 4430   3.681   2.690  11.402 -0.7533  1.2738  0.4127
   59SAPC  H13B 4431   3.836   2.749  11.458  1.8489  0.7162 -0.9937
   59SAPC  H13C 4432   3.719   2.851  11.382  0.2808 -0.5077 -0.5352
   59SAPC   C14 4433   3.881   2.588  11.226  0.1978  0.0822 -0.6348
   59SAPC  H14A 4434   3.951   2.563  11.305 -0.9706 -1.4112 -0.0208
   59SAPC  H14B 4435   3.804   2.513  11.223 -0.6456  0.8017  1.3041
   59SAPC  H14C 4436   3.933   2.581  11.131 -0.2913  0.0950 -0.9038
   59SAPC   C15 4437   3.944   2.821  11.213  0.4742 -0.4195  0.0255
   59SAPC  H15A 4438   3.909   2.922  11.228  0.1154 -0.7443  1.4692
   59SAPC  H15B 4439   4.015   2.802  11.292 -0.2088 -1.5615  0.3956
   59SAPC  H15C 4440   3.991   2.798  11.119 -0.4222 -2.4081 -0.0035
   59SAPC   C11 4441   3.749   2.694  10.990 -0.3635  0.2391 -0.3161
   59SAPC  H11A 4442   3.856   2.712  10.965 -0.8827  2.6143 -1.0510
   59SAPC  H11B 4443   3.688   2.753  10.919  0.5968  0.2818 -1.1302
   59SAPC     P 4444   3.561   2.502  11.030  0.3499 -0.0967 -0.0567
   59SAPC   O13 4445   3.544   2.358  10.990 -0.0415 -0.2995 -0.0568
   59SAPC   O14 4446   3.541   2.539  11.175  0.7632  0.1142 -0.6122
   59SAPC   O12 4447   3.707   2.555  10.985  0.5370  0.3413 -0.2250
   59SAPC   O11 4448   3.457   2.587  10.945  0.0586  0.3339  0.1881
   59SAPC    C1 4449   3.424   2.543  10.815  0.4918  0.3592 -0.0501
   59SAPC    HA 4450   3.397   2.435  10.812  1.2681  0.0439  2.1602
   59SAPC    HB 4451   3.330   2.592  10.781 -1.0063 -0.3950  2.6827
   59SAPC    C2 4452   3.528   2.573  10.706 -0.7303  0.1245  0.1622
   59SAPC    HS 4453   3.623   2.520  10.731 -1.4362 -1.4814 -0.3958
   59SAPC   O21 4454   3.542   2.716  10.688 -0.2648  0.6135 -0.0908
   59SAPC   C21 4455   3.650   2.753  10.632 -0.4236 -0.3469 -0.6422
   59SAPC   O22 4456   3.759   2.696  10.627 -0.2799 -0.3397 -0.0755
   59SAPC   C22 4457   3.640   2.894  10.591  0.0235 -0.6568  0.2806
   59SAPC   H2R 4458   3.537   2.928  10.565  0.0695  0.7786  1.8281
   59SAPC   H2S 4459   3.670   2.955  10.679  1.6684 -0.7046 -0.2166
   59SAPC    C3 4460   3.483   2.498  10.580 -0.1014  0.5289 -0.4665
   59SAPC    HX 4461   3.374   2.512  10.564 -0.0325 -0.1972 -1.7157
   59SAPC    HY 4462   3.496   2.388  10.586 -1.6282  0.3456 -0.2452
   59SAPC   O31 4463   3.551   2.551  10.468 -0.1214  0.1944  0.0437
   59SAPC   C31 4464   3.544   2.468  10.358  0.3469  0.8560 -0.5401
   59SAPC   O32 4465   3.462   2.379  10.349  0.2686  0.0259 -0.8364
   59SAPC   C32 4466   3.657   2.488  10.257  0.2638  0.4426 -0.1306
   59SAPC   H2X 4467   3.714   2.393  10.248  1.8524  1.4818 -1.3494
   59SAPC   H2Y 4468   3.731   2.565  10.288 -0.0860  1.4147 -1.6511
   59SAPC   C23 4469   3.734   2.929  10.469 -0.3065  0.0884 -0.3601
   59SAPC   H3R 4470   3.785   2.848  10.412  2.0238  2.8456 -2.5166
   59SAPC   H3S 4471   3.821   2.984  10.510 -1.1652  1.3141 -0.1448
   59SAPC   C24 4472   3.679   3.027  10.361 -0.2409  0.0946  0.3773
   59SAPC   H4R 4473   3.758   3.089  10.313 -2.1107  0.3549 -2.5971
   59SAPC   H4S 4474   3.611   3.100  10.412  0.1010 -0.3729  1.5442
   59SAPC   C25 4475   3.600   2.950  10.263  0.8106 -0.0321  1.0279
   59SAPC   H5R 4476   3.520   2.913  10.329 -1.5528  0.6375 -1.2570
   59SAPC   C26 4477   3.619   2.933  10.127  0.5241 -0.1229 -0.1719
   59SAPC   H6R 4478   3.541   2.875  10.076  0.3720 -0.8288  0.8544
   59SAPC   C27 4479   3.726   2.994  10.038  0.2907 -0.5335 -0.2991
   59SAPC   H7R 4480   3.750   3.092  10.084 -1.2600  0.2749 -1.1552
   59SAPC   H7S 4481   3.689   3.007   9.935 -0.9539 -2.4845 -0.1446
   59SAPC   C28 4482   3.838   2.903  10.047 -0.0383  1.2512  1.0609
   59SAPC   H8R 4483   3.858   2.864  10.148 -1.7117  0.1376  1.0104
   59SAPC   C29 4484   3.923   2.855   9.953 -0.5595  0.0416  1.0813
   59SAPC   H9R 4485   3.997   2.782   9.987  1.3904  1.7620  0.7311
   59SAPC  C210 4486   3.938   2.883   9.803  0.7926  0.2043  0.0929
   59SAPC  H10R 4487   3.863   2.959   9.771 -0.0649 -0.1569  1.1632
   59SAPC  H10S 4488   3.897   2.795   9.750  0.0142 -0.9150  2.4174
   59SAPC  C211 4489   4.075   2.909   9.746 -0.0491  0.1450 -0.5194
   59SAPC  H11R 4490   4.158   2.893   9.817 -0.5905 -1.3121 -0.1862
   59SAPC  C212 4491   4.096   2.950   9.619  0.1259 -0.6950 -0.0365
   59SAPC  H12R 4492   4.201   2.948   9.585 -0.2514  0.0095 -1.3028
   59SAPC  C213 4493   3.987   2.982   9.521  0.5535  0.1853  0.2683
   59SAPC  H13R 4494   4.030   3.044   9.440 -0.9823  0.3994 -0.4234
   59SAPC  H13S 4495   3.920   3.062   9.561 -0.7750  1.1323 -3.4581
   59SAPC  C214 4496   3.901   2.873   9.466 -0.0563 -0.2558  0.4084
   59SAPC  H14R 4497   3.906   2.781   9.526 -0.4740  1.3585  3.0965
   59SAPC  C215 4498   3.829   2.879   9.348 -0.9780 -0.2953  0.3397
   59SAPC  H15R 4499   3.781   2.786   9.313 -1.1122  0.4401 -1.5508
   59SAPC  C216 4500   3.836   3.001   9.254 -0.2180  0.3135 -0.4661
   59SAPC  H16R 4501   3.847   3.098   9.307  0.3496 -0.4335  0.8160
   59SAPC  H16S 4502   3.744   3.011   9.192 -0.6623 -2.3090 -0.3410
   59SAPC  C217 4503   3.959   2.988   9.155  0.8170 -0.2915 -0.2217
   59SAPC  H17R 4504   4.045   2.958   9.219  1.1032  0.1733 -0.3808
   59SAPC  H17S 4505   3.974   3.088   9.109  1.2991 -0.1485  0.2438
   59SAPC  C218 4506   3.938   2.886   9.038  0.1719  0.3721  1.0582
   59SAPC  H18R 4507   3.849   2.906   8.974  0.7440 -1.0010 -0.2167
   59SAPC  H18S 4508   3.912   2.786   9.078 -0.4839  0.5975  1.2033
   59SAPC  C219 4509   4.061   2.866   8.946 -0.3725  0.1116 -0.1524
   59SAPC  H19R 4510   4.082   2.966   8.900 -0.7207  0.7615  1.0561
   59SAPC  H19S 4511   4.032   2.794   8.866  0.3413 -0.2111 -0.1292
   59SAPC  C220 4512   4.187   2.810   9.009  0.6084 -0.5773 -0.4303
   59SAPC  H20R 4513   4.161   2.733   9.084  2.9107 -1.4001 -0.3741
   59SAPC  H20S 4514   4.248   2.882   9.068 -0.7113  0.2668 -0.0469
   59SAPC  H20T 4515   4.246   2.759   8.930 -0.7305  1.9835 -3.2999
   59SAPC   C33 4516   3.603   2.527  10.117  0.3798  0.2322 -0.5017
   59SAPC   H3X 4517   3.555   2.627  10.128 -0.2225 -0.2210  1.4877
   59SAPC   H3Y 4518   3.528   2.452  10.083  0.4953 -0.0939 -0.0526
   59SAPC   C34 4519   3.708   2.528  10.005 -0.5737  0.6740 -0.4292
   59SAPC   H4X 4520   3.783   2.447  10.019 -0.5003  1.2694  4.1965
   59SAPC   H4Y 4521   3.770   2.620  10.008 -1.2187  1.1608 -1.3226
   59SAPC   C35 4522   3.655   2.529   9.862  0.6459 -0.0487 -1.1093
   59SAPC   H5X 4523   3.605   2.626   9.843  0.2580  0.0776  0.4704
   59SAPC   H5Y 4524   3.580   2.448   9.852  0.9442 -0.5428  0.3794
   59SAPC   C36 4525   3.766   2.512   9.757  0.2349 -0.6420  0.3287
   59SAPC   H6X 4526   3.829   2.420   9.764 -2.9151 -2.8325  2.9632
   59SAPC   H6Y 4527   3.824   2.606   9.758 -1.3706  0.4021 -0.4939
   59SAPC   C37 4528   3.706   2.508   9.616 -0.2928 -0.6988 -0.5413
   59SAPC   H7X 4529   3.636   2.593   9.609  0.1435  0.0154  2.3634
   59SAPC   H7Y 4530   3.652   2.412   9.605  0.6077 -1.4700  1.2545
   59SAPC   C38 4531   3.824   2.506   9.522  0.1094 -0.1526  0.0931
   59SAPC   H8X 4532   3.877   2.413   9.552  0.2476  0.1998  0.9925
   59SAPC   H8Y 4533   3.895   2.590   9.537  0.9194 -0.6271 -0.9185
   59SAPC   C39 4534   3.763   2.496   9.378  0.1848  0.0642 -0.7645
   59SAPC   H9X 4535   3.711   2.593   9.361 -0.6027 -0.2905 -0.4053
   59SAPC   H9Y 4536   3.700   2.407   9.362 -0.0078 -0.0380  0.4501
   59SAPC  C310 4537   3.873   2.487   9.279 -0.9264 -0.3087  0.5828
   59SAPC  H10X 4538   3.935   2.396   9.291 -2.6626 -1.4479  1.2826
   59SAPC  H10Y 4539   3.942   2.574   9.288  0.7866 -1.6941  1.5716
   59SAPC  C311 4540   3.812   2.487   9.136  0.2583 -0.1805 -0.3686
   59SAPC  H11X 4541   3.742   2.572   9.123 -1.6336 -1.4249  1.0780
   59SAPC  H11Y 4542   3.756   2.393   9.116 -2.3673  1.1497  0.2256
   59SAPC  C312 4543   3.922   2.478   9.028  0.5531  0.0359  0.1386
   59SAPC  H12X 4544   3.986   2.389   9.047  1.0931  0.4898  0.4581
   59SAPC  H12Y 4545   3.989   2.566   9.039  1.7551 -1.0449  1.9514
   59SAPC  C313 4546   3.853   2.474   8.887  0.3444 -0.1122 -0.5900
   59SAPC  H13X 4547   3.804   2.573   8.886 -0.5902 -0.4813  1.6449
   59SAPC  H13Y 4548   3.778   2.392   8.879 -0.3737  0.4853 -0.1103
   59SAPC  C314 4549   3.948   2.457   8.764 -0.7050  0.0376  0.0657
   59SAPC  H14X 4550   4.004   2.361   8.769  0.0712  0.5130  0.9657
   59SAPC  H14Y 4551   4.034   2.527   8.759 -1.0031  0.4609  0.7246
   59SAPC  C315 4552   3.879   2.469   8.631 -0.6470 -0.6462  0.1784
   59SAPC  H15X 4553   3.844   2.574   8.625 -0.9986 -0.7100  0.9478
   59SAPC  H15Y 4554   3.791   2.402   8.638 -2.2184  1.0048 -2.1954
   59SAPC  C316 4555   3.973   2.425   8.522 -0.2788 -0.1053  0.0317
   59SAPC  H16X 4556   4.014   2.332   8.567 -1.6993 -1.1616 -0.7844
   59SAPC  H16Y 4557   4.057   2.499   8.517  0.1742 -0.5381  0.9550
   59SAPC  C317 4558   3.916   2.391   8.385 -0.3342 -0.3826  0.4111
   59SAPC  H17X 4559   3.999   2.351   8.323  0.1612  1.2635 -0.0395
   59SAPC  H17Y 4560   3.858   2.480   8.352  1.0939  0.2793 -0.3860
   59SAPC  C318 4561   3.810   2.285   8.381 -0.3982  0.0496 -0.5435
   59SAPC  H18X 4562   3.846   2.194   8.433 -1.3636  0.3875  0.7831
   59SAPC  H18Y 4563   3.782   2.249   8.280 -2.5054  0.1232 -0.0234
   59SAPC  H18Z 4564   3.712   2.320   8.420 -0.6028 -2.0632  0.9603
   60SAPC     N 4565   5.475   0.188  10.639  0.2294  0.0702 -0.1140
   60SAPC   C12 4566   5.399   0.106  10.749 -0.0452  1.1148  0.3915
   60SAPC  H12A 4567   5.326   0.164  10.803  1.1269  0.7295  2.4964
   60SAPC  H12B 4568   5.461   0.087  10.835 -0.7402 -0.5989  0.5649
   60SAPC   C13 4569   5.557   0.291  10.706  0.7145 -0.8813 -0.4480
   60SAPC  H13A 4570   5.623   0.340  10.637 -0.5349  0.2710 -0.8786
   60SAPC  H13B 4571   5.500   0.367  10.756  0.9493 -0.4132 -0.8821
   60SAPC  H13C 4572   5.619   0.241  10.778  0.3078 -1.6198 -0.5961
   60SAPC   C14 4573   5.567   0.096  10.571 -0.7621  0.2646 -0.1486
   60SAPC  H14A 4574   5.523   0.020  10.508  2.0945 -2.0389  0.4147
   60SAPC  H14B 4575   5.630   0.160  10.511 -0.1190  0.2632  0.5074
   60SAPC  H14C 4576   5.643   0.056  10.636  0.0475  1.4027 -0.3652
   60SAPC   C15 4577   5.376   0.251  10.541 -0.3405  0.4410 -0.3821
   60SAPC  H15A 4578   5.331   0.168  10.489  2.2359 -0.6285 -1.0627
   60SAPC  H15B 4579   5.297   0.305  10.591 -0.3488 -0.5029  0.6816
   60SAPC  H15C 4580   5.423   0.315  10.468 -0.2231  1.2746  0.4026
   60SAPC   C11 4581   5.328  -0.029  10.714 -0.1908  0.0310  0.2738
   60SAPC  H11A 4582   5.308  -0.086  10.807  4.0865 -0.6664  0.9942
   60SAPC  H11B 4583   5.402  -0.089  10.656 -0.3314 -0.2391  0.3719
   60SAPC     P 4584   5.067   0.012  10.682  0.4563  0.0445  0.0811
   60SAPC   O13 4585   5.013  -0.111  10.746 -0.4761 -0.3496 -0.2864
   60SAPC   O14 4586   5.061   0.137  10.759 -0.6204  0.6100 -0.2929
   60SAPC   O12 4587   5.219  -0.010  10.623  0.0338  0.4216  0.3493
   60SAPC   O11 4588   4.989   0.038  10.549  0.5059  0.1859 -0.2230
   60SAPC    C1 4589   5.030   0.136  10.452 -0.9108 -0.2015 -1.1161
   60SAPC    HA 4590   5.124   0.186  10.484 -0.6918 -1.7122  0.7831
   60SAPC    HB 4591   5.054   0.088  10.354 -0.9917 -0.3818 -1.0490
   60SAPC    C2 4592   4.912   0.233  10.418 -0.0007 -0.3376 -0.0174
   60SAPC    HS 4593   4.839   0.243  10.502 -0.4742  0.8485 -0.5410
   60SAPC   O21 4594   4.850   0.176  10.297  0.4860 -0.1322 -0.1018
   60SAPC   C21 4595   4.722   0.215  10.287 -0.3151  0.4693 -0.3723
   60SAPC   O22 4596   4.651   0.263  10.368  0.2021  0.2130 -0.9805
   60SAPC   C22 4597   4.683   0.213  10.137  0.3821 -0.1842 -0.1539
   60SAPC   H2R 4598   4.744   0.136  10.084  1.4503  1.6753 -1.7390
   60SAPC   H2S 4599   4.577   0.178  10.134  0.3889 -0.1621 -1.3001
   60SAPC    C3 4600   4.960   0.382  10.391  0.9189  0.4168  0.0941
   60SAPC    HX 4601   5.028   0.403  10.476  0.9983 -3.8654  1.3310
   60SAPC    HY 4602   4.868   0.444  10.396  0.4023 -0.4481  2.2962
   60SAPC   O31 4603   5.012   0.414  10.261  0.7944  0.1450 -0.1998
   60SAPC   C31 4604   5.147   0.398  10.244 -0.1978 -0.3379 -0.2268
   60SAPC   O32 4605   5.218   0.368  10.335 -0.0511  0.0015 -0.4229
   60SAPC   C32 4606   5.184   0.410  10.098  0.5820 -0.2496  0.2997
   60SAPC   H2X 4607   5.262   0.488  10.085 -0.5467  1.0109  0.9105
   60SAPC   H2Y 4608   5.092   0.452  10.052  0.8440  0.3118  0.2818
   60SAPC   C23 4609   4.704   0.361  10.080  0.5638 -0.3500  0.0774
   60SAPC   H3R 4610   4.811   0.390  10.094  0.6421 -0.4170 -0.3689
   60SAPC   H3S 4611   4.633   0.428  10.133  1.6928 -0.4953  1.8715
   60SAPC   C24 4612   4.672   0.372   9.930 -0.0412  0.1278 -0.2207
   60SAPC   H4R 4613   4.667   0.481   9.912  2.5346  0.9750  3.2130
   60SAPC   H4S 4614   4.571   0.328   9.915 -0.6103  1.5814 -0.7899
   60SAPC   C25 4615   4.779   0.316   9.842 -0.0357 -0.1109  0.3969
   60SAPC   H5R 4616   4.878   0.351   9.872  1.0471 -1.0249 -1.8596
   60SAPC   C26 4617   4.766   0.242   9.732 -0.6141 -0.2265 -0.3545
   60SAPC   H6R 4618   4.854   0.220   9.669  0.2891  2.7533 -0.3136
   60SAPC   C27 4619   4.638   0.197   9.674  0.2523 -0.3536 -0.1217
   60SAPC   H7R 4620   4.593   0.264   9.599 -0.2204  0.1287  0.5836
   60SAPC   H7S 4621   4.557   0.206   9.750 -0.7556  1.5090 -1.3455
   60SAPC   C28 4622   4.645   0.055   9.628  0.0776 -0.3826 -0.2916
   60SAPC   H8R 4623   4.621  -0.018   9.707 -1.2013  1.0473  0.7094
   60SAPC   C29 4624   4.672   0.019   9.502 -0.7252  0.0945  1.2088
   60SAPC   H9R 4625   4.670  -0.089   9.481  0.2360  0.0001  1.5640
   60SAPC  C210 4626   4.698   0.114   9.382 -0.2292  0.1475 -0.3483
   60SAPC  H10R 4627   4.807   0.107   9.365 -0.1309  0.6141  0.0788
   60SAPC  H10S 4628   4.669   0.218   9.405  1.5404  0.9170 -1.4626
   60SAPC  C211 4629   4.618   0.071   9.258  0.3626 -0.9571  0.2313
   60SAPC  H11R 4630   4.535   0.003   9.283 -1.8423  0.9627 -1.4370
   60SAPC  C212 4631   4.631   0.120   9.129  0.5110  0.1887  0.2788
   60SAPC  H12R 4632   4.558   0.082   9.055  1.9360  1.1129 -1.7014
   60SAPC  C213 4633   4.719   0.237   9.091 -0.0409  0.3062 -0.4419
   60SAPC  H13R 4634   4.813   0.202   9.043 -0.6742  0.1242 -1.5844
   60SAPC  H13S 4635   4.752   0.287   9.184 -0.9327  2.9418 -1.4279
   60SAPC  C214 4636   4.652   0.342   9.002 -0.7447  0.6492 -0.1550
   60SAPC  H14R 4637   4.579   0.406   9.055 -1.0668  1.1560 -1.1886
   60SAPC  C215 4638   4.652   0.353   8.869  0.1719 -0.2975  0.1810
   60SAPC  H15R 4639   4.594   0.430   8.817  1.4479  0.9790  0.5778
   60SAPC  C216 4640   4.717   0.263   8.777 -0.1183 -0.2385  0.4398
   60SAPC  H16R 4641   4.769   0.176   8.821  0.9007 -0.3683 -0.9626
   60SAPC  H16S 4642   4.787   0.328   8.720 -1.0605  0.5052  0.0908
   60SAPC  C217 4643   4.628   0.207   8.655 -0.0321  0.8752 -0.4270
   60SAPC  H17R 4644   4.553   0.147   8.710 -0.1107  0.7741 -0.6438
   60SAPC  H17S 4645   4.696   0.136   8.602  0.5097  1.7075 -0.8676
   60SAPC  C218 4646   4.570   0.309   8.567 -0.3775  0.5596 -0.2400
   60SAPC  H18R 4647   4.504   0.374   8.627 -0.5195 -0.1978  0.4352
   60SAPC  H18S 4648   4.512   0.252   8.490  2.7826 -1.1488 -1.5481
   60SAPC  C219 4649   4.663   0.406   8.499 -0.0659 -0.2616  0.7271
   60SAPC  H19R 4650   4.728   0.456   8.574 -0.7797 -0.8128  1.7448
   60SAPC  H19S 4651   4.611   0.494   8.455  0.8846  0.6421  1.3688
   60SAPC  C220 4652   4.746   0.359   8.374  0.4366 -0.4564 -0.4173
   60SAPC  H20R 4653   4.796   0.264   8.402  0.5092  0.5423  3.4574
   60SAPC  H20S 4654   4.811   0.439   8.332 -1.2093  0.8857 -0.5054
   60SAPC  H20T 4655   4.682   0.322   8.291  4.4148 -2.2196 -3.0086
   60SAPC   C33 4656   5.233   0.282  10.038  0.5680 -0.2707  0.0684
   60SAPC   H3X 4657   5.166   0.201  10.075  1.2789 -1.0930 -0.4134
   60SAPC   H3Y 4658   5.331   0.255  10.083  0.8945 -1.5505 -1.3355
   60SAPC   C34 4659   5.250   0.277   9.881 -0.0482 -0.2386 -0.1059
   60SAPC   H4X 4660   5.152   0.302   9.836 -0.7380 -3.4317 -0.5997
   60SAPC   H4Y 4661   5.261   0.172   9.850  0.4690 -0.5024  0.9368
   60SAPC   C35 4662   5.365   0.367   9.825  0.7013 -0.4604  0.8506
   60SAPC   H5X 4663   5.460   0.326   9.865 -0.3621 -2.0806  1.8235
   60SAPC   H5Y 4664   5.357   0.469   9.869  1.0156  0.2863 -0.7641
   60SAPC   C36 4665   5.379   0.380   9.674  0.0138  0.3695 -0.0556
   60SAPC   H6X 4666   5.286   0.425   9.633 -0.5361 -0.5498  0.1628
   60SAPC   H6Y 4667   5.378   0.281   9.625 -0.8239  0.5117 -0.3409
   60SAPC   C37 4668   5.512   0.438   9.624 -0.2275 -0.5580  0.1802
   60SAPC   H7X 4669   5.592   0.372   9.665 -1.9124 -1.7431  1.6983
   60SAPC   H7Y 4670   5.511   0.540   9.668 -3.0974 -0.8510  0.9777
   60SAPC   C38 4671   5.514   0.434   9.474  0.0856 -0.1722  0.4023
   60SAPC   H8X 4672   5.435   0.498   9.427 -0.7234 -1.6445 -0.3041
   60SAPC   H8Y 4673   5.498   0.336   9.424  0.1549  0.0929 -0.1563
   60SAPC   C39 4674   5.641   0.489   9.403 -0.1938  0.2395 -0.4190
   60SAPC   H9X 4675   5.740   0.448   9.434  0.1600 -0.2595 -2.0783
   60SAPC   H9Y 4676   5.649   0.598   9.420  0.1637  0.5736 -2.4573
   60SAPC  C310 4677   5.620   0.470   9.256  0.6357 -0.2493  0.7186
   60SAPC  H10X 4678   5.549   0.541   9.208 -0.0664  0.3060  2.4656
   60SAPC  H10Y 4679   5.581   0.375   9.215  1.2147  0.1751 -0.8928
   60SAPC  C311 4680   5.757   0.512   9.195  1.4416 -0.1989  1.1882
   60SAPC  H11X 4681   5.848   0.454   9.220  3.6057  1.5566 -1.8531
   60SAPC  H11Y 4682   5.777   0.612   9.239 -0.1107  0.6395  0.0885
   60SAPC  C312 4683   5.755   0.505   9.040 -0.2664  0.5117 -0.2459
   60SAPC  H12X 4684   5.672   0.568   9.000 -0.5802  0.7731  0.7845
   60SAPC  H12Y 4685   5.736   0.399   9.014  2.1392  0.1104 -0.5540
   60SAPC  C313 4686   5.874   0.559   8.970 -0.4566  0.4592 -0.4224
   60SAPC  H13X 4687   5.856   0.526   8.866 -3.3423 -1.4638  0.5329
   60SAPC  H13Y 4688   5.970   0.515   9.004 -0.1173  2.8157  2.0095
   60SAPC  C314 4689   5.885   0.709   8.979 -0.0096 -0.1280 -1.0329
   60SAPC  H14X 4690   5.916   0.730   9.084 -2.7259  0.0659 -0.1862
   60SAPC  H14Y 4691   5.781   0.743   8.959 -0.4820 -1.3122 -0.6629
   60SAPC  C315 4692   5.984   0.774   8.886  0.3323  0.3080  0.6857
   60SAPC  H15X 4693   5.924   0.781   8.793 -0.1567 -0.5780  0.9146
   60SAPC  H15Y 4694   6.070   0.709   8.862 -1.5403 -1.1924 -2.6395
   60SAPC  C316 4695   6.032   0.915   8.937 -0.4400  0.4408  0.4932
   60SAPC  H16X 4696   6.089   0.891   9.029  0.5761  1.8554  0.2484
   60SAPC  H16Y 4697   5.940   0.972   8.963 -1.5681 -1.2926  0.5009
   60SAPC  C317 4698   6.113   0.992   8.838 -0.3852  0.5263 -0.0918
   60SAPC  H17X 4699   6.050   1.037   8.758 -0.1413 -0.0168 -0.6031
   60SAPC  H17Y 4700   6.189   0.920   8.800  0.5595  0.6670  1.4268
   60SAPC  C318 4701   6.184   1.099   8.917 -0.5425 -0.4757 -0.6873
   60SAPC  H18X 4702   6.268   1.146   8.861  0.6276 -1.6210  0.0491
   60SAPC  H18Y 4703   6.223   1.076   9.019  0.1776  0.0912 -0.8269
   60SAPC  H18Z 4704   6.106   1.175   8.939 -0.6913 -0.9187  0.3942
   61SAPC     N 4705   5.542   1.367  10.892  0.2552 -0.3703  0.0380
   61SAPC   C12 4706   5.682   1.303  10.899 -0.3680 -0.5822 -0.9089
   61SAPC  H12A 4707   5.709   1.277  11.001 -2.5953 -0.3987 -0.2229
   61SAPC  H12B 4708   5.755   1.378  10.871 -2.0741  0.8311 -1.7103
   61SAPC   C13 4709   5.444   1.262  10.932 -0.2460 -0.2151 -0.7828
   61SAPC  H13A 4710   5.463   1.212  11.026 -1.1460  0.0009 -0.4727
   61SAPC  H13B 4711   5.344   1.305  10.933  0.5256  1.6501  0.3725
   61SAPC  H13C 4712   5.445   1.190  10.851  0.4939  0.4601 -1.3838
   61SAPC   C14 4713   5.530   1.481  10.978  0.1402 -0.5036 -0.3696
   61SAPC  H14A 4714   5.598   1.560  10.948 -0.0890  1.4424  3.5474
   61SAPC  H14B 4715   5.431   1.523  10.982 -0.4376 -1.8975  2.7814
   61SAPC  H14C 4716   5.562   1.460  11.079 -0.6753  0.2558  0.0541
   61SAPC   C15 4717   5.507   1.403  10.749 -0.3205 -0.0039  0.2644
   61SAPC  H15A 4718   5.418   1.463  10.741 -0.5488 -0.3590  0.1096
   61SAPC  H15B 4719   5.582   1.461  10.698  0.2409 -1.2956 -0.4321
   61SAPC  H15C 4720   5.485   1.316  10.688 -2.6275  0.9102 -0.3159
   61SAPC   C11 4721   5.717   1.174  10.819  0.2198 -0.0155 -1.1425
   61SAPC  H11A 4722   5.725   1.189  10.710  2.7928 -2.4375 -1.3801
   61SAPC  H11B 4723   5.623   1.115  10.822 -0.2968  0.7312 -2.1437
   61SAPC     P 4724   5.850   0.961  10.930 -0.1856 -0.0316  0.1086
   61SAPC   O13 4725   5.988   0.942  10.966 -0.0346 -0.1464  0.0193
   61SAPC   O14 4726   5.747   0.942  11.040 -0.7982  0.7874  0.6681
   61SAPC   O12 4727   5.833   1.106  10.874 -0.3054 -0.0802 -0.1787
   61SAPC   O11 4728   5.833   0.856  10.816  0.3292 -0.7785  0.4485
   61SAPC    C1 4729   5.724   0.843  10.726 -0.0508 -0.2476  0.2143
   61SAPC    HA 4730   5.640   0.787  10.772 -0.3965  0.5873  0.6256
   61SAPC    HB 4731   5.689   0.943  10.691  0.5068  0.2464  1.0302
   61SAPC    C2 4732   5.770   0.757  10.604 -0.0807  0.2790  0.7503
   61SAPC    HS 4733   5.786   0.655  10.644  3.6356  0.4296  0.0697
   61SAPC   O21 4734   5.907   0.807  10.560 -0.3450 -0.0335 -0.7388
   61SAPC   C21 4735   5.982   0.703  10.510 -0.3268 -0.2765 -0.5690
   61SAPC   O22 4736   5.941   0.591  10.499 -0.7427  0.2508  0.2333
   61SAPC   C22 4737   6.118   0.759  10.469  0.6139  0.0441  0.0797
   61SAPC   H2R 4738   6.127   0.866  10.497  0.9413  0.2980 -0.9817
   61SAPC   H2S 4739   6.201   0.704  10.519  0.5326 -0.1101  0.0460
   61SAPC    C3 4740   5.665   0.764  10.482  0.8381 -0.4396 -0.6161
   61SAPC    HX 4741   5.571   0.717  10.518 -0.0537  1.3213 -0.5462
   61SAPC    HY 4742   5.704   0.715  10.390  1.3565 -1.7239  0.2667
   61SAPC   O31 4743   5.636   0.903  10.454 -0.2912  0.2149 -0.6130
   61SAPC   C31 4744   5.711   0.966  10.358 -0.1475 -0.2405 -0.3812
   61SAPC   O32 4745   5.790   0.906  10.292 -0.1714 -0.6536 -0.2020
   61SAPC   C32 4746   5.663   1.111  10.350  0.3947  0.1721  0.2155
   61SAPC   H2X 4747   5.686   1.158  10.448 -0.4606 -0.5584  0.7850
   61SAPC   H2Y 4748   5.552   1.118  10.355  0.3028 -0.4149 -0.7373
   61SAPC   C23 4749   6.130   0.744  10.310 -0.6737  0.0781  0.3530
   61SAPC   H3R 4750   6.064   0.807  10.247  2.4907  1.6457 -1.6868
   61SAPC   H3S 4751   6.127   0.635  10.290  1.0815 -0.0062  0.3512
   61SAPC   C24 4752   6.271   0.781  10.276  0.3375  0.4195  0.4276
   61SAPC   H4R 4753   6.350   0.716  10.318 -0.2919  0.5660  1.8902
   61SAPC   H4S 4754   6.291   0.880  10.323 -0.1915  1.3730 -1.2615
   61SAPC   C25 4755   6.284   0.790  10.119 -0.7316  0.5874 -0.1928
   61SAPC   H5R 4756   6.234   0.872  10.066  1.6534  2.3303  0.1366
   61SAPC   C26 4757   6.340   0.699  10.040 -0.5887 -0.1107 -0.1697
   61SAPC   H6R 4758   6.344   0.725   9.933 -0.5657  2.5277  0.4135
   61SAPC   C27 4759   6.410   0.576  10.085 -0.0651 -0.4602 -0.3864
   61SAPC   H7R 4760   6.417   0.511   9.994 -0.4890  1.0852 -1.5631
   61SAPC   H7S 4761   6.346   0.524  10.159 -1.4867  0.7233 -0.7450
   61SAPC   C28 4762   6.544   0.590  10.154 -0.4603  0.6236 -0.2134
   61SAPC   H8R 4763   6.540   0.652  10.246 -3.0244  1.3861 -0.7387
   61SAPC   C29 4764   6.658   0.544  10.100  0.0558 -0.0459 -0.2666
   61SAPC   H9R 4765   6.751   0.564  10.156  0.2334 -2.5773  0.4685
   61SAPC  C210 4766   6.671   0.474   9.965 -0.5692  0.7216 -0.2964
   61SAPC  H10R 4767   6.620   0.375   9.965  1.6590 -0.4859  0.3006
   61SAPC  H10S 4768   6.779   0.451   9.965 -0.3849  1.0620  2.8718
   61SAPC  C211 4769   6.653   0.555   9.839 -0.5335 -0.1379 -0.4222
   61SAPC  H11R 4770   6.635   0.661   9.858  0.4957 -0.1572  0.7923
   61SAPC  C212 4771   6.679   0.518   9.714  0.0583  0.1222  0.3144
   61SAPC  H12R 4772   6.661   0.586   9.629 -1.3039 -0.5810  0.0265
   61SAPC  C213 4773   6.736   0.381   9.664  0.7609 -0.1122 -0.0732
   61SAPC  H13R 4774   6.758   0.314   9.749  1.8029 -0.0518 -0.2779
   61SAPC  H13S 4775   6.833   0.395   9.611  1.8616  0.0610  1.8896
   61SAPC  C214 4776   6.635   0.311   9.581  0.7535  0.1700 -0.2828
   61SAPC  H14R 4777   6.529   0.312   9.613 -0.5211 -1.1728 -3.9853
   61SAPC  C215 4778   6.661   0.252   9.462  0.1440  1.0561  0.3955
   61SAPC  H15R 4779   6.579   0.199   9.411  1.0551  1.0150 -1.1091
   61SAPC  C216 4780   6.795   0.240   9.394  0.3518 -0.8108 -0.3787
   61SAPC  H16R 4781   6.799   0.137   9.353  1.1239  0.2130 -3.1100
   61SAPC  H16S 4782   6.883   0.241   9.462  0.6543 -1.9576 -0.7356
   61SAPC  C217 4783   6.829   0.342   9.277  0.2248  0.3760  0.6352
   61SAPC  H17R 4784   6.910   0.295   9.217  1.1180  0.2652  1.8937
   61SAPC  H17S 4785   6.884   0.423   9.329  1.3652 -0.0915  0.1920
   61SAPC  C218 4786   6.716   0.393   9.192  0.0746  0.8362  0.1079
   61SAPC  H18R 4787   6.648   0.467   9.239 -4.2088 -1.5537 -1.7719
   61SAPC  H18S 4788   6.654   0.305   9.165 -1.1808  1.8161 -0.3219
   61SAPC  C219 4789   6.742   0.443   9.047 -0.7090 -0.1559  0.4242
   61SAPC  H19R 4790   6.840   0.494   9.057 -0.5414 -0.2915 -0.4203
   61SAPC  H19S 4791   6.669   0.521   9.017  0.4591  0.2618 -1.4388
   61SAPC  C220 4792   6.761   0.325   8.939 -0.0815  0.0728 -0.1062
   61SAPC  H20R 4793   6.854   0.280   8.982  0.8024 -0.5300 -2.5156
   61SAPC  H20S 4794   6.778   0.365   8.837  0.6953  1.1712  0.4319
   61SAPC  H20T 4795   6.682   0.247   8.944 -1.8376  1.6887 -1.4338
   61SAPC   C33 4796   5.729   1.180  10.233 -0.1658 -0.2587 -0.3604
   61SAPC   H3X 4797   5.839   1.159  10.233 -0.4564 -1.8982 -0.1305
   61SAPC   H3Y 4798   5.716   1.289  10.252  1.0202 -0.1777  0.0647
   61SAPC   C34 4799   5.667   1.138  10.096  0.1608  0.4362 -0.5518
   61SAPC   H4X 4800   5.560   1.166  10.092 -0.2193 -0.7862  0.6115
   61SAPC   H4Y 4801   5.676   1.028  10.089 -0.0580  0.4698 -1.6163
   61SAPC   C35 4802   5.741   1.194   9.984 -0.2609  0.1946 -0.8444
   61SAPC   H5X 4803   5.849   1.181  10.010 -0.6864 -1.0876  0.4284
   61SAPC   H5Y 4804   5.733   1.304   9.970  2.9308  0.6150 -0.2292
   61SAPC   C36 4805   5.718   1.118   9.850  0.6109 -0.1567 -0.0356
   61SAPC   H6X 4806   5.608   1.106   9.841  0.2959  1.0795  1.7644
   61SAPC   H6Y 4807   5.759   1.015   9.862 -1.1279 -0.5767  3.1720
   61SAPC   C37 4808   5.774   1.186   9.737  0.4559 -0.1041  0.7232
   61SAPC   H7X 4809   5.883   1.196   9.754  0.7982 -3.1986  0.9157
   61SAPC   H7Y 4810   5.737   1.290   9.750 -1.1363 -0.9181  3.5088
   61SAPC   C38 4811   5.737   1.122   9.600 -0.4522  0.2500 -0.1520
   61SAPC   H8X 4812   5.626   1.127   9.596 -0.4169  0.6200 -0.9188
   61SAPC   H8Y 4813   5.769   1.016   9.598  0.9628  0.6595 -1.4798
   61SAPC   C39 4814   5.790   1.203   9.478  0.6336 -0.4850 -0.6762
   61SAPC   H9X 4815   5.899   1.216   9.498  0.9007  2.5699 -3.3082
   61SAPC   H9Y 4816   5.756   1.309   9.474  1.6201  0.0066  1.8628
   61SAPC  C310 4817   5.790   1.128   9.346 -0.0224 -0.7793  0.2192
   61SAPC  H10X 4818   5.862   1.043   9.346  0.4470 -0.3830  0.1846
   61SAPC  H10Y 4819   5.825   1.200   9.269  1.7691 -1.6877  0.1218
   61SAPC  C311 4820   5.651   1.074   9.312  0.2803 -0.1089  0.0813
   61SAPC  H11X 4821   5.575   1.153   9.326 -0.4295 -1.0615  1.9163
   61SAPC  H11Y 4822   5.630   0.991   9.384 -1.0078  0.9450  0.9623
   61SAPC  C312 4823   5.640   1.016   9.168 -0.2033 -0.0072 -0.5211
   61SAPC  H12X 4824   5.543   0.972   9.135 -1.2300 -0.1057  2.3028
   61SAPC  H12Y 4825   5.722   0.942   9.154 -1.0073 -0.3255 -5.3325
   61SAPC  C313 4826   5.673   1.128   9.067  0.6388  0.3707 -0.0477
   61SAPC  H13X 4827   5.774   1.170   9.085  0.5843  0.0584  1.0805
   61SAPC  H13Y 4828   5.604   1.208   9.100  0.8884  0.3590  0.5296
   61SAPC  C314 4829   5.659   1.090   8.920 -0.3180 -0.2081 -0.7639
   61SAPC  H14X 4830   5.551   1.071   8.901 -0.2093  1.3393 -3.3519
   61SAPC  H14Y 4831   5.727   1.006   8.898  0.1102 -0.7541  2.2001
   61SAPC  C315 4832   5.700   1.209   8.830  0.1500 -0.8723  0.6266
   61SAPC  H15X 4833   5.636   1.297   8.854  0.2728 -0.9643  1.3170
   61SAPC  H15Y 4834   5.678   1.168   8.729  0.2546 -0.9423  0.6325
   61SAPC  C316 4835   5.848   1.253   8.827  0.8102  0.0734 -0.2639
   61SAPC  H16X 4836   5.907   1.160   8.811  0.9106 -0.2781  1.9124
   61SAPC  H16Y 4837   5.864   1.300   8.926  0.4135  3.0737 -1.5319
   61SAPC  C317 4838   5.889   1.358   8.718 -0.1823 -0.4717 -0.2376
   61SAPC  H17X 4839   5.830   1.449   8.742  1.7746  0.3421  1.8246
   61SAPC  H17Y 4840   5.846   1.323   8.622 -1.3343  1.0394 -0.3051
   61SAPC  C318 4841   6.035   1.390   8.705  0.0091 -0.5333 -0.3310
   61SAPC  H18X 4842   6.047   1.466   8.624 -1.7516  0.6213  0.3984
   61SAPC  H18Y 4843   6.069   1.298   8.653  0.0177  0.5319 -2.3267
   61SAPC  H18Z 4844   6.083   1.410   8.803 -3.3549 -0.6712  1.5091
   62SAPC     N 4845   5.811   5.332  10.547  0.2505  0.0013  0.3973
   62SAPC   C12 4846   5.875   5.458  10.615 -0.3161 -0.1052  0.3666
   62SAPC  H12A 4847   5.982   5.452  10.600 -0.2556  0.4983  0.5616
   62SAPC  H12B 4848   5.844   5.445  10.718 -1.7964 -4.1693 -0.3887
   62SAPC   C13 4849   5.838   5.326  10.400  0.3684  0.5864  0.2181
   62SAPC  H13A 4850   5.837   5.425  10.356 -2.2600  0.7064  0.3775
   62SAPC  H13B 4851   5.925   5.267  10.374  0.1952  0.9637 -1.3251
   62SAPC  H13C 4852   5.756   5.269  10.358 -0.1694 -0.7421  2.8625
   62SAPC   C14 4853   5.854   5.201  10.623 -0.1511 -1.1070  0.2750
   62SAPC  H14A 4854   5.829   5.211  10.727 -1.6565  1.1786 -0.2382
   62SAPC  H14B 4855   5.804   5.114  10.582 -0.6727 -1.3886  1.4685
   62SAPC  H14C 4856   5.962   5.196  10.623 -0.0309  0.7171  0.4840
   62SAPC   C15 4857   5.667   5.347  10.563  0.3280  0.4800 -0.1883
   62SAPC  H15A 4858   5.626   5.429  10.507 -0.1691  1.0646  0.9810
   62SAPC  H15B 4859   5.609   5.256  10.557  1.2055 -0.0961 -0.0670
   62SAPC  H15C 4860   5.652   5.364  10.669  2.4571 -0.8113  0.3659
   62SAPC   C11 4861   5.833   5.604  10.566 -0.5784 -0.3597 -0.2532
   62SAPC  H11A 4862   5.812   5.611  10.457 -1.3067 -1.8126 -0.2278
   62SAPC  H11B 4863   5.915   5.676  10.587 -1.7700  0.4096  2.1584
   62SAPC     P 4864   5.586   5.694  10.593  0.2971  0.4630  0.1185
   62SAPC   O13 4865   5.492   5.660  10.701  0.2711  0.4843  0.0395
   62SAPC   O14 4866   5.591   5.838  10.551  1.2914 -0.4807  0.1583
   62SAPC   O12 4867   5.726   5.658  10.645 -0.0042  0.3688  0.5957
   62SAPC   O11 4868   5.561   5.605  10.467  0.5897  0.0157  0.1928
   62SAPC    C1 4869   5.450   5.645  10.387  0.4820  0.8811 -1.3555
   62SAPC    HA 4870   5.358   5.587  10.413  1.1923 -0.1263 -1.0496
   62SAPC    HB 4871   5.414   5.750  10.384 -2.4442  0.0034 -0.6269
   62SAPC    C2 4872   5.477   5.609  10.245  0.7211 -0.4901  0.1273
   62SAPC    HS 4873   5.526   5.509  10.244 -0.1192 -0.9292 -1.6125
   62SAPC   O21 4874   5.560   5.715  10.188 -0.5365 -0.0822  0.1912
   62SAPC   C21 4875   5.687   5.683  10.165  0.5410 -0.7887 -0.2410
   62SAPC   O22 4876   5.741   5.576  10.190 -0.0918 -0.2134  0.1188
   62SAPC   C22 4877   5.760   5.797  10.079  0.6002  0.1223 -0.2833
   62SAPC   H2R 4878   5.758   5.893  10.135  0.2540  0.2336 -0.4844
   62SAPC   H2S 4879   5.865   5.762  10.079  0.1991 -1.3736  3.0954
   62SAPC    C3 4880   5.344   5.598  10.167  0.0734 -0.0911  0.0148
   62SAPC    HX 4881   5.276   5.679  10.200  0.9605 -0.3341  2.6643
   62SAPC    HY 4882   5.291   5.504  10.192  1.0551 -0.6694 -0.0431
   62SAPC   O31 4883   5.354   5.604  10.020 -0.1106  0.4355 -0.4550
   62SAPC   C31 4884   5.387   5.483   9.962 -0.1197 -0.0452 -0.7978
   62SAPC   O32 4885   5.418   5.378  10.020  0.4930 -0.3644 -0.4665
   62SAPC   C32 4886   5.381   5.509   9.813 -0.0059 -0.4028  0.4871
   62SAPC   H2X 4887   5.484   5.530   9.778 -0.7455  1.9640 -0.4504
   62SAPC   H2Y 4888   5.325   5.600   9.783  1.1057 -0.0741 -0.6763
   62SAPC   C23 4889   5.702   5.801   9.938  0.2784  0.2884 -0.0731
   62SAPC   H3R 4890   5.733   5.888   9.876 -0.9166  0.7793 -0.0119
   62SAPC   H3S 4891   5.591   5.807   9.938  0.0520 -2.5556 -0.0950
   62SAPC   C24 4892   5.740   5.678   9.849  0.0480 -0.0804 -0.3627
   62SAPC   H4R 4893   5.687   5.687   9.751 -0.7633 -2.7256 -0.2572
   62SAPC   H4S 4894   5.692   5.588   9.894 -1.8420  0.2458 -1.5849
   62SAPC   C25 4895   5.886   5.657   9.836  0.7956 -0.9128  0.1548
   62SAPC   H5R 4896   5.943   5.645   9.930 -0.3429 -0.2666  0.9590
   62SAPC   C26 4897   5.946   5.649   9.717  0.4030 -0.8403  0.5089
   62SAPC   H6R 4898   6.055   5.632   9.711  0.7940  1.6138 -0.4182
   62SAPC   C27 4899   5.877   5.658   9.585  0.0117  0.2873  0.7153
   62SAPC   H7R 4900   5.952   5.649   9.504 -2.0682  0.0916 -1.2768
   62SAPC   H7S 4901   5.818   5.752   9.579 -0.5833 -0.0725  0.7804
   62SAPC   C28 4902   5.776   5.551   9.546 -0.5913 -0.5883 -0.0115
   62SAPC   H8R 4903   5.775   5.469   9.619 -2.4091 -1.6397 -1.1466
   62SAPC   C29 4904   5.702   5.550   9.442  0.0339  0.3368  0.1304
   62SAPC   H9R 4905   5.638   5.461   9.444 -1.2918  1.2554  0.2538
   62SAPC  C210 4906   5.696   5.635   9.327 -0.5844  0.4213  0.3055
   62SAPC  H10R 4907   5.659   5.735   9.359  1.6717  1.1896  0.6772
   62SAPC  H10S 4908   5.620   5.597   9.255 -2.0316  0.4082  1.7750
   62SAPC  C211 4909   5.826   5.633   9.256  0.2982  0.4971 -0.0520
   62SAPC  H11R 4910   5.898   5.715   9.269 -1.1651  2.3212 -2.6234
   62SAPC  C212 4911   5.860   5.558   9.146 -0.4796  0.9017  0.2457
   62SAPC  H12R 4912   5.952   5.586   9.092 -1.3952  1.8657 -0.8668
   62SAPC  C213 4913   5.780   5.455   9.073 -0.3713 -0.1001 -0.1906
   62SAPC  H13R 4914   5.735   5.515   8.991  0.2816 -0.6078 -0.9349
   62SAPC  H13S 4915   5.694   5.423   9.136 -0.9315  0.1229 -0.8361
   62SAPC  C214 4916   5.856   5.335   9.025  0.2314  0.4467  0.4159
   62SAPC  H14R 4917   5.935   5.299   9.092  0.6221 -1.3980 -0.9573
   62SAPC  C215 4918   5.851   5.262   8.914 -0.0053  0.3960 -0.3116
   62SAPC  H15R 4919   5.938   5.201   8.886 -0.6265 -0.4175 -0.4792
   62SAPC  C216 4920   5.753   5.294   8.797  0.5906 -0.7051 -0.9690
   62SAPC  H16R 4921   5.671   5.362   8.828  1.0787 -0.2620 -0.6348
   62SAPC  H16S 4922   5.700   5.198   8.779 -1.5017 -0.0884  1.3056
   62SAPC  C217 4923   5.820   5.351   8.672 -0.6863  0.5829  0.2281
   62SAPC  H17R 4924   5.740   5.355   8.595  0.4136  0.3889 -0.9732
   62SAPC  H17S 4925   5.889   5.273   8.633  0.0785  1.5108 -0.3372
   62SAPC  C218 4926   5.889   5.487   8.686  0.5788  0.0572 -0.4681
   62SAPC  H18R 4927   5.950   5.485   8.779 -0.7108  0.6325  0.4314
   62SAPC  H18S 4928   5.814   5.564   8.716  1.1002  0.3152  0.1946
   62SAPC  C219 4929   5.963   5.543   8.565  0.1569 -0.1667  1.3206
   62SAPC  H19R 4930   6.041   5.470   8.537  0.5026  0.6908 -0.0084
   62SAPC  H19S 4931   6.021   5.633   8.595 -1.0756  2.4206 -3.1752
   62SAPC  C220 4932   5.870   5.585   8.450 -0.0236 -0.0564 -0.2905
   62SAPC  H20R 4933   5.794   5.506   8.432 -0.9635  0.3613  1.5496
   62SAPC  H20S 4934   5.930   5.611   8.360  1.2495  0.1261  0.5804
   62SAPC  H20T 4935   5.817   5.680   8.473  0.8311  0.5547 -0.8187
   62SAPC   C33 4936   5.329   5.391   9.717  0.0193  0.2872 -0.9981
   62SAPC   H3X 4937   5.221   5.373   9.735 -0.5829  2.4772 -2.0109
   62SAPC   H3Y 4938   5.394   5.302   9.732 -1.4591 -0.6939 -0.2076
   62SAPC   C34 4939   5.330   5.440   9.565 -0.0006  0.7179 -0.2317
   62SAPC   H4X 4940   5.430   5.480   9.536  0.4709 -1.0589 -1.2865
   62SAPC   H4Y 4941   5.252   5.516   9.544  1.1823  2.1146  0.3154
   62SAPC   C35 4942   5.303   5.329   9.463  0.1625  0.4071  0.7019
   62SAPC   H5X 4943   5.193   5.334   9.448  0.1345 -1.9480 -0.3326
   62SAPC   H5Y 4944   5.330   5.228   9.501  2.2458  0.0029 -1.6369
   62SAPC   C36 4945   5.382   5.345   9.335 -0.2571  0.7181 -0.3283
   62SAPC   H6X 4946   5.488   5.319   9.355  0.2992  3.2933  0.4027
   62SAPC   H6Y 4947   5.374   5.451   9.305 -1.0501  1.8651  3.3768
   62SAPC   C37 4948   5.328   5.255   9.218 -0.4780 -0.0015 -0.0797
   62SAPC   H7X 4949   5.308   5.152   9.255 -0.9052  0.9064  2.4605
   62SAPC   H7Y 4950   5.404   5.255   9.137 -1.9017  1.1160 -1.4772
   62SAPC   C38 4951   5.199   5.305   9.155 -0.3181  0.7673 -1.2369
   62SAPC   H8X 4952   5.209   5.405   9.109 -1.6294  2.2274  1.4057
   62SAPC   H8Y 4953   5.121   5.314   9.234  0.2225 -0.9826 -0.4355
   62SAPC   C39 4954   5.147   5.210   9.046  0.5408  0.8142 -0.3363
   62SAPC   H9X 4955   5.135   5.106   9.082 -0.5598  0.0946 -2.5727
   62SAPC   H9Y 4956   5.235   5.217   8.979  0.6829  1.7652 -0.0662
   62SAPC  C310 4957   5.032   5.268   8.962 -0.0417  0.0044 -0.1655
   62SAPC  H10X 4958   5.071   5.354   8.904  1.3184 -0.9062 -0.6554
   62SAPC  H10Y 4959   4.958   5.305   9.036  0.8023  1.7013 -0.1217
   62SAPC  C311 4960   4.969   5.162   8.872 -0.4345 -0.5057 -0.4172
   62SAPC  H11X 4961   4.927   5.068   8.914 -0.1849 -0.8039 -0.8322
   62SAPC  H11Y 4962   5.053   5.134   8.806 -0.9599  0.0127 -1.3203
   62SAPC  C312 4963   4.867   5.219   8.773 -0.4217 -0.9277  0.3033
   62SAPC  H12X 4964   4.851   5.144   8.693  0.2251 -0.4379 -0.3004
   62SAPC  H12Y 4965   4.911   5.313   8.734 -0.7967 -1.6725 -2.0689
   62SAPC  C313 4966   4.733   5.242   8.855 -0.9357 -0.8501 -0.1843
   62SAPC  H13X 4967   4.762   5.311   8.938  2.3123 -1.7400 -0.4315
   62SAPC  H13Y 4968   4.686   5.160   8.914 -4.2609  1.8675  1.3003
   62SAPC  C314 4969   4.627   5.310   8.778  0.4898  0.0334 -0.1319
   62SAPC  H14X 4970   4.606   5.247   8.689 -1.0486  0.1811  0.1043
   62SAPC  H14Y 4971   4.654   5.411   8.740 -0.9781  0.5195  0.0568
   62SAPC  C315 4972   4.490   5.338   8.842 -0.2888  0.2386 -0.8726
   62SAPC  H15X 4973   4.459   5.247   8.899  2.0406  0.0114  0.1271
   62SAPC  H15Y 4974   4.410   5.355   8.768 -0.5390  0.7166 -0.4970
   62SAPC  C316 4975   4.497   5.447   8.945  0.3395 -0.3748 -0.2345
   62SAPC  H16X 4976   4.576   5.424   9.019  0.6508 -0.3808 -0.5696
   62SAPC  H16Y 4977   4.399   5.446   8.998  0.4087  1.1640 -0.0121
   62SAPC  C317 4978   4.505   5.596   8.898 -0.1247  0.1859 -0.6345
   62SAPC  H17X 4979   4.423   5.627   8.829  0.2096  2.4944 -0.0847
   62SAPC  H17Y 4980   4.602   5.606   8.844 -0.0707 -0.5856 -0.6821
   62SAPC  C318 4981   4.504   5.695   9.019  0.3047  0.3919 -0.3463
   62SAPC  H18X 4982   4.400   5.702   9.056 -0.5017 -0.5235 -2.2869
   62SAPC  H18Y 4983   4.545   5.797   9.004 -1.2841  1.0703 -0.1718
   62SAPC  H18Z 4984   4.565   5.649   9.100 -1.3961 -2.2448 -0.4484
   63SAPC     N 4985   1.535   0.468   6.391  0.0724  0.2179  0.0485
   63SAPC   C12 4986   1.640   0.536   6.481 -0.5274 -0.1139  0.4559
   63SAPC  H12A 4987   1.715   0.462   6.504 -0.6179 -0.9186 -1.5782
   63SAPC  H12B 4988   1.594   0.561   6.576  0.8779  0.8121  0.9330
   63SAPC   C13 4989   1.426   0.563   6.346  0.4357  0.0505  0.4992
   63SAPC  H13A 4990   1.363   0.592   6.429  0.9415 -2.7661  1.9963
   63SAPC  H13B 4991   1.456   0.657   6.304 -0.9711  0.5038  0.4508
   63SAPC  H13C 4992   1.363   0.511   6.275  3.0644  0.3794 -2.2988
   63SAPC   C14 4993   1.608   0.404   6.271  0.0681  0.6939 -0.7185
   63SAPC  H14A 4994   1.678   0.477   6.233  1.5083  0.8714  2.0270
   63SAPC  H14B 4995   1.659   0.317   6.308 -1.3106  0.2325  0.1658
   63SAPC  H14C 4996   1.544   0.376   6.189  0.2231  0.1761 -0.6625
   63SAPC   C15 4997   1.478   0.344   6.460 -0.3544 -0.6154  0.3361
   63SAPC  H15A 4998   1.455   0.355   6.565  0.5672  1.9812  0.3482
   63SAPC  H15B 4999   1.390   0.315   6.405  0.2530 -0.5946 -0.6829
   63SAPC  H15C 5000   1.547   0.261   6.467  1.4776  0.6899 -1.0684
   63SAPC   C11 5001   1.720   0.656   6.421 -0.3560  0.5152  0.6667
   63SAPC  H11A 5002   1.782   0.698   6.502  2.4766  1.8523 -1.9825
   63SAPC  H11B 5003   1.649   0.734   6.386 -0.5848  1.7720  3.6706
   63SAPC     P 5004   1.947   0.558   6.330  0.3246 -0.0986  0.3752
   63SAPC   O13 5005   1.919   0.420   6.356 -0.4468  0.2405 -0.1344
   63SAPC   O14 5006   2.030   0.593   6.213 -0.1164 -0.3918  0.1304
   63SAPC   O12 5007   1.813   0.633   6.309 -0.0015 -0.2558  0.0777
   63SAPC   O11 5008   2.005   0.629   6.461  0.6427  0.0289 -0.2175
   63SAPC    C1 5009   2.042   0.767   6.460  0.0173  0.3327  0.3511
   63SAPC    HA 5010   2.129   0.785   6.393  0.6138 -0.3018  0.9326
   63SAPC    HB 5011   1.964   0.838   6.426 -0.9334  0.0571  1.8712
   63SAPC    C2 5012   2.102   0.820   6.596 -0.0704  0.3923 -0.0555
   63SAPC    HS 5013   2.175   0.898   6.566 -0.3611  0.9334  0.6331
   63SAPC   O21 5014   2.160   0.712   6.671 -0.2140 -0.0729 -0.1290
   63SAPC   C21 5015   2.285   0.685   6.629 -0.8018  0.9545  0.0098
   63SAPC   O22 5016   2.352   0.751   6.549  1.0255  0.3643 -0.2007
   63SAPC   C22 5017   2.340   0.552   6.697 -0.0437  0.1559  0.7769
   63SAPC   H2R 5018   2.443   0.542   6.657  0.4510  0.9861  1.7887
   63SAPC   H2S 5019   2.346   0.563   6.807 -0.3748 -1.8636  1.0341
   63SAPC    C3 5020   2.006   0.903   6.680 -0.4539 -0.0882 -0.0992
   63SAPC    HX 5021   1.910   0.849   6.670  0.8083 -3.1544  2.4652
   63SAPC    HY 5022   1.992   1.006   6.642  1.6774  0.7489  1.1681
   63SAPC   O31 5023   2.050   0.920   6.815  0.3011  0.4644 -0.1732
   63SAPC   C31 5024   2.008   0.827   6.899 -0.6215  0.6896 -0.3279
   63SAPC   O32 5025   1.941   0.731   6.869  0.2136  0.1647  0.0334
   63SAPC   C32 5026   2.076   0.839   7.036 -0.0990 -0.8790  0.4560
   63SAPC   H2X 5027   2.151   0.921   7.029 -0.5214 -0.5129  0.1431
   63SAPC   H2Y 5028   2.133   0.747   7.057 -0.2946 -1.1381 -0.1363
   63SAPC   C23 5029   2.248   0.429   6.667 -0.2468  0.0481  0.3855
   63SAPC   H3R 5030   2.226   0.415   6.559  1.9539 -0.1651 -0.0833
   63SAPC   H3S 5031   2.156   0.444   6.728 -1.0830  0.7820 -1.0082
   63SAPC   C24 5032   2.315   0.303   6.713  0.2626  0.6768 -0.1310
   63SAPC   H4R 5033   2.352   0.318   6.816  0.7139  1.5487 -0.4009
   63SAPC   H4S 5034   2.394   0.285   6.636 -2.2245 -2.4979 -2.2244
   63SAPC   C25 5035   2.226   0.183   6.713  0.5965  0.4124 -1.1563
   63SAPC   H5R 5036   2.134   0.202   6.657 -0.0072 -1.0724 -0.7259
   63SAPC   C26 5037   2.243   0.068   6.781 -0.1020  0.1422  0.2845
   63SAPC   H6R 5038   2.166  -0.010   6.772 -1.5818  1.7701 -2.7866
   63SAPC   C27 5039   2.353   0.036   6.876 -0.1737  0.0203 -0.5097
   63SAPC   H7R 5040   2.321  -0.049   6.940 -2.5783  2.0433  1.1459
   63SAPC   H7S 5041   2.343   0.128   6.939 -1.8778  0.0117 -0.7307
   63SAPC   C28 5042   2.488   0.009   6.819  0.0779  0.0331  0.0879
   63SAPC   H8R 5043   2.488  -0.059   6.732  0.5581 -0.2822  0.3280
   63SAPC   C29 5044   2.613   0.055   6.863 -0.4452 -0.3032 -0.1698
   63SAPC   H9R 5045   2.709   0.031   6.814  0.4802 -1.5434  2.0771
   63SAPC  C210 5046   2.644   0.148   6.983 -0.2415  0.2121  0.2575
   63SAPC  H10R 5047   2.554   0.209   7.002  0.4656  1.4999 -0.3534
   63SAPC  H10S 5048   2.721   0.224   6.956 -1.6200  1.8440  0.7063
   63SAPC  C211 5049   2.679   0.070   7.102 -0.3498  0.3541 -0.4075
   63SAPC  H11R 5050   2.608  -0.011   7.123  1.4146 -1.0408  0.4109
   63SAPC  C212 5051   2.794   0.101   7.168  0.0003  0.5066 -0.3572
   63SAPC  H12R 5052   2.818   0.054   7.265  0.2879  0.3853 -0.4848
   63SAPC  C213 5053   2.884   0.216   7.132  0.2731  0.1163 -1.0031
   63SAPC  H13R 5054   2.834   0.314   7.148 -0.1060 -0.2870  0.3806
   63SAPC  H13S 5055   2.918   0.201   7.027  0.5678  0.0588 -0.8976
   63SAPC  C214 5056   3.001   0.204   7.223 -0.0883  0.1818  0.3926
   63SAPC  H14R 5057   3.100   0.179   7.183  0.9174  1.1964  2.1064
   63SAPC  C215 5058   3.008   0.234   7.351 -0.2853  0.0060 -0.1455
   63SAPC  H15R 5059   3.108   0.237   7.397 -1.2963  1.0959  2.1482
   63SAPC  C216 5060   2.893   0.290   7.431 -0.0022  0.3907 -0.1759
   63SAPC  H16R 5061   2.902   0.250   7.534  1.9895  0.7302 -0.1834
   63SAPC  H16S 5062   2.801   0.245   7.388  1.6549 -0.5653 -3.0196
   63SAPC  C217 5063   2.892   0.443   7.439  0.4117  0.3452  0.2087
   63SAPC  H17R 5064   2.878   0.484   7.336  0.9630 -0.0392 -0.0239
   63SAPC  H17S 5065   2.988   0.483   7.479 -0.0745  1.2417  0.5198
   63SAPC  C218 5066   2.772   0.504   7.509 -0.1823 -0.5213  0.3428
   63SAPC  H18R 5067   2.761   0.463   7.612  3.0668 -0.2713  0.8913
   63SAPC  H18S 5068   2.690   0.453   7.453  2.0492 -1.6730 -2.0559
   63SAPC  C219 5069   2.778   0.664   7.507  0.1009 -0.1367 -0.4599
   63SAPC  H19R 5070   2.792   0.678   7.397  0.3658  0.5560 -0.3416
   63SAPC  H19S 5071   2.861   0.713   7.562  0.6332 -0.4012 -1.0188
   63SAPC  C220 5072   2.638   0.711   7.555 -0.1910  0.0879 -0.2736
   63SAPC  H20R 5073   2.562   0.669   7.487  0.3542 -0.4875 -0.5445
   63SAPC  H20S 5074   2.612   0.819   7.552 -1.0351 -0.0529  1.0368
   63SAPC  H20T 5075   2.622   0.666   7.656  0.9817 -1.4442 -0.7340
   63SAPC   C33 5076   1.971   0.867   7.150  0.2630  0.2219  0.0490
   63SAPC   H3X 5077   1.903   0.781   7.172 -0.1685  0.2121 -1.2342
   63SAPC   H3Y 5078   1.898   0.948   7.127 -1.7455 -0.8252  2.2981
   63SAPC   C34 5079   2.040   0.918   7.282 -0.6605  0.0002 -0.0562
   63SAPC   H4X 5080   2.058   1.026   7.266  1.3349  0.1189  2.2675
   63SAPC   H4Y 5081   2.138   0.865   7.289 -1.0475 -1.0606 -2.0731
   63SAPC   C35 5082   1.968   0.901   7.415 -0.0037  0.0888  1.0243
   63SAPC   H5X 5083   1.946   0.800   7.457  1.1279 -0.8552 -0.5620
   63SAPC   H5Y 5084   1.864   0.941   7.418 -0.8514 -1.5806 -2.1038
   63SAPC   C36 5085   2.041   0.977   7.527  0.0187 -1.0573  0.0561
   63SAPC   H6X 5086   2.037   1.083   7.495 -0.3567 -1.1902 -0.3497
   63SAPC   H6Y 5087   2.145   0.939   7.520  1.2238  1.7893  1.0094
   63SAPC   C37 5088   1.988   0.957   7.666  0.1597 -0.1199 -0.0157
   63SAPC   H7X 5089   1.984   0.847   7.684  2.5189 -0.4761 -1.3126
   63SAPC   H7Y 5090   1.887   1.001   7.677 -0.4142 -1.6466  1.2210
   63SAPC   C38 5091   2.078   1.024   7.770  0.2109  0.4328 -0.2210
   63SAPC   H8X 5092   2.128   1.117   7.736 -0.2423  0.6268 -0.3631
   63SAPC   H8Y 5093   2.166   0.958   7.781  0.3445  0.8585  1.4247
   63SAPC   C39 5094   2.006   1.034   7.905  0.6344  0.3016  0.1538
   63SAPC   H9X 5095   1.976   0.934   7.944  0.3666  0.3998  0.1997
   63SAPC   H9Y 5096   1.916   1.097   7.891  0.9225  0.6854  0.0140
   63SAPC  C310 5097   2.097   1.105   8.006 -0.2751  0.7554  0.4299
   63SAPC  H10X 5098   2.084   1.213   7.981  0.3344  0.4125 -1.5307
   63SAPC  H10Y 5099   2.207   1.091   8.000 -0.1031  2.5088 -4.0954
   63SAPC  C311 5100   2.039   1.094   8.148  0.3789  0.0449 -0.5114
   63SAPC  H11X 5101   2.033   0.987   8.175  1.4863  0.5730  2.1441
   63SAPC  H11Y 5102   1.943   1.149   8.156  1.3311  1.7031  0.2131
   63SAPC  C312 5103   2.139   1.153   8.252  0.1695 -0.9332  0.4123
   63SAPC  H12X 5104   2.096   1.135   8.353  0.0275 -1.5854  0.2432
   63SAPC  H12Y 5105   2.127   1.261   8.230 -2.1951 -1.5355 -1.6618
   63SAPC  C313 5106   2.285   1.099   8.258  0.1004  0.1724 -0.6566
   63SAPC  H13X 5107   2.338   1.147   8.343  0.1549 -0.9954 -0.0230
   63SAPC  H13Y 5108   2.336   1.123   8.162  1.3307 -1.1158 -0.3509
   63SAPC  C314 5109   2.297   0.944   8.283 -0.1038 -0.1573  0.0742
   63SAPC  H14X 5110   2.231   0.894   8.209 -0.5950  1.7945 -0.8596
   63SAPC  H14Y 5111   2.271   0.942   8.391  0.1304 -1.3333  0.1184
   63SAPC  C315 5112   2.445   0.891   8.285 -0.1028  0.2971  0.1627
   63SAPC  H15X 5113   2.448   0.787   8.324  0.7773  0.2816  0.0633
   63SAPC  H15Y 5114   2.505   0.946   8.360  1.7742 -0.7027 -0.5501
   63SAPC  C316 5115   2.524   0.909   8.151 -0.0952  0.3308 -0.3994
   63SAPC  H16X 5116   2.615   0.845   8.148  1.0718  1.8342  0.9357
   63SAPC  H16Y 5117   2.555   1.015   8.133  2.4775 -0.3765 -0.5531
   63SAPC  C317 5118   2.442   0.865   8.019  0.5120 -0.3199 -0.2023
   63SAPC  H17X 5119   2.357   0.936   8.010  0.9636  0.2035 -0.3670
   63SAPC  H17Y 5120   2.401   0.761   8.024 -0.4406  0.0752  0.4663
   63SAPC  C318 5121   2.536   0.861   7.904  0.2150 -0.6999  0.0408
   63SAPC  H18X 5122   2.592   0.957   7.902 -0.5492 -0.1421  2.5433
   63SAPC  H18Y 5123   2.488   0.851   7.804  0.0334  3.1445 -0.3821
   63SAPC  H18Z 5124   2.606   0.777   7.921  0.6234 -0.6939 -1.4400
   64SAPC     N 5125   5.433   0.454   5.831  0.4341  0.1931 -0.1230
   64SAPC   C12 5126   5.532   0.340   5.838  0.2552 -0.3366 -0.0840
   64SAPC  H12A 5127   5.624   0.346   5.782  1.9322 -0.8783  2.4723
   64SAPC  H12B 5128   5.482   0.259   5.786 -1.9891  1.3084 -0.6657
   64SAPC   C13 5129   5.396   0.489   5.696  0.1189 -0.7067  0.0063
   64SAPC  H13A 5130   5.305   0.545   5.680  0.5879 -0.3093 -1.3694
   64SAPC  H13B 5131   5.470   0.546   5.642 -2.1686  0.2016 -2.3714
   64SAPC  H13C 5132   5.377   0.406   5.630 -0.4903  0.1175 -0.8791
   64SAPC   C14 5133   5.299   0.409   5.882  0.5039 -0.3533 -0.6517
   64SAPC  H14A 5134   5.258   0.321   5.833 -0.6830 -1.0104  1.3854
   64SAPC  H14B 5135   5.306   0.389   5.988  1.6295  0.7512 -0.4969
   64SAPC  H14C 5136   5.222   0.485   5.871  0.3329 -0.0442  2.1446
   64SAPC   C15 5137   5.487   0.572   5.903  0.2328 -0.0496 -0.3180
   64SAPC  H15A 5138   5.581   0.598   5.858  1.3415  0.1997  2.0027
   64SAPC  H15B 5139   5.410   0.648   5.894 -0.2118 -0.6734 -2.0930
   64SAPC  H15C 5140   5.507   0.551   6.008 -1.2932 -1.5794 -0.2831
   64SAPC   C11 5141   5.566   0.280   5.969  0.6005 -0.0286 -0.4972
   64SAPC  H11A 5142   5.626   0.351   6.030  0.3939 -1.1380  1.0637
   64SAPC  H11B 5143   5.637   0.198   5.944  0.3243 -0.4117 -0.0351
   64SAPC     P 5144   5.417   0.084   6.060 -0.0858 -0.2348 -0.2314
   64SAPC   O13 5145   5.348   0.036   5.937  0.2379 -0.5327 -0.3017
   64SAPC   O14 5146   5.544   0.023   6.105  0.5594  0.1786  0.2734
   64SAPC   O12 5147   5.448   0.235   6.046 -0.4217  0.1853  0.1962
   64SAPC   O11 5148   5.317   0.076   6.182 -0.6201 -0.2810  0.2541
   64SAPC    C1 5149   5.246   0.189   6.226  0.9217  0.0627  0.4116
   64SAPC    HA 5150   5.318   0.265   6.263 -0.9827  0.9220  2.6525
   64SAPC    HB 5151   5.187   0.235   6.145  1.0705  1.9444  1.3156
   64SAPC    C2 5152   5.143   0.162   6.341 -0.4021  0.3308  0.5289
   64SAPC    HS 5153   5.144   0.250   6.409  0.6462  0.0392  0.9075
   64SAPC   O21 5154   5.170   0.037   6.410  0.2023  0.1013  0.1012
   64SAPC   C21 5155   5.257   0.040   6.508 -0.9176  0.5474  0.3816
   64SAPC   O22 5156   5.316   0.142   6.543  0.2637  0.3560 -0.2774
   64SAPC   C22 5157   5.275  -0.101   6.573 -0.0943  0.0958 -0.1878
   64SAPC   H2R 5158   5.281  -0.172   6.488  1.7960  1.6722 -1.4495
   64SAPC   H2S 5159   5.379  -0.103   6.614  0.0766  0.9793 -0.5589
   64SAPC    C3 5160   4.999   0.157   6.287  0.2150  0.7115 -0.7261
   64SAPC    HX 5161   4.986   0.055   6.245 -1.7127  0.0937  1.1594
   64SAPC    HY 5162   4.981   0.239   6.215  0.5740  0.3246 -1.2623
   64SAPC   O31 5163   4.897   0.163   6.389  0.8049  0.2544 -0.0097
   64SAPC   C31 5164   4.860   0.049   6.446 -0.0538 -0.2325 -0.2382
   64SAPC   O32 5165   4.916  -0.059   6.435  0.2850 -0.0429  0.0713
   64SAPC   C32 5166   4.726   0.073   6.516 -0.3128 -0.0468  0.1351
   64SAPC   H2X 5167   4.668  -0.020   6.529 -0.5942 -0.1042 -1.3529
   64SAPC   H2Y 5168   4.662   0.144   6.459  0.3126  0.6220  0.2359
   64SAPC   C23 5169   5.168  -0.138   6.674 -0.0499 -0.2873 -0.6312
   64SAPC   H3R 5170   5.191  -0.244   6.699 -0.0241  0.1140  1.1625
   64SAPC   H3S 5171   5.067  -0.139   6.628  0.2185 -0.5307 -1.2266
   64SAPC   C24 5172   5.178  -0.048   6.798  0.1561  0.5474 -0.1980
   64SAPC   H4R 5173   5.081  -0.056   6.853  0.1818 -1.0629 -0.3371
   64SAPC   H4S 5174   5.179   0.061   6.776 -0.6427  0.5820 -0.1061
   64SAPC   C25 5175   5.287  -0.090   6.888  0.2859  0.1647 -0.1415
   64SAPC   H5R 5176   5.384  -0.102   6.837  1.4218  0.6205  1.8279
   64SAPC   C26 5177   5.287  -0.103   7.025 -0.1736  0.2014 -0.1277
   64SAPC   H6R 5178   5.380  -0.110   7.084 -0.4047 -0.0503  0.2145
   64SAPC   C27 5179   5.165  -0.085   7.114 -0.6097 -0.3848 -0.3678
   64SAPC   H7R 5180   5.088  -0.028   7.057  1.5204  1.8457 -1.1671
   64SAPC   H7S 5181   5.193  -0.036   7.209  1.5507 -0.0177 -1.1341
   64SAPC   C28 5182   5.115  -0.218   7.151 -0.7635 -0.2770  0.3272
   64SAPC   H8R 5183   5.056  -0.268   7.073  2.1215 -0.1163 -2.1612
   64SAPC   C29 5184   5.106  -0.270   7.273 -0.5446  0.0086  0.6212
   64SAPC   H9R 5185   5.064  -0.371   7.287 -0.2623  0.0667  2.0440
   64SAPC  C210 5186   5.147  -0.206   7.404 -0.0814  0.7995 -0.2352
   64SAPC  H10R 5187   5.078  -0.239   7.484 -0.3514  0.0222 -0.7795
   64SAPC  H10S 5188   5.134  -0.097   7.419 -0.2413  0.6481  0.7727
   64SAPC  C211 5189   5.280  -0.258   7.448 -0.5921 -0.5905 -0.0327
   64SAPC  H11R 5190   5.344  -0.309   7.375 -0.4760 -2.7613  1.5028
   64SAPC  C212 5191   5.335  -0.259   7.576 -0.1085 -0.0394 -0.7577
   64SAPC  H12R 5192   5.431  -0.311   7.588  0.1286  0.8111  1.5824
   64SAPC  C213 5193   5.271  -0.217   7.709 -0.4778  0.2509 -0.1317
   64SAPC  H13R 5194   5.255  -0.307   7.771  1.2175  2.1217  3.3629
   64SAPC  H13S 5195   5.172  -0.168   7.693 -0.4719  0.2282 -0.2366
   64SAPC  C214 5196   5.371  -0.118   7.769  0.6673  0.4847  0.8296
   64SAPC  H14R 5197   5.379  -0.032   7.700 -0.2770  0.2944  0.4661
   64SAPC  C215 5198   5.431  -0.103   7.888  0.2880  0.2794  0.7346
   64SAPC  H15R 5199   5.495  -0.019   7.918  1.2306 -0.4759  0.9072
   64SAPC  C216 5200   5.404  -0.205   7.997  0.2448 -0.5851 -0.8067
   64SAPC  H16R 5201   5.495  -0.245   8.048 -0.6871 -1.1817  0.4455
   64SAPC  H16S 5202   5.342  -0.291   7.964 -2.8485  2.0504 -2.3336
   64SAPC  C217 5203   5.335  -0.143   8.117 -0.1579  0.3998 -0.2812
   64SAPC  H17R 5204   5.320  -0.221   8.195 -0.5948  0.0169 -0.7401
   64SAPC  H17S 5205   5.238  -0.094   8.095 -0.6193 -0.5122 -0.3402
   64SAPC  C218 5206   5.416  -0.039   8.201  0.3553  0.5230  0.1556
   64SAPC  H18R 5207   5.457   0.053   8.154  0.0547 -0.3837 -1.9809
   64SAPC  H18S 5208   5.509  -0.089   8.236 -0.1161 -0.0626  0.5949
   64SAPC  C219 5209   5.329   0.006   8.317 -0.2224 -0.4888 -1.3765
   64SAPC  H19R 5210   5.310  -0.085   8.378 -0.5490  1.1116  1.0249
   64SAPC  H19S 5211   5.230   0.046   8.286  0.7032  2.2797 -1.0294
   64SAPC  C220 5212   5.396   0.109   8.409  0.2197  0.1131  0.8664
   64SAPC  H20R 5213   5.330   0.149   8.489 -1.1735  0.7939 -0.5707
   64SAPC  H20S 5214   5.408   0.199   8.345  2.0637  0.6220  1.8390
   64SAPC  H20T 5215   5.501   0.083   8.436  0.0975 -3.1721 -1.2913
   64SAPC   C33 5216   4.738   0.143   6.655  0.1184  0.3103 -0.2000
   64SAPC   H3X 5217   4.637   0.185   6.675 -1.0811 -1.6232 -1.8584
   64SAPC   H3Y 5218   4.807   0.229   6.638 -0.9985  1.3315  0.2727
   64SAPC   C34 5219   4.759   0.045   6.766  0.0844  0.5465 -0.3699
   64SAPC   H4X 5220   4.860  -0.000   6.757  0.2346  0.7067  0.4997
   64SAPC   H4Y 5221   4.686  -0.036   6.745  1.8782 -1.3991  0.5440
   64SAPC   C35 5222   4.727   0.116   6.900  0.8308  0.8010  0.4990
   64SAPC   H5X 5223   4.618   0.135   6.906  0.3271 -1.2217 -1.2414
   64SAPC   H5Y 5224   4.780   0.214   6.895  0.7171  0.8014 -1.2285
   64SAPC   C36 5225   4.783   0.026   7.017 -1.2548 -0.5012  0.2898
   64SAPC   H6X 5226   4.880  -0.025   6.998 -1.3523 -1.1092  1.3687
   64SAPC   H6Y 5227   4.717  -0.061   7.033  0.9075 -2.9584 -2.8943
   64SAPC   C37 5228   4.784   0.099   7.152  0.0091  0.0293  0.2525
   64SAPC   H7X 5229   4.681   0.139   7.166  0.8876  2.3154  0.5632
   64SAPC   H7Y 5230   4.852   0.187   7.148 -0.5571  0.5108  1.0752
   64SAPC   C38 5231   4.819   0.010   7.270  0.5995  0.4024 -0.0396
   64SAPC   H8X 5232   4.918  -0.035   7.250  0.9458  1.6540 -1.3325
   64SAPC   H8Y 5233   4.731  -0.054   7.292  0.2845  0.7450 -0.2821
   64SAPC   C39 5234   4.841   0.107   7.388  0.5344 -0.0572 -0.9191
   64SAPC   H9X 5235   4.779   0.200   7.382 -0.7215 -0.8778 -1.0182
   64SAPC   H9Y 5236   4.948   0.135   7.390  0.7718 -0.9744  0.7858
   64SAPC  C310 5237   4.816   0.026   7.518  0.1815 -0.3330  0.6282
   64SAPC  H10X 5238   4.893  -0.054   7.519  0.0061 -0.5059  0.4314
   64SAPC  H10Y 5239   4.713  -0.014   7.510  0.3959 -1.5892  3.0975
   64SAPC  C311 5240   4.821   0.121   7.636 -0.2122 -0.1368 -0.2849
   64SAPC  H11X 5241   4.740   0.197   7.634 -1.1541 -0.9592  2.3375
   64SAPC  H11Y 5242   4.923   0.163   7.637  0.3574 -1.3166 -2.3132
   64SAPC  C312 5243   4.786   0.043   7.763 -0.2418  0.5181 -0.6269
   64SAPC  H12X 5244   4.862  -0.029   7.802 -0.6037  0.4564 -0.0234
   64SAPC  H12Y 5245   4.693  -0.016   7.747  0.0720  0.2082 -1.3522
   64SAPC  C313 5246   4.778   0.154   7.876 -0.6081 -0.6373 -0.0489
   64SAPC  H13X 5247   4.700   0.232   7.858  1.3051  0.7335 -3.2466
   64SAPC  H13Y 5248   4.878   0.202   7.867 -0.1327 -1.7977 -1.3965
   64SAPC  C314 5249   4.762   0.090   8.010 -0.2398  0.4521 -0.1278
   64SAPC  H14X 5250   4.795   0.158   8.091 -2.7910  1.7773 -0.0961
   64SAPC  H14Y 5251   4.806  -0.011   8.020 -1.1452  0.1224  0.6229
   64SAPC  C315 5252   4.610   0.072   8.036  0.0740 -0.3364  0.3583
   64SAPC  H15X 5253   4.596  -0.023   7.979  2.1031  0.2106 -1.1809
   64SAPC  H15Y 5254   4.546   0.149   7.988  0.7668 -1.2821 -2.3135
   64SAPC  C316 5255   4.584   0.056   8.181  0.0968  0.0273  0.0633
   64SAPC  H16X 5256   4.488   0.106   8.206 -0.2563  0.1857 -1.5463
   64SAPC  H16Y 5257   4.668   0.092   8.245 -0.4921  0.9588  0.3276
   64SAPC  C317 5258   4.569  -0.091   8.231 -0.2760 -0.4238 -0.2168
   64SAPC  H17X 5259   4.655  -0.154   8.200  1.7793  1.2628  1.7444
   64SAPC  H17Y 5260   4.483  -0.129   8.172 -1.4817  0.4735  0.9144
   64SAPC  C318 5261   4.547  -0.106   8.383 -0.2745  0.4586 -0.2061
   64SAPC  H18X 5262   4.634  -0.068   8.441  0.0890 -0.4905 -0.1021
   64SAPC  H18Y 5263   4.517  -0.210   8.411  0.0248 -0.2975 -2.4847
   64SAPC  H18Z 5264   4.461  -0.041   8.409 -0.0512  0.2822  1.0298
   65SAPC     N 5265   6.012   2.330   6.035  0.3539 -0.3442 -0.1928
   65SAPC   C12 5266   5.945   2.264   6.149 -0.6783  0.0852  0.3680
   65SAPC  H12A 5267   5.995   2.290   6.242  0.4422 -0.3326 -0.0954
   65SAPC  H12B 5268   5.954   2.156   6.142 -1.7384 -0.0360  0.6914
   65SAPC   C13 5269   6.155   2.280   6.025 -0.2354 -0.9897  0.4387
   65SAPC  H13A 5270   6.200   2.320   5.935 -2.0093  0.1701  0.0140
   65SAPC  H13B 5271   6.219   2.312   6.107  1.7733 -2.0110 -0.6419
   65SAPC  H13C 5272   6.169   2.174   6.038  0.7730 -0.6830  2.2912
   65SAPC   C14 5273   5.937   2.314   5.906  0.9101  0.9337  0.0727
   65SAPC  H14A 5274   5.904   2.211   5.901 -0.7538  1.3885  0.7433
   65SAPC  H14B 5275   5.844   2.368   5.909 -0.6855 -1.3011 -2.9673
   65SAPC  H14C 5276   5.989   2.353   5.820 -0.8884 -1.0566 -2.0735
   65SAPC   C15 5277   6.022   2.478   6.068 -0.6525 -0.0269 -0.1583
   65SAPC  H15A 5278   6.078   2.529   5.991 -1.0925  0.3134 -0.2591
   65SAPC  H15B 5279   5.923   2.520   6.076 -0.3147  0.5450  1.3284
   65SAPC  H15C 5280   6.064   2.494   6.166 -0.4752  0.4520 -0.3050
   65SAPC   C11 5281   5.789   2.286   6.167  0.1992  0.4187  0.6931
   65SAPC  H11A 5282   5.757   2.392   6.166 -1.0740  0.0666 -1.2662
   65SAPC  H11B 5283   5.764   2.253   6.270 -0.8427  1.1634  0.6920
   65SAPC     P 5284   5.712   2.059   6.057  0.5165  0.0004  0.1172
   65SAPC   O13 5285   5.569   2.022   6.026 -0.6026  0.3011  0.1332
   65SAPC   O14 5286   5.819   2.017   5.970 -0.0316 -0.0448  0.2466
   65SAPC   O12 5287   5.713   2.218   6.069  0.5396  0.6555 -0.0502
   65SAPC   O11 5288   5.743   2.014   6.200 -0.5816  0.0103 -0.5019
   65SAPC    C1 5289   5.875   1.972   6.242  0.2375 -0.1047  0.1958
   65SAPC    HA 5290   5.944   1.972   6.155  0.3187  0.8824  0.2488
   65SAPC    HB 5291   5.911   2.038   6.324 -0.6126 -0.1337  0.5977
   65SAPC    C2 5292   5.868   1.826   6.296 -0.1554 -0.4901 -0.2302
   65SAPC    HS 5293   5.804   1.773   6.223 -2.8821 -1.8991  2.8790
   65SAPC   O21 5294   5.799   1.820   6.423  0.0302 -0.4371  0.6114
   65SAPC   C21 5295   5.764   1.699   6.475 -0.3463 -0.0238  0.1664
   65SAPC   O22 5296   5.757   1.594   6.414 -0.0869 -0.9456 -0.0332
   65SAPC   C22 5297   5.720   1.717   6.621 -0.7198  0.2814  0.1663
   65SAPC   H2R 5298   5.793   1.792   6.660  0.4374 -1.3085  1.1737
   65SAPC   H2S 5299   5.618   1.759   6.624 -0.4944  1.1817 -2.0670
   65SAPC    C3 5300   6.008   1.768   6.313 -0.3255  0.2124  0.2834
   65SAPC    HX 5301   6.052   1.772   6.211 -0.9757  0.1608 -0.0061
   65SAPC    HY 5302   5.994   1.660   6.334 -2.9855  0.7236  1.5503
   65SAPC   O31 5303   6.084   1.853   6.403  0.1986 -0.3171  0.2293
   65SAPC   C31 5304   6.132   1.789   6.518  0.7964 -0.0413  0.4715
   65SAPC   O32 5305   6.115   1.672   6.550 -0.2082 -0.2901 -0.2991
   65SAPC   C32 5306   6.203   1.888   6.602  0.7366  0.2049 -0.5090
   65SAPC   H2X 5307   6.183   1.987   6.557 -0.1196  0.5454  0.5563
   65SAPC   H2Y 5308   6.311   1.862   6.607  0.4146 -1.3019 -0.7764
   65SAPC   C23 5309   5.731   1.586   6.696  0.1604 -0.1358  0.0385
   65SAPC   H3R 5310   5.829   1.536   6.708  0.6692  0.7301 -0.3612
   65SAPC   H3S 5311   5.667   1.515   6.640 -0.5360  2.0622 -2.1805
   65SAPC   C24 5312   5.665   1.599   6.834  0.0022  0.4060 -0.5012
   65SAPC   H4R 5313   5.635   1.501   6.877  0.3902  1.7551  3.2380
   65SAPC   H4S 5314   5.570   1.651   6.808 -0.4678  0.2899  0.9374
   65SAPC   C25 5315   5.733   1.694   6.929 -0.4355 -0.1831 -0.1510
   65SAPC   H5R 5316   5.798   1.765   6.875 -0.1014 -1.3592 -1.3415
   65SAPC   C26 5317   5.724   1.703   7.063  0.1421  0.5458  0.3508
   65SAPC   H6R 5318   5.783   1.772   7.125  1.6472 -2.6806  2.8586
   65SAPC   C27 5319   5.637   1.612   7.136  0.3823 -0.0067  0.1294
   65SAPC   H7R 5320   5.700   1.531   7.177  0.1999 -0.7075 -0.9342
   65SAPC   H7S 5321   5.563   1.563   7.068 -1.5666  1.4395  1.0871
   65SAPC   C28 5322   5.539   1.660   7.242  0.1609 -1.0543 -0.0292
   65SAPC   H8R 5323   5.436   1.673   7.207 -0.3711  2.1252  2.3529
   65SAPC   C29 5324   5.560   1.673   7.370 -0.3718 -0.1107  0.2975
   65SAPC   H9R 5325   5.481   1.726   7.426  1.5331  0.5704  2.4576
   65SAPC  C210 5326   5.688   1.660   7.442  0.7627  0.4935  0.2515
   65SAPC  H10R 5327   5.690   1.736   7.524  2.6873  1.0349 -0.2309
   65SAPC  H10S 5328   5.768   1.683   7.369 -1.6031  2.1213 -2.0027
   65SAPC  C211 5329   5.710   1.526   7.503  0.0841  0.4337  0.2833
   65SAPC  H11R 5330   5.775   1.457   7.446 -0.4256 -0.7140  1.0498
   65SAPC  C212 5331   5.654   1.483   7.617  0.2103 -0.4371  0.0693
   65SAPC  H12R 5332   5.682   1.389   7.668  0.1155 -0.1430  0.6727
   65SAPC  C213 5333   5.559   1.563   7.705 -0.6001 -0.2437 -0.1037
   65SAPC  H13R 5334   5.465   1.517   7.744  0.1982 -0.0666  2.1476
   65SAPC  H13S 5335   5.520   1.646   7.642 -1.2764 -0.6257 -0.2025
   65SAPC  C214 5336   5.623   1.630   7.825 -0.3224 -0.1455  0.0050
   65SAPC  H14R 5337   5.712   1.691   7.802 -0.1543 -0.6780 -0.8357
   65SAPC  C215 5338   5.608   1.611   7.963 -0.3846 -0.0055  0.7332
   65SAPC  H15R 5339   5.656   1.682   8.032  0.6168  0.8365 -0.7918
   65SAPC  C216 5340   5.507   1.522   8.025  0.2699  0.1063  0.5225
   65SAPC  H16R 5341   5.485   1.441   7.951 -2.4061  0.5324  0.7379
   65SAPC  H16S 5342   5.407   1.567   8.042  0.0536 -0.4744  0.8329
   65SAPC  C217 5343   5.556   1.441   8.148 -0.7507  0.2976  0.1441
   65SAPC  H17R 5344   5.651   1.391   8.119 -1.5059 -1.2431  0.2784
   65SAPC  H17S 5345   5.475   1.374   8.182 -1.1895  1.4108  1.4215
   65SAPC  C218 5346   5.577   1.537   8.269 -0.1455 -0.1850  0.0208
   65SAPC  H18R 5347   5.479   1.582   8.293  0.6226  0.9379  1.2142
   65SAPC  H18S 5348   5.652   1.616   8.245  0.5174 -0.5537  0.7982
   65SAPC  C219 5349   5.621   1.462   8.400 -0.4050 -0.1283  0.8174
   65SAPC  H19R 5350   5.728   1.442   8.378  0.1874  2.9568  0.4423
   65SAPC  H19S 5351   5.561   1.369   8.408 -0.0728 -0.3615  0.6432
   65SAPC  C220 5352   5.612   1.539   8.529  0.0112 -0.7362 -0.0175
   65SAPC  H20R 5353   5.681   1.626   8.529  1.7421 -2.0478  1.7323
   65SAPC  H20S 5354   5.634   1.470   8.613 -2.0255  0.1074  1.2896
   65SAPC  H20T 5355   5.503   1.554   8.544  0.0660  1.1966 -1.1548
   65SAPC   C33 5356   6.134   1.903   6.745  0.0690 -0.3360  0.1552
   65SAPC   H3X 5357   6.117   1.807   6.798  1.1902 -0.5860  0.0841
   65SAPC   H3Y 5358   6.031   1.943   6.748 -0.5014 -1.7360  0.2692
   65SAPC   C34 5359   6.220   1.986   6.831  0.5713 -0.3272 -0.0585
   65SAPC   H4X 5360   6.267   2.070   6.776 -0.0442 -0.6913 -1.1789
   65SAPC   H4Y 5361   6.310   1.928   6.861  0.4595  0.7399  2.5702
   65SAPC   C35 5362   6.160   2.010   6.975 -0.0571  0.1502  0.5556
   65SAPC   H5X 5363   6.065   2.067   6.975  0.1892  0.6617 -2.0915
   65SAPC   H5Y 5364   6.231   2.079   7.025 -1.8501  1.8386  0.8725
   65SAPC   C36 5365   6.148   1.872   7.045  0.4890  0.1353 -0.3383
   65SAPC   H6X 5366   6.254   1.838   7.041  1.1432  2.1591 -1.0515
   65SAPC   H6Y 5367   6.091   1.796   6.987  0.5317  0.3712 -0.6850
   65SAPC   C37 5368   6.101   1.900   7.189 -0.6529  0.1001 -0.8696
   65SAPC   H7X 5369   5.990   1.892   7.196 -1.0338  1.3335 -3.8147
   65SAPC   H7Y 5370   6.125   2.004   7.217  0.4077  1.1175 -4.8374
   65SAPC   C38 5371   6.167   1.806   7.292  0.1155  0.9272 -0.3072
   65SAPC   H8X 5372   6.272   1.838   7.313  0.3567  0.3570 -0.6361
   65SAPC   H8Y 5373   6.168   1.699   7.263  0.4753 -0.2221  3.3991
   65SAPC   C39 5374   6.105   1.824   7.428  0.0989 -0.1623  0.5667
   65SAPC   H9X 5375   5.996   1.824   7.406  0.1865 -0.0319  0.1280
   65SAPC   H9Y 5376   6.129   1.925   7.468 -0.3136  0.5254 -0.8623
   65SAPC  C310 5377   6.137   1.720   7.534 -0.9459  0.8440  0.1564
   65SAPC  H10X 5378   6.248   1.717   7.543 -0.6876 -1.0874 -2.3935
   65SAPC  H10Y 5379   6.106   1.616   7.510  2.1512 -0.9939  3.2354
   65SAPC  C311 5380   6.075   1.747   7.671 -0.1302  1.0498 -0.1615
   65SAPC  H11X 5381   5.964   1.754   7.671 -0.4921 -2.4413 -2.2521
   65SAPC  H11Y 5382   6.122   1.842   7.706 -1.9727  2.1475 -0.4995
   65SAPC  C312 5383   6.105   1.643   7.773 -0.8006 -0.1945  0.7615
   65SAPC  H12X 5384   6.210   1.606   7.766 -0.6496  0.3655  0.0528
   65SAPC  H12Y 5385   6.031   1.560   7.762  0.5263 -1.1700 -1.4394
   65SAPC  C313 5386   6.096   1.702   7.919 -0.3052 -0.1623  0.1244
   65SAPC  H13X 5387   6.006   1.767   7.912 -0.4353 -0.4106 -0.5387
   65SAPC  H13Y 5388   6.185   1.760   7.951  0.9586 -1.8234 -0.2581
   65SAPC  C314 5389   6.077   1.586   8.018  0.2503  0.1852  0.3665
   65SAPC  H14X 5390   6.142   1.500   7.992  0.3744  0.2865  0.3372
   65SAPC  H14Y 5391   5.978   1.560   7.975  0.9137  0.0301 -1.1108
   65SAPC  C315 5392   6.076   1.621   8.165  0.5188  0.3525 -0.6965
   65SAPC  H15X 5393   6.183   1.641   8.190  0.3886 -0.8244  0.9617
   65SAPC  H15Y 5394   6.046   1.531   8.224  3.0567 -0.4276 -0.4718
   65SAPC  C316 5395   5.978   1.743   8.201 -0.2234  0.5570 -0.2739
   65SAPC  H16X 5396   5.875   1.727   8.163 -0.2940  0.9507 -0.2460
   65SAPC  H16Y 5397   6.016   1.837   8.157 -1.9187  1.4932  0.1909
   65SAPC  C317 5398   5.953   1.756   8.353  0.3463 -0.3801 -0.7469
   65SAPC  H17X 5399   6.047   1.770   8.409 -0.0749  1.4412 -0.4116
   65SAPC  H17Y 5400   5.903   1.665   8.393 -0.6197 -0.3049 -1.7239
   65SAPC  C318 5401   5.863   1.878   8.396  0.6739 -0.0671 -0.0079
   65SAPC  H18X 5402   5.915   1.976   8.388 -1.4750  1.0654 -0.9364
   65SAPC  H18Y 5403   5.816   1.858   8.495 -0.8811 -0.7288 -0.8377
   65SAPC  H18Z 5404   5.775   1.887   8.328 -0.4785  0.5466  1.5001
   66SAPC     N 5405   3.164   0.086   5.855  1.0904  0.4392  0.0178
   66SAPC   C12 5406   3.250   0.109   5.979  0.0696 -0.4131 -0.1224
   66SAPC  H12A 5407   3.285   0.015   6.020 -1.0009 -1.3752 -1.3312
   66SAPC  H12B 5408   3.187   0.158   6.052 -0.5311 -0.3887 -0.6461
   66SAPC   C13 5409   3.226  -0.031   5.777  0.1285 -0.1272  0.4096
   66SAPC  H13A 5410   3.308   0.001   5.714 -0.6085 -0.2938 -0.6661
   66SAPC  H13B 5411   3.280  -0.104   5.836  2.5255 -0.8308 -2.4263
   66SAPC  H13C 5412   3.158  -0.077   5.707  0.3783  0.7524 -0.4288
   66SAPC   C14 5413   3.029   0.038   5.903  0.4495 -0.0933  0.4900
   66SAPC  H14A 5414   2.958   0.029   5.822  0.1506 -1.5505  0.9006
   66SAPC  H14B 5415   3.041  -0.058   5.950 -1.4464  0.4110  2.1308
   66SAPC  H14C 5416   2.984   0.097   5.982  1.9801 -1.5739  2.5656
   66SAPC   C15 5417   3.151   0.216   5.782  0.2971 -0.3140 -0.8248
   66SAPC  H15A 5418   3.069   0.235   5.714  1.0402  1.0022 -1.3920
   66SAPC  H15B 5419   3.123   0.291   5.855 -0.7786 -2.0045  0.5951
   66SAPC  H15C 5420   3.243   0.248   5.735  0.4320 -0.7637 -0.8706
   66SAPC   C11 5421   3.377   0.194   5.968  0.2039  0.2271 -0.1621
   66SAPC  H11A 5422   3.441   0.154   5.886 -0.4929  1.6283 -1.4539
   66SAPC  H11B 5423   3.435   0.185   6.062 -0.7539  1.1584  0.5305
   66SAPC     P 5424   3.317   0.442   6.046 -0.1285  0.3269  0.1509
   66SAPC   O13 5425   3.440   0.501   6.097 -0.1012  0.9467  0.5833
   66SAPC   O14 5426   3.231   0.540   5.972  0.0918  0.1995  0.1134
   66SAPC   O12 5427   3.347   0.330   5.940  0.4107  0.2385 -0.4801
   66SAPC   O11 5428   3.244   0.363   6.164 -0.3428 -0.3624  0.4731
   66SAPC    C1 5429   3.312   0.315   6.282 -0.1850  0.2136 -0.2542
   66SAPC    HA 5430   3.246   0.239   6.330 -1.0964  1.0064 -0.2272
   66SAPC    HB 5431   3.404   0.260   6.253  0.6439  2.0936 -1.3589
   66SAPC    C2 5432   3.326   0.424   6.388 -0.6735 -0.5975  0.3086
   66SAPC    HS 5433   3.416   0.483   6.359 -2.4114  1.5507 -0.9478
   66SAPC   O21 5434   3.335   0.361   6.513  0.3267 -0.2663  0.0988
   66SAPC   C21 5435   3.434   0.284   6.538  0.4768 -0.6087 -0.5572
   66SAPC   O22 5436   3.530   0.269   6.468 -0.2349 -0.2622 -0.1549
   66SAPC   C22 5437   3.417   0.241   6.682  0.0381 -0.2231 -0.1219
   66SAPC   H2R 5438   3.386   0.323   6.751  0.0769 -2.7090  3.0607
   66SAPC   H2S 5439   3.336   0.165   6.682  0.2032 -0.4006  0.2579
   66SAPC    C3 5440   3.218   0.537   6.393  0.0380 -0.3894 -0.0847
   66SAPC    HX 5441   3.129   0.503   6.450 -1.3089 -0.5790 -2.1783
   66SAPC    HY 5442   3.184   0.573   6.293 -1.5509  0.6550  0.7756
   66SAPC   O31 5443   3.274   0.642   6.467  0.2039 -0.5738 -0.6478
   66SAPC   C31 5444   3.192   0.744   6.493  0.4614  0.5448  0.0888
   66SAPC   O32 5445   3.079   0.753   6.448  0.0075 -0.0586 -0.1480
   66SAPC   C32 5446   3.262   0.845   6.578  0.1551 -0.4922 -0.1400
   66SAPC   H2X 5447   3.369   0.862   6.551 -0.0821  0.9186 -0.2457
   66SAPC   H2Y 5448   3.263   0.793   6.677  0.6570  0.8370  0.5803
   66SAPC   C23 5449   3.542   0.165   6.725 -0.4341  0.0344 -0.5090
   66SAPC   H3R 5450   3.628   0.230   6.699  0.0106  0.5510  1.9930
   66SAPC   H3S 5451   3.548   0.066   6.674  0.0041  1.3773 -3.2399
   66SAPC   C24 5452   3.555   0.157   6.883  0.3068 -0.8155 -0.2476
   66SAPC   H4R 5453   3.577   0.257   6.926 -1.4536  0.4089 -2.0070
   66SAPC   H4S 5454   3.645   0.092   6.882  1.0884  0.2341 -1.7796
   66SAPC   C25 5455   3.444   0.075   6.950 -0.4572  0.4558 -0.1642
   66SAPC   H5R 5456   3.405  -0.015   6.900 -2.0359  1.0776 -0.1209
   66SAPC   C26 5457   3.381   0.112   7.062 -0.2789 -0.2551 -0.3460
   66SAPC   H6R 5458   3.298   0.045   7.088  1.6699 -2.0490  1.6052
   66SAPC   C27 5459   3.412   0.233   7.149  0.4255  0.9130 -0.3802
   66SAPC   H7R 5460   3.333   0.310   7.129 -0.6257 -0.4284 -1.6475
   66SAPC   H7S 5461   3.514   0.275   7.134  1.0716 -0.4377  0.1374
   66SAPC   C28 5462   3.404   0.187   7.294  0.0952 -0.6543  0.0156
   66SAPC   H8R 5463   3.391   0.078   7.306  0.6752 -0.6575  0.6815
   66SAPC   C29 5464   3.421   0.263   7.403  0.4327 -0.4785 -0.3224
   66SAPC   H9R 5465   3.403   0.208   7.497 -0.0774 -1.7776 -1.1521
   66SAPC  C210 5466   3.442   0.406   7.413  0.2880  0.0143 -0.6323
   66SAPC  H10R 5467   3.359   0.459   7.362  0.4228  1.8363  0.9160
   66SAPC  H10S 5468   3.541   0.439   7.374  1.6374 -2.4468  0.4926
   66SAPC  C211 5469   3.458   0.443   7.553 -0.1909 -0.4652 -0.4066
   66SAPC  H11R 5470   3.552   0.405   7.596 -0.2105  0.2137  0.2639
   66SAPC  C212 5471   3.368   0.507   7.633  0.0847  0.4564 -0.1313
   66SAPC  H12R 5472   3.393   0.519   7.739  0.4833  0.8849 -0.2690
   66SAPC  C213 5473   3.236   0.565   7.595 -0.9786  0.1842 -0.0794
   66SAPC  H13R 5474   3.166   0.522   7.669 -0.5516  3.3232  2.3818
   66SAPC  H13S 5475   3.201   0.539   7.493 -0.2897  3.0724 -1.1651
   66SAPC  C214 5476   3.230   0.711   7.614 -0.3537 -0.9616 -0.2641
   66SAPC  H14R 5477   3.272   0.752   7.706 -1.8431 -0.6620  0.3057
   66SAPC  C215 5478   3.183   0.800   7.533 -0.0509  0.3072 -0.3021
   66SAPC  H15R 5479   3.211   0.906   7.547  0.1312  0.0549  1.4816
   66SAPC  C216 5480   3.110   0.775   7.405 -0.2826 -0.7620 -0.1247
   66SAPC  H16R 5481   3.042   0.858   7.378  2.0885  1.3025 -0.1816
   66SAPC  H16S 5482   3.053   0.680   7.404 -3.3321  0.9341  0.8334
   66SAPC  C217 5483   3.207   0.764   7.283  0.3982  0.1489  0.1851
   66SAPC  H17R 5484   3.270   0.675   7.304  0.7922  0.2511 -0.5250
   66SAPC  H17S 5485   3.280   0.847   7.291  1.5348 -0.8875  0.6732
   66SAPC  C218 5486   3.134   0.745   7.149  0.0033  0.6720 -0.2713
   66SAPC  H18R 5487   3.212   0.785   7.080  2.4013 -1.5017  1.0223
   66SAPC  H18S 5488   3.049   0.817   7.146 -0.3815  0.2581  0.5082
   66SAPC  C219 5489   3.095   0.607   7.117  0.3030 -0.6697 -0.1707
   66SAPC  H19R 5490   3.030   0.560   7.194 -0.7000 -2.2221 -1.8829
   66SAPC  H19S 5491   3.183   0.540   7.123  0.0898 -1.0744 -1.3663
   66SAPC  C220 5492   3.039   0.595   6.975 -0.6144 -0.1705 -0.3876
   66SAPC  H20R 5493   3.020   0.487   6.957  0.0398 -0.0879 -1.7184
   66SAPC  H20S 5494   3.110   0.629   6.896 -0.0974  2.0169  0.9310
   66SAPC  H20T 5495   2.954   0.663   6.953  0.6390  1.6676  0.2326
   66SAPC   C33 5496   3.185   0.974   6.577  1.0114 -0.3894  0.2650
   66SAPC   H3X 5497   3.075   0.966   6.585  0.9196  0.2646 -0.2511
   66SAPC   H3Y 5498   3.208   1.022   6.479 -1.4226 -0.3908 -0.3629
   66SAPC   C34 5499   3.228   1.075   6.686  0.5236  0.4515  0.4492
   66SAPC   H4X 5500   3.154   1.156   6.674 -0.2591 -0.2520  0.3996
   66SAPC   H4Y 5501   3.323   1.121   6.651 -0.5333  0.3922 -2.8073
   66SAPC   C35 5502   3.244   1.010   6.821  0.3282  0.0316  0.2812
   66SAPC   H5X 5503   3.327   0.935   6.821  1.3305  1.1123  0.7456
   66SAPC   H5Y 5504   3.152   0.957   6.853 -0.7417  1.6672  0.0330
   66SAPC   C36 5505   3.273   1.114   6.923 -0.0384 -1.3283 -0.3665
   66SAPC   H6X 5506   3.209   1.201   6.900  1.5539  0.3852  1.3449
   66SAPC   H6Y 5507   3.374   1.155   6.903 -0.5964 -0.8240 -2.4331
   66SAPC   C37 5508   3.260   1.066   7.065  0.2503  0.5845 -0.4973
   66SAPC   H7X 5509   3.327   0.984   7.099 -0.3700  0.8013  1.3317
   66SAPC   H7Y 5510   3.156   1.031   7.086  0.1656  1.8021  1.2790
   66SAPC   C38 5511   3.292   1.185   7.153  0.0605  1.0267  0.5483
   66SAPC   H8X 5512   3.228   1.275   7.137  0.3816  1.0097 -0.9354
   66SAPC   H8Y 5513   3.385   1.241   7.130 -0.0658  0.0788 -2.6678
   66SAPC   C39 5514   3.294   1.141   7.303 -0.1870 -0.1929 -0.4184
   66SAPC   H9X 5515   3.383   1.076   7.322  1.2807  1.3555 -1.7218
   66SAPC   H9Y 5516   3.203   1.080   7.323 -0.3747 -0.0105 -0.7060
   66SAPC  C310 5517   3.294   1.262   7.400  0.4808 -1.0629  0.0250
   66SAPC  H10X 5518   3.217   1.333   7.363  1.3694 -1.2970 -2.4651
   66SAPC  H10Y 5519   3.383   1.328   7.389 -1.4475  1.5527 -0.8248
   66SAPC  C311 5520   3.283   1.231   7.546  0.2291 -0.0387 -0.0623
   66SAPC  H11X 5521   3.355   1.303   7.590 -1.5543  2.1666 -0.5722
   66SAPC  H11Y 5522   3.319   1.126   7.549  2.3939  0.6665  1.2154
   66SAPC  C312 5523   3.141   1.238   7.601 -0.1253  0.1672 -0.8695
   66SAPC  H12X 5524   3.070   1.203   7.523 -0.3451  1.3151 -1.2023
   66SAPC  H12Y 5525   3.118   1.343   7.629 -1.6605 -0.6087  1.0534
   66SAPC  C313 5526   3.133   1.153   7.732 -0.4602 -0.3562 -0.6259
   66SAPC  H13X 5527   3.205   1.181   7.812  0.0046 -1.1869 -0.7450
   66SAPC  H13Y 5528   3.163   1.052   7.698 -1.6210 -0.6598 -0.7643
   66SAPC  C314 5529   2.998   1.158   7.796 -0.1366 -0.0636 -0.1165
   66SAPC  H14X 5530   2.925   1.108   7.729 -0.3898 -0.3603  0.3773
   66SAPC  H14Y 5531   2.962   1.263   7.804  1.9991  0.6109  2.1258
   66SAPC  C315 5532   3.001   1.117   7.945  0.4835  0.1742  0.5676
   66SAPC  H15X 5533   3.062   1.183   8.010 -0.7786  2.8849 -0.8417
   66SAPC  H15Y 5534   3.037   1.013   7.962 -0.6620 -0.2454  0.5186
   66SAPC  C316 5535   2.857   1.120   8.000  0.5010 -0.2855  0.7822
   66SAPC  H16X 5536   2.813   1.024   7.967  4.0943 -1.8232 -0.0688
   66SAPC  H16Y 5537   2.801   1.206   7.957 -2.2596 -2.8046 -1.0306
   66SAPC  C317 5538   2.851   1.137   8.144 -0.2089 -0.0160  0.2851
   66SAPC  H17X 5539   2.746   1.159   8.170 -1.4765 -2.9643 -1.8705
   66SAPC  H17Y 5540   2.916   1.227   8.160  2.8281 -1.5049 -2.5388
   66SAPC  C318 5541   2.897   1.007   8.223 -0.4314  0.7918  0.1252
   66SAPC  H18X 5542   2.830   0.921   8.205 -0.1585  0.8045 -1.0531
   66SAPC  H18Y 5543   2.887   1.040   8.328  2.7447  0.7123  0.5583
   66SAPC  H18Z 5544   3.006   0.984   8.214 -0.4694  0.8118 -0.4754
   67SAPC     N 5545   5.393   2.422   6.229  0.3391  0.1737 -0.5356
   67SAPC   C12 5546   5.281   2.416   6.337  0.1062  0.4660  1.3242
   67SAPC  H12A 5547   5.278   2.318   6.381  0.5536  0.8704  2.2749
   67SAPC  H12B 5548   5.189   2.426   6.281  0.4734 -1.3742  0.3365
   67SAPC   C13 5549   5.340   2.366   6.103  0.0878 -0.0307  0.4626
   67SAPC  H13A 5550   5.250   2.417   6.071 -1.8132 -0.5783  4.3840
   67SAPC  H13B 5551   5.412   2.378   6.023 -0.6160 -2.5872 -0.6533
   67SAPC  H13C 5552   5.319   2.261   6.116  0.5064 -0.1607  0.1085
   67SAPC   C14 5553   5.439   2.571   6.206  1.0940  0.7003 -0.6766
   67SAPC  H14A 5554   5.462   2.611   6.303 -3.0874 -1.1911  1.3669
   67SAPC  H14B 5555   5.525   2.575   6.141  1.7956  0.4406  0.2123
   67SAPC  H14C 5556   5.353   2.632   6.182  0.9379 -0.2639 -2.8339
   67SAPC   C15 5557   5.513   2.344   6.268  0.1025 -0.5202 -0.3594
   67SAPC  H15A 5558   5.490   2.239   6.283  1.3251 -0.5063  2.0269
   67SAPC  H15B 5559   5.591   2.355   6.194  0.5889 -0.0012  0.2165
   67SAPC  H15C 5560   5.564   2.381   6.356  1.9798 -2.1110 -0.6915
   67SAPC   C11 5561   5.282   2.500   6.463 -0.4616 -0.5206  0.0091
   67SAPC  H11A 5562   5.376   2.468   6.512  1.1765  0.7811 -2.0928
   67SAPC  H11B 5563   5.199   2.473   6.533  0.4809  0.7579  1.6851
   67SAPC     P 5564   5.346   2.757   6.507 -0.0255 -0.1284 -0.0872
   67SAPC   O13 5565   5.476   2.786   6.435 -0.1000  0.0590  0.4409
   67SAPC   O14 5566   5.257   2.873   6.525 -0.1084  0.0329 -0.6853
   67SAPC   O12 5567   5.267   2.641   6.430  0.1016 -0.3897 -0.1057
   67SAPC   O11 5568   5.378   2.694   6.648 -0.2092 -0.3216  0.0313
   67SAPC    C1 5569   5.271   2.658   6.744 -1.2975 -0.4452  0.3017
   67SAPC    HA 5570   5.169   2.640   6.703 -0.3184  1.6897 -3.5565
   67SAPC    HB 5571   5.288   2.556   6.784 -3.7895 -1.0666 -0.0618
   67SAPC    C2 5572   5.255   2.763   6.859 -0.3017 -0.1320  0.2766
   67SAPC    HS 5573   5.255   2.866   6.816 -2.2797 -1.1473 -2.5147
   67SAPC   O21 5574   5.363   2.740   6.954  0.9124  0.8238 -0.3224
   67SAPC   C21 5575   5.413   2.850   7.008 -0.0869  0.0533 -0.0475
   67SAPC   O22 5576   5.387   2.963   6.978  0.0870  0.3473 -0.4813
   67SAPC   C22 5577   5.510   2.801   7.114 -0.6654 -0.1520 -0.1272
   67SAPC   H2R 5578   5.486   2.699   7.152  0.1805  0.9272  3.8243
   67SAPC   H2S 5579   5.617   2.791   7.085 -0.8623  0.3118 -1.0312
   67SAPC    C3 5580   5.114   2.746   6.925 -0.0637  0.5387  0.3463
   67SAPC    HX 5581   5.094   2.637   6.938 -0.3737  0.3608 -1.3954
   67SAPC    HY 5582   5.038   2.780   6.852 -0.8071  0.6823  1.1686
   67SAPC   O31 5583   5.109   2.803   7.061 -0.1672  0.3851 -0.0585
   67SAPC   C31 5584   4.986   2.809   7.102  0.5901  0.5638  0.7357
   67SAPC   O32 5585   4.884   2.768   7.047  0.4276  0.1323 -0.8960
   67SAPC   C32 5586   4.987   2.887   7.230  0.1045  0.4417 -0.8739
   67SAPC   H2X 5587   4.882   2.920   7.248  0.6084  1.0486  1.2369
   67SAPC   H2Y 5588   5.031   2.987   7.209 -1.5244  1.5272  0.5905
   67SAPC   C23 5589   5.518   2.904   7.238 -0.9659  0.0349  0.1225
   67SAPC   H3R 5590   5.428   2.895   7.303 -0.2064 -3.3560  0.9104
   67SAPC   H3S 5591   5.535   3.009   7.207  1.2644 -0.2820  0.1053
   67SAPC   C24 5592   5.642   2.879   7.332 -0.5420  0.0241  0.0486
   67SAPC   H4R 5593   5.654   2.974   7.388 -1.0873  0.0274  0.1655
   67SAPC   H4S 5594   5.728   2.871   7.262  0.4847  1.7340  1.0518
   67SAPC   C25 5595   5.636   2.769   7.435 -0.3907 -0.1290  0.3305
   67SAPC   H5R 5596   5.622   2.669   7.391  1.2276  0.3036 -1.3407
   67SAPC   C26 5597   5.651   2.781   7.568  0.1302 -0.6392  0.4798
   67SAPC   H6R 5598   5.653   2.689   7.627 -2.1138 -0.8091  0.3643
   67SAPC   C27 5599   5.675   2.905   7.646 -0.9954 -0.2850  0.1883
   67SAPC   H7R 5600   5.714   2.982   7.576  2.2494 -0.7547  1.3129
   67SAPC   H7S 5601   5.763   2.892   7.712  1.4671 -0.2420 -2.8414
   67SAPC   C28 5602   5.549   2.928   7.724  0.2753  1.0008 -0.8882
   67SAPC   H8R 5603   5.463   2.975   7.674 -1.7279 -1.5031 -0.0021
   67SAPC   C29 5604   5.532   2.899   7.857 -0.1694  0.1573  0.0990
   67SAPC   H9R 5605   5.434   2.926   7.899 -0.3703  0.2262 -0.4118
   67SAPC  C210 5606   5.625   2.845   7.957 -0.4058  0.1882  0.0939
   67SAPC  H10R 5607   5.633   2.921   8.037 -0.4607  0.8213 -0.4879
   67SAPC  H10S 5608   5.728   2.844   7.913 -0.5061  0.4538 -0.1533
   67SAPC  C211 5609   5.589   2.706   7.990 -0.1701 -0.2476 -0.4608
   67SAPC  H11R 5610   5.553   2.639   7.911 -3.3417 -1.3322  1.6599
   67SAPC  C212 5611   5.587   2.658   8.114 -0.3062  0.0607 -1.1169
   67SAPC  H12R 5612   5.551   2.555   8.125  0.2499 -0.1738 -1.4393
   67SAPC  C213 5613   5.631   2.730   8.238 -0.2060 -0.0246  0.3603
   67SAPC  H13R 5614   5.554   2.757   8.314  1.6237  1.8856  1.6432
   67SAPC  H13S 5615   5.673   2.828   8.207  0.3951 -0.3677  0.0893
   67SAPC  C214 5616   5.735   2.640   8.300 -0.0814  0.3706 -0.2219
   67SAPC  H14R 5617   5.717   2.531   8.293  0.2922  0.0798  2.4778
   67SAPC  C215 5618   5.852   2.665   8.357 -0.7222 -0.0720 -0.2322
   67SAPC  H15R 5619   5.905   2.580   8.402 -0.8876 -0.1569 -0.1943
   67SAPC  C216 5620   5.917   2.798   8.385 -0.6306 -0.7423 -0.0795
   67SAPC  H16R 5621   5.874   2.820   8.485 -0.4968  0.3207 -0.2442
   67SAPC  H16S 5622   5.864   2.884   8.339 -0.8569  0.2616  1.9547
   67SAPC  C217 5623   6.075   2.808   8.379  1.0348  0.5428 -0.1682
   67SAPC  H17R 5624   6.103   2.913   8.403  0.7001  1.1655 -2.2901
   67SAPC  H17S 5625   6.107   2.789   8.275 -0.7222  1.9943 -1.0281
   67SAPC  C218 5626   6.153   2.713   8.480  0.2032 -0.5238  0.5798
   67SAPC  H18R 5627   6.257   2.749   8.493  0.9657 -1.3721 -2.4434
   67SAPC  H18S 5628   6.148   2.609   8.444  0.1099 -0.6859  1.0461
   67SAPC  C219 5629   6.099   2.701   8.627  0.2545  0.5904  0.1495
   67SAPC  H19R 5630   6.005   2.642   8.616 -0.0078  1.1916 -1.0708
   67SAPC  H19S 5631   6.067   2.802   8.662  0.9744  0.2043  2.0442
   67SAPC  C220 5632   6.193   2.629   8.711 -0.5672 -0.1722  0.2215
   67SAPC  H20R 5633   6.296   2.632   8.670 -1.5738  0.9594 -2.5052
   67SAPC  H20S 5634   6.159   2.527   8.739  0.6408 -0.4420  0.7765
   67SAPC  H20T 5635   6.194   2.687   8.805 -1.1012  1.0726 -0.5097
   67SAPC   C33 5636   5.033   2.806   7.351 -0.3078  0.8774  0.3991
   67SAPC   H3X 5637   5.141   2.779   7.343 -0.3025  1.2724 -1.3459
   67SAPC   H3Y 5638   4.968   2.716   7.356  1.3216 -0.3443  0.2963
   67SAPC   C34 5639   5.010   2.882   7.481  0.1320 -0.5669 -0.3391
   67SAPC   H4X 5640   5.030   2.800   7.553 -1.3752 -1.3095 -0.7431
   67SAPC   H4Y 5641   4.904   2.900   7.506 -0.1400 -3.8368  1.2404
   67SAPC   C35 5642   5.101   3.003   7.509 -0.6460 -0.6254 -0.5287
   67SAPC   H5X 5643   5.096   3.081   7.431  1.2488  0.7798  0.6586
   67SAPC   H5Y 5644   5.205   2.963   7.504 -1.0193 -1.4595 -2.9082
   67SAPC   C36 5645   5.076   3.078   7.639  0.1652  0.5100  0.3411
   67SAPC   H6X 5646   4.966   3.094   7.650  0.0898  2.3034 -2.2493
   67SAPC   H6Y 5647   5.124   3.178   7.636 -0.1238  0.7256  1.9304
   67SAPC   C37 5648   5.144   3.020   7.762  0.1567 -0.3792 -0.0784
   67SAPC   H7X 5649   5.254   3.038   7.765  0.1116 -0.1549  2.4002
   67SAPC   H7Y 5650   5.128   2.911   7.776  5.2425 -1.5669 -1.3543
   67SAPC   C38 5651   5.082   3.079   7.885  0.3553  0.1397 -0.7583
   67SAPC   H8X 5652   4.971   3.065   7.887  0.0878  1.9887 -0.5913
   67SAPC   H8Y 5653   5.106   3.187   7.874 -0.0406  0.4876  1.4212
   67SAPC   C39 5654   5.138   3.029   8.022  0.0607 -0.2728 -0.6452
   67SAPC   H9X 5655   5.248   3.016   8.015  0.0271 -1.4592  0.6055
   67SAPC   H9Y 5656   5.092   2.929   8.037  0.7268 -0.7581 -1.7573
   67SAPC  C310 5657   5.112   3.114   8.146  0.1820 -0.0332 -0.1919
   67SAPC  H10X 5658   5.175   3.204   8.136 -2.5967  1.8435 -1.9184
   67SAPC  H10Y 5659   5.140   3.050   8.233  1.3776 -0.4157 -0.8397
   67SAPC  C311 5660   4.964   3.157   8.174 -0.3777  0.5941 -0.0586
   67SAPC  H11X 5661   4.904   3.064   8.182 -0.7916  0.9710  1.4311
   67SAPC  H11Y 5662   4.927   3.215   8.087 -1.4755  0.3252  0.2134
   67SAPC  C312 5663   4.916   3.220   8.304  0.1854  0.8812 -0.5447
   67SAPC  H12X 5664   4.925   3.141   8.382  0.2998 -0.9054 -2.2633
   67SAPC  H12Y 5665   4.808   3.244   8.309 -0.1920 -0.9208  0.9526
   67SAPC  C313 5666   4.996   3.344   8.333  0.0489 -0.3148 -0.6713
   67SAPC  H13X 5667   5.103   3.323   8.356  0.1031 -0.0081 -0.6444
   67SAPC  H13Y 5668   4.954   3.388   8.426  2.2186 -1.5285  0.9905
   67SAPC  C314 5669   4.985   3.465   8.236  0.5946  0.7690 -0.0608
   67SAPC  H14X 5670   4.879   3.497   8.237  1.0237  2.2389  1.2539
   67SAPC  H14Y 5671   5.022   3.441   8.133  1.7200 -2.4319  0.9538
   67SAPC  C315 5672   5.068   3.579   8.283  0.1940 -0.1685  0.3246
   67SAPC  H15X 5673   5.041   3.609   8.386  1.2158  2.3855 -0.0657
   67SAPC  H15Y 5674   5.034   3.669   8.228 -0.9294 -1.0900 -0.5268
   67SAPC  C316 5675   5.224   3.557   8.288 -0.2852  0.1032  0.4423
   67SAPC  H16X 5676   5.243   3.487   8.204 -0.5545 -1.4563  1.6390
   67SAPC  H16Y 5677   5.255   3.517   8.387  1.5709  0.8965  0.2129
   67SAPC  C317 5678   5.298   3.690   8.267 -0.0019  0.1011 -0.4522
   67SAPC  H17X 5679   5.274   3.760   8.350  0.9719  1.1321 -1.0072
   67SAPC  H17Y 5680   5.250   3.732   8.176 -0.0951  0.9001 -0.0365
   67SAPC  C318 5681   5.439   3.673   8.254 -0.4286 -0.0865  0.4076
   67SAPC  H18X 5682   5.479   3.764   8.204 -0.9999 -0.0161  0.0735
   67SAPC  H18Y 5683   5.462   3.582   8.195 -1.0032  0.0483 -0.0204
   67SAPC  H18Z 5684   5.482   3.667   8.357 -0.8660 -0.6459  0.5631
   68SAPC     N 5685   3.576   1.978   5.849 -0.3986 -0.4101 -0.7325
   68SAPC   C12 5686   3.559   1.976   5.995  0.1187 -0.3552 -0.2863
   68SAPC  H12A 5687   3.637   2.032   6.044 -0.5148 -0.4738  0.8830
   68SAPC  H12B 5688   3.579   1.876   6.029  0.2632 -0.6038 -1.0802
   68SAPC   C13 5689   3.702   1.919   5.811  0.4516 -0.4127 -1.2380
   68SAPC  H13A 5690   3.793   1.962   5.851  0.4763  0.2661 -1.9939
   68SAPC  H13B 5691   3.707   1.814   5.833  0.7308 -0.4523 -1.4804
   68SAPC  H13C 5692   3.715   1.930   5.704  1.8538 -1.5663 -1.2144
   68SAPC   C14 5693   3.469   1.907   5.770  0.5300  1.1116  0.3125
   68SAPC  H14A 5694   3.366   1.926   5.799 -0.9156 -2.4985 -1.8214
   68SAPC  H14B 5695   3.476   1.928   5.664 -1.7203 -0.1716 -0.1609
   68SAPC  H14C 5696   3.477   1.800   5.781 -0.8459  0.9347 -0.1852
   68SAPC   C15 5697   3.577   2.124   5.802  0.2253 -0.2141  0.2513
   68SAPC  H15A 5698   3.599   2.136   5.697  1.8451 -0.9362  0.4684
   68SAPC  H15B 5699   3.483   2.168   5.832 -0.0539 -0.5287 -0.1513
   68SAPC  H15C 5700   3.653   2.184   5.850  0.3260 -0.3814  0.3045
   68SAPC   C11 5701   3.418   2.024   6.056  0.3152 -0.1615  0.5729
   68SAPC  H11A 5702   3.404   2.001   6.164 -0.8028  1.3799  0.7835
   68SAPC  H11B 5703   3.343   1.961   6.003 -0.1226  2.2220 -1.7945
   68SAPC     P 5704   3.440   2.268   6.139  0.2930 -0.3846 -0.1815
   68SAPC   O13 5705   3.573   2.234   6.186  0.6319  0.0429  0.0737
   68SAPC   O14 5706   3.419   2.403   6.077  0.5272 -0.2594  0.4849
   68SAPC   O12 5707   3.398   2.163   6.028  0.0389  0.2109  0.3543
   68SAPC   O11 5708   3.335   2.231   6.253 -0.1848  0.0231 -0.4443
   68SAPC    C1 5709   3.197   2.263   6.245  0.4782  0.7793 -0.1175
   68SAPC    HA 5710   3.169   2.351   6.183 -2.2601 -0.0686 -0.2220
   68SAPC    HB 5711   3.135   2.181   6.205  0.2639  0.7374  0.2919
   68SAPC    C2 5712   3.157   2.297   6.393 -0.2200 -0.1794  0.1028
   68SAPC    HS 5713   3.051   2.328   6.395 -0.1702  0.0366 -0.3750
   68SAPC   O21 5714   3.241   2.401   6.447 -0.2804 -0.0046 -0.2677
   68SAPC   C21 5715   3.215   2.521   6.393  0.1064  0.1954 -0.2379
   68SAPC   O22 5716   3.124   2.545   6.320  0.4147 -0.0901  0.0407
   68SAPC   C22 5717   3.305   2.628   6.453 -0.2108  0.2376 -0.4247
   68SAPC   H2R 5718   3.308   2.621   6.564  2.2155  1.9836 -0.3090
   68SAPC   H2S 5719   3.408   2.604   6.420 -0.1029  0.2547 -0.1011
   68SAPC    C3 5720   3.163   2.173   6.480  0.3965  0.0133  0.2422
   68SAPC    HX 5721   3.262   2.124   6.478 -0.1324 -1.1843  1.5547
   68SAPC    HY 5722   3.103   2.101   6.421  2.1484 -0.6532 -0.7906
   68SAPC   O31 5723   3.123   2.203   6.618 -0.3009 -0.2039  0.0453
   68SAPC   C31 5724   3.105   2.094   6.686 -0.5717  0.4736 -0.8285
   68SAPC   O32 5725   3.118   1.981   6.636  0.0871 -0.4518 -0.3248
   68SAPC   C32 5726   3.082   2.127   6.832 -0.1383 -0.1070  0.5915
   68SAPC   H2X 5727   2.990   2.188   6.822 -0.5621 -0.9976 -1.3706
   68SAPC   H2Y 5728   3.158   2.193   6.880 -0.6468  0.5170  0.5548
   68SAPC   C23 5729   3.279   2.781   6.431  0.2755  0.0899 -0.0145
   68SAPC   H3R 5730   3.285   2.787   6.320  0.1702 -0.8961 -0.0871
   68SAPC   H3S 5731   3.366   2.841   6.466 -0.4830  0.4746  1.2591
   68SAPC   C24 5732   3.153   2.838   6.486  1.0016 -0.6500 -0.2818
   68SAPC   H4R 5733   3.073   2.766   6.457  1.5569 -1.8216  0.9653
   68SAPC   H4S 5734   3.134   2.931   6.429 -1.1388  0.2255  1.6912
   68SAPC   C25 5735   3.159   2.865   6.634 -0.2043 -0.2877 -0.4756
   68SAPC   H5R 5736   3.224   2.952   6.654 -0.2544  0.1023 -1.9312
   68SAPC   C26 5737   3.111   2.789   6.736  0.1787 -0.6370 -0.3549
   68SAPC   H6R 5738   3.114   2.835   6.836  1.2180 -1.5458  0.0494
   68SAPC   C27 5739   3.047   2.652   6.725 -0.1699  0.5630 -0.0666
   68SAPC   H7R 5740   3.046   2.627   6.617  1.8791  0.7653 -0.1768
   68SAPC   H7S 5741   2.940   2.658   6.754 -0.6808 -0.0793 -1.7311
   68SAPC   C28 5742   3.119   2.546   6.812 -0.1309  0.2808 -0.5230
   68SAPC   H8R 5743   3.186   2.477   6.759 -0.3075 -0.8682  0.6722
   68SAPC   C29 5744   3.116   2.539   6.944 -0.7211 -1.0931 -0.2222
   68SAPC   H9R 5745   3.170   2.457   6.993  1.5351  1.2432  1.4615
   68SAPC  C210 5746   3.041   2.630   7.044  0.2842  0.1228  0.8219
   68SAPC  H10R 5747   2.964   2.574   7.102  0.3850 -0.3668  0.4892
   68SAPC  H10S 5748   2.980   2.700   6.984 -1.4595 -4.2964 -3.1849
   68SAPC  C211 5749   3.141   2.694   7.141  0.3926  0.2360 -0.3107
   68SAPC  H11R 5750   3.201   2.775   7.096 -0.4363  1.7404  1.2097
   68SAPC  C212 5751   3.179   2.642   7.259  0.2028 -0.3660 -0.6035
   68SAPC  H12R 5752   3.258   2.698   7.312 -1.3170  0.7113  0.6122
   68SAPC  C213 5753   3.126   2.522   7.337  0.4532  0.8594 -0.4905
   68SAPC  H13R 5754   3.206   2.488   7.405  0.5162  2.8254  0.4799
   68SAPC  H13S 5755   3.111   2.446   7.258  0.3879 -0.9635  1.2181
   68SAPC  C214 5756   2.995   2.543   7.404 -0.8995 -0.0014 -0.3533
   68SAPC  H14R 5757   2.906   2.562   7.341 -1.7362 -0.2935  0.7276
   68SAPC  C215 5758   2.969   2.554   7.533 -0.0432  0.5999 -0.6358
   68SAPC  H15R 5759   2.868   2.583   7.566 -0.9244 -1.5697 -1.2411
   68SAPC  C216 5760   3.076   2.540   7.639  0.2838  0.0759 -0.1307
   68SAPC  H16R 5761   3.165   2.590   7.595  0.5547 -1.5220 -1.4711
   68SAPC  H16S 5762   3.097   2.433   7.659  0.8693  0.1649 -0.2602
   68SAPC  C217 5763   3.042   2.605   7.774 -0.3469  0.3810 -0.4276
   68SAPC  H17R 5764   3.027   2.715   7.774  2.1271  0.7739  0.8293
   68SAPC  H17S 5765   3.135   2.595   7.833 -0.5081  1.1797 -0.0348
   68SAPC  C218 5766   2.918   2.539   7.839 -0.1520 -0.2323 -0.1546
   68SAPC  H18R 5767   2.915   2.431   7.810 -1.3805 -0.9086  2.2164
   68SAPC  H18S 5768   2.820   2.582   7.812 -1.9210 -1.9548  2.8449
   68SAPC  C219 5769   2.928   2.550   7.993 -0.2162  0.9029 -0.4015
   68SAPC  H19R 5770   2.960   2.647   8.034  0.4952 -0.6757  3.1178
   68SAPC  H19S 5771   2.999   2.482   8.044 -1.9180  0.2777  1.2505
   68SAPC  C220 5772   2.786   2.519   8.044  0.5624  1.0259  0.8652
   68SAPC  H20R 5773   2.780   2.512   8.155 -1.8336 -2.0103  0.6572
   68SAPC  H20S 5774   2.749   2.425   7.998 -0.2571  1.8475 -0.1883
   68SAPC  H20T 5775   2.722   2.604   8.014  1.5100  0.9448 -1.6023
   68SAPC   C33 5776   3.060   2.008   6.920  0.4532 -0.1149  0.0315
   68SAPC   H3X 5777   3.147   1.938   6.918 -0.3693 -1.1800 -2.2564
   68SAPC   H3Y 5778   2.980   1.936   6.892  0.7054  0.1359 -1.4176
   68SAPC   C34 5779   3.036   2.052   7.070 -0.5151 -0.6102  0.0811
   68SAPC   H4X 5780   2.937   2.103   7.074 -1.4419 -2.3530  1.1768
   68SAPC   H4Y 5781   3.113   2.119   7.114 -0.2142  0.3780 -1.8723
   68SAPC   C35 5782   3.029   1.936   7.174  0.3963 -0.1984 -0.0068
   68SAPC   H5X 5783   3.105   1.861   7.143 -0.7526 -2.0964  1.5410
   68SAPC   H5Y 5784   2.926   1.901   7.155  0.6581 -0.2137 -1.5398
   68SAPC   C36 5785   3.051   1.991   7.320 -0.1891 -0.3707  0.7168
   68SAPC   H6X 5786   3.151   2.039   7.312 -0.2224 -0.5742 -1.6466
   68SAPC   H6Y 5787   3.067   1.901   7.384 -1.2972 -1.6241 -0.6851
   68SAPC   C37 5788   2.943   2.085   7.371 -0.0678  0.4432  0.5676
   68SAPC   H7X 5789   2.846   2.030   7.368  0.7385 -1.0572  0.7472
   68SAPC   H7Y 5790   2.947   2.162   7.291  1.1495 -0.9673 -0.8187
   68SAPC   C38 5791   2.973   2.142   7.506 -0.9033  0.1916 -0.0601
   68SAPC   H8X 5792   2.911   2.233   7.526 -0.6054  1.3637 -3.7629
   68SAPC   H8Y 5793   3.082   2.161   7.510 -0.6770 -1.0482  3.4724
   68SAPC   C39 5794   2.965   2.044   7.621 -0.2811 -0.2293  0.2311
   68SAPC   H9X 5795   3.033   1.959   7.596  1.8082  1.8674 -1.8640
   68SAPC   H9Y 5796   2.861   2.008   7.629  0.9503 -3.7450  2.5982
   68SAPC  C310 5797   2.999   2.122   7.748  0.0307 -0.2550 -0.1389
   68SAPC  H10X 5798   2.938   2.215   7.739  0.8217  0.1720 -1.2926
   68SAPC  H10Y 5799   3.108   2.141   7.758  0.0018 -1.2182  3.6008
   68SAPC  C311 5800   2.950   2.053   7.877  0.9177  0.5284 -0.3297
   68SAPC  H11X 5801   3.026   1.980   7.913 -2.1730 -3.6778 -1.4706
   68SAPC  H11Y 5802   2.853   2.002   7.855  0.7605  0.6023  0.1689
   68SAPC  C312 5803   2.924   2.150   7.995  0.2139 -0.4577  0.1862
   68SAPC  H12X 5804   2.824   2.197   7.987  1.0582  1.7503  1.5221
   68SAPC  H12Y 5805   3.000   2.231   7.991 -1.9039  1.5986 -1.4289
   68SAPC  C313 5806   2.940   2.083   8.132 -0.6122  0.2311 -0.2853
   68SAPC  H13X 5807   3.012   2.000   8.118  0.8051  0.7350  2.9826
   68SAPC  H13Y 5808   2.849   2.044   8.182 -0.9603  2.6410  1.1215
   68SAPC  C314 5809   3.012   2.182   8.232 -0.4629  0.4278  0.8566
   68SAPC  H14X 5810   3.090   2.243   8.183  0.0175 -0.9425 -0.1338
   68SAPC  H14Y 5811   3.066   2.119   8.305 -0.9520  1.3829  2.0983
   68SAPC  C315 5812   2.918   2.278   8.294  0.6704 -0.1496  0.3813
   68SAPC  H15X 5813   2.844   2.227   8.359  1.9360 -4.2072 -1.0653
   68SAPC  H15Y 5814   2.863   2.334   8.216  0.6825 -0.0948  0.4125
   68SAPC  C316 5815   2.979   2.388   8.384 -0.4209 -0.2581 -0.2764
   68SAPC  H16X 5816   3.059   2.432   8.320 -0.0766 -0.1598  0.2205
   68SAPC  H16Y 5817   3.025   2.340   8.472  1.1867  1.4715 -0.1104
   68SAPC  C317 5818   2.890   2.498   8.439  0.1541  0.9318  0.2667
   68SAPC  H17X 5819   2.818   2.549   8.372 -0.9223 -0.6089  0.2158
   68SAPC  H17Y 5820   2.966   2.578   8.457  0.7270  0.0175  2.2438
   68SAPC  C318 5821   2.829   2.451   8.572  0.0716 -0.5844  0.2964
   68SAPC  H18X 5822   2.906   2.422   8.647  0.8481 -0.6812 -0.5220
   68SAPC  H18Y 5823   2.773   2.361   8.538 -2.1304 -0.1786  2.5694
   68SAPC  H18Z 5824   2.761   2.528   8.614 -0.1279 -0.2113 -0.6915
   69SLPC     N 5825   6.506   0.711  10.839 -1.2176  0.2328  0.0728
   69SLPC   C13 5826   6.517   0.807  10.955  0.0826  0.2316  0.1497
   69SLPC  H13A 5827   6.608   0.865  10.953  1.5365 -1.9088 -2.2341
   69SLPC  H13B 5828   6.436   0.878  10.951  0.1778  0.3429  0.2145
   69SLPC  H13C 5829   6.509   0.748  11.046 -1.2795  1.0059  0.5504
   69SLPC   C14 5830   6.623   0.623  10.846  0.1637  0.0131 -0.4315
   69SLPC  H14A 5831   6.619   0.553  10.764 -0.2901  1.3988 -1.6194
   69SLPC  H14B 5832   6.719   0.673  10.844  0.2956 -0.2111  0.1146
   69SLPC  H14C 5833   6.608   0.556  10.930 -0.9886  0.5101 -0.2258
   69SLPC   C15 5834   6.522   0.789  10.712 -0.1221  0.2482 -0.2185
   69SLPC  H15A 5835   6.620   0.835  10.708  0.9583 -1.8790  0.2574
   69SLPC  H15B 5836   6.516   0.725  10.625  0.8761 -3.3341  2.1356
   69SLPC  H15C 5837   6.453   0.871  10.700  0.2227  0.3703 -1.4844
   69SLPC   C12 5838   6.377   0.628  10.842 -0.2734 -0.2460  0.0095
   69SLPC  H12A 5839   6.376   0.581  10.745 -1.3875 -0.6760  0.2188
   69SLPC  H12B 5840   6.291   0.692  10.848 -1.1366 -1.0686 -2.3428
   69SLPC   C11 5841   6.373   0.520  10.947  0.3630 -0.6838 -0.4855
   69SLPC  H11A 5842   6.272   0.478  10.968  1.1692 -2.5302 -0.0530
   69SLPC  H11B 5843   6.408   0.574  11.038  1.0406  1.1174 -1.7662
   69SLPC     P 5844   6.403   0.313  10.790  0.0804 -0.2124  0.4006
   69SLPC   O13 5845   6.528   0.235  10.749  0.2998  0.3488  0.5962
   69SLPC   O14 5846   6.284   0.234  10.819 -0.0961  0.7815 -0.0125
   69SLPC   O12 5847   6.442   0.411  10.915 -0.4594  0.4000  0.3507
   69SLPC   O11 5848   6.376   0.406  10.670  0.7501 -0.3536  0.1181
   69SLPC    C1 5849   6.254   0.393  10.597 -0.6936  0.7292  0.0102
   69SLPC    HA 5850   6.164   0.396  10.661 -0.8223 -0.0110 -0.1273
   69SLPC    HB 5851   6.243   0.489  10.542  1.1585  1.7048  1.2112
   69SLPC    C2 5852   6.261   0.278  10.490  0.1634  0.9200 -0.8298
   69SLPC    HS 5853   6.260   0.187  10.554 -1.4924  2.2743  1.2241
   69SLPC   O21 5854   6.369   0.283  10.396  0.1585  0.3676 -0.2257
   69SLPC   C21 5855   6.417   0.167  10.356  0.1449 -0.3013 -0.6881
   69SLPC   O22 5856   6.383   0.058  10.395  0.1140  0.7263 -0.0088
   69SLPC   C22 5857   6.535   0.199  10.265  0.6199  0.4327  0.6089
   69SLPC   H2R 5858   6.521   0.303  10.228  0.4496  0.8475  1.7743
   69SLPC   H2S 5859   6.626   0.198  10.329 -0.5939 -1.9682  2.4649
   69SLPC    C3 5860   6.129   0.290  10.402 -0.7669 -0.7244 -0.4428
   69SLPC    HX 5861   6.122   0.395  10.365 -1.6487 -0.1966  1.1197
   69SLPC    HY 5862   6.045   0.282  10.474  0.0226 -3.4571  0.2803
   69SLPC   O31 5863   6.122   0.192  10.296 -0.3969  0.8281  0.1301
   69SLPC   C31 5864   6.081   0.074  10.328  0.1860  0.3668  0.3359
   69SLPC   O32 5865   6.043   0.037  10.438 -0.1340 -0.0738  0.3949
   69SLPC   C32 5866   6.078  -0.032  10.203  0.0678  0.4392 -0.7497
   69SLPC   H2X 5867   6.121   0.029  10.122 -1.2842  1.8002 -0.4906
   69SLPC   H2Y 5868   5.974  -0.062  10.178  0.6754 -2.0190 -0.6109
   69SLPC   C23 5869   6.540   0.103  10.143 -0.2595  0.4506 -0.4742
   69SLPC   H3R 5870   6.533  -0.002  10.179  1.8239 -0.0474 -1.3543
   69SLPC   H3S 5871   6.640   0.118  10.097  1.2833 -1.5283  2.0069
   69SLPC   C24 5872   6.426   0.130  10.039 -0.0488  0.3696  0.2178
   69SLPC   H4R 5873   6.411   0.238  10.017 -0.8862  0.0247 -0.9994
   69SLPC   H4S 5874   6.331   0.085  10.073 -1.0294  1.7515 -0.5560
   69SLPC   C25 5875   6.462   0.073   9.895  1.0083 -0.7228 -0.4631
   69SLPC   H5R 5876   6.459  -0.038   9.887  0.1941 -0.9118  1.7643
   69SLPC   H5S 5877   6.570   0.099   9.896  0.7047  0.5889 -0.0901
   69SLPC   C26 5878   6.373   0.124   9.784  0.2188 -0.1256  0.6741
   69SLPC   H6R 5879   6.397   0.230   9.757 -0.5889  0.6230  2.6911
   69SLPC   H6S 5880   6.265   0.118   9.808 -0.2111 -1.6607 -1.3381
   69SLPC   C27 5881   6.381   0.049   9.651  0.0567  0.1500  0.0929
   69SLPC   H7R 5882   6.389  -0.058   9.679 -1.8671 -0.0076  0.1094
   69SLPC   H7S 5883   6.472   0.064   9.588 -0.2700  0.2490 -0.3539
   69SLPC   C28 5884   6.267   0.058   9.553 -0.4764  0.1284 -0.2742
   69SLPC   H8R 5885   6.175   0.065   9.615 -1.9204 -0.9690 -2.2033
   69SLPC   H8S 5886   6.261  -0.046   9.513 -1.6008  0.6021 -1.3775
   69SLPC   C29 5887   6.253   0.158   9.444  0.2035 -0.3722 -0.1380
   69SLPC   H9R 5888   6.181   0.235   9.473 -0.1040 -0.5243 -0.4860
   69SLPC  C210 5889   6.307   0.148   9.319  0.1746 -0.0277  0.4757
   69SLPC  H10R 5890   6.282   0.224   9.244  0.8855  0.3229  0.5784
   69SLPC  C211 5891   6.411   0.053   9.258 -0.6687 -0.4468 -0.4271
   69SLPC  H11R 5892   6.440  -0.020   9.336 -0.4574 -0.7155 -0.7556
   69SLPC  H11S 5893   6.496   0.119   9.231 -1.4900  0.0507 -1.9471
   69SLPC  C212 5894   6.372  -0.022   9.133 -0.2420  0.1886  0.0016
   69SLPC  H12R 5895   6.264  -0.011   9.114 -0.5694 -0.5003  1.3647
   69SLPC  C213 5896   6.438  -0.111   9.064 -0.1215  0.6915 -0.6346
   69SLPC  H13R 5897   6.384  -0.150   8.977  0.7868 -3.9245  0.6300
   69SLPC  C214 5898   6.576  -0.158   9.100  0.9551  0.1296 -0.0379
   69SLPC  H14R 5899   6.574  -0.267   9.119 -0.2019  0.0155 -0.7222
   69SLPC  H14S 5900   6.603  -0.109   9.197 -0.5950  1.4554 -0.2297
   69SLPC  C215 5901   6.684  -0.112   9.000  0.2959  0.0389 -0.5018
   69SLPC  H15R 5902   6.677  -0.002   8.982 -0.8574  0.0724  0.0474
   69SLPC  H15S 5903   6.663  -0.163   8.903 -1.7092 -1.0426  0.4314
   69SLPC  C216 5904   6.831  -0.147   9.038  0.7728 -0.2718  0.1170
   69SLPC  H16R 5905   6.841  -0.252   9.071  0.9192 -0.5401 -0.7456
   69SLPC  H16S 5906   6.847  -0.070   9.116 -1.6119  2.2735 -1.6837
   69SLPC  C217 5907   6.940  -0.114   8.929 -0.2121 -0.5676  0.0627
   69SLPC  H17R 5908   6.919  -0.158   8.829  2.2653  1.2255 -1.3680
   69SLPC  H17S 5909   7.038  -0.157   8.958  0.7138  1.2382 -0.2267
   69SLPC  C218 5910   6.962   0.036   8.899 -0.3580  0.1655  0.9660
   69SLPC  H18R 5911   6.887   0.074   8.826  1.0722  1.7052  0.2353
   69SLPC  H18S 5912   7.060   0.054   8.851 -0.3235  0.3909  1.1191
   69SLPC  H18T 5913   6.958   0.094   8.994 -0.1111 -0.4218  1.3410
   69SLPC   C33 5914   6.161  -0.164  10.204  0.2323 -0.0329  0.4365
   69SLPC   H3X 5915   6.148  -0.219  10.300 -1.5116 -0.6690 -0.1274
   69SLPC   H3Y 5916   6.266  -0.131  10.201  0.0841  0.3987 -2.0343
   69SLPC   C34 5917   6.132  -0.255  10.077 -0.5851  0.0546 -0.3402
   69SLPC   H4X 5918   6.027  -0.289  10.095 -0.6359  1.0201  1.3062
   69SLPC   H4Y 5919   6.192  -0.348  10.075 -0.3203  0.1909 -3.0227
   69SLPC   C35 5920   6.134  -0.184   9.941 -0.3842 -0.2072  0.0178
   69SLPC   H5X 5921   6.238  -0.146   9.936  0.0320 -1.4404 -1.2385
   69SLPC   H5Y 5922   6.046  -0.115   9.940 -0.9052 -0.8279  1.2036
   69SLPC   C36 5923   6.118  -0.291   9.824 -0.3790 -0.2609 -0.0432
   69SLPC   H6X 5924   6.030  -0.359   9.832 -0.9943  0.4425 -0.6831
   69SLPC   H6Y 5925   6.203  -0.363   9.828 -1.2980 -1.4436 -1.0628
   69SLPC   C37 5926   6.106  -0.225   9.689 -0.5164  0.2864 -0.1777
   69SLPC   H7X 5927   6.189  -0.151   9.685 -0.5843  0.4469  0.9786
   69SLPC   H7Y 5928   6.014  -0.161   9.692 -0.6181  0.1160  2.0287
   69SLPC   C38 5929   6.097  -0.333   9.574  0.2143  0.4400  0.0101
   69SLPC   H8X 5930   5.990  -0.361   9.562  0.2304  0.6782 -0.7511
   69SLPC   H8Y 5931   6.158  -0.420   9.604 -1.0268 -0.8398 -1.0682
   69SLPC   C39 5932   6.146  -0.296   9.432 -0.0881  0.5205  0.2857
   69SLPC   H9X 5933   6.254  -0.270   9.434 -0.1224  0.7693 -0.6791
   69SLPC   H9Y 5934   6.096  -0.209   9.384  1.0366 -0.0043 -1.9437
   69SLPC  C310 5935   6.133  -0.413   9.337 -0.0101 -0.0567 -0.3147
   69SLPC  H10X 5936   6.029  -0.441   9.313  0.0076  1.1291 -1.9665
   69SLPC  H10Y 5937   6.183  -0.501   9.382  0.5469  1.2556  1.7914
   69SLPC  C311 5938   6.210  -0.387   9.205  0.4764  0.1631  0.6087
   69SLPC  H11X 5939   6.311  -0.352   9.232  1.0861 -1.7721  1.0326
   69SLPC  H11Y 5940   6.146  -0.316   9.148 -0.3441  0.0559  1.3714
   69SLPC  C312 5941   6.224  -0.510   9.112 -0.0472  0.1762  0.7556
   69SLPC  H12X 5942   6.127  -0.562   9.096 -0.0559  0.4695 -0.2297
   69SLPC  H12Y 5943   6.293  -0.578   9.166 -1.9166 -1.9589  0.6086
   69SLPC  C313 5944   6.269  -0.463   8.972 -0.1990  0.2164  0.0412
   69SLPC  H13X 5945   6.290  -0.549   8.904 -0.8210  0.4225 -0.4164
   69SLPC  H13Y 5946   6.358  -0.397   8.982 -1.9594  3.4472 -3.3000
   69SLPC  C314 5947   6.162  -0.389   8.896  0.5762 -0.3247 -0.7026
   69SLPC  H14X 5948   6.170  -0.283   8.930 -0.1278 -0.6939  0.6770
   69SLPC  H14Y 5949   6.064  -0.427   8.934  0.5804 -0.7845 -1.1496
   69SLPC  C315 5950   6.179  -0.390   8.742 -0.1867  0.5489  0.4002
   69SLPC  H15X 5951   6.087  -0.353   8.692 -1.9304  0.7461  3.4835
   69SLPC  H15Y 5952   6.187  -0.497   8.713  1.1491  0.9203 -0.6945
   69SLPC  C316 5953   6.309  -0.330   8.698 -0.3376 -0.7876 -0.3858
   69SLPC  H16X 5954   6.335  -0.362   8.595  1.5698  2.0757 -0.9003
   69SLPC  H16Y 5955   6.390  -0.371   8.763 -1.5704 -1.7405  0.6134
   69SLPC  C317 5956   6.322  -0.178   8.684 -0.1795  0.2082  0.7801
   69SLPC  H17X 5957   6.415  -0.146   8.632 -0.6863  0.1540 -0.1718
   69SLPC  H17Y 5958   6.317  -0.133   8.786 -0.6336 -1.4436  1.5130
   69SLPC  C318 5959   6.219  -0.125   8.586 -0.1866 -0.0025  0.0702
   69SLPC  H18X 5960   6.252  -0.150   8.483  2.0378  2.6300  0.0362
   69SLPC  H18Y 5961   6.194  -0.018   8.603 -2.2105 -0.2708 -0.9333
   69SLPC  H18Z 5962   6.121  -0.177   8.597 -0.7792  1.3298  1.5459
   70SLPC     N 5963   3.064   2.500  11.114  0.0540 -0.4678 -0.0691
   70SLPC   C13 5964   3.199   2.448  11.081  0.4944 -0.0076 -0.2876
   70SLPC  H13A 5965   3.262   2.446  11.168  1.4790  2.0087 -0.8732
   70SLPC  H13B 5966   3.194   2.344  11.055  2.2638 -0.1424 -0.2549
   70SLPC  H13C 5967   3.254   2.504  11.006 -0.9081  1.4385 -0.2892
   70SLPC   C14 5968   3.079   2.621  11.198 -0.5021 -0.6734  0.1395
   70SLPC  H14A 5969   3.108   2.703  11.134  0.2174 -0.4503  0.7372
   70SLPC  H14B 5970   2.986   2.655  11.241  0.3576  0.7856  0.9120
   70SLPC  H14C 5971   3.155   2.610  11.274  0.4260  0.8973 -0.5148
   70SLPC   C15 5972   2.991   2.399  11.201  0.2199  0.3836  0.0648
   70SLPC  H15A 5973   2.979   2.303  11.153 -0.6220  0.6184 -0.2133
   70SLPC  H15B 5974   3.049   2.380  11.290  2.1919 -0.3369 -1.3053
   70SLPC  H15C 5975   2.896   2.446  11.220 -1.2708 -1.3447 -2.4117
   70SLPC   C12 5976   2.982   2.531  10.982 -0.3786  0.0030  0.9569
   70SLPC  H12A 5977   2.882   2.562  11.007 -1.9270 -2.6283 -1.3940
   70SLPC  H12B 5978   2.969   2.438  10.930  1.8336  0.1043  0.0974
   70SLPC   C11 5979   3.041   2.636  10.881  0.0847 -0.0728 -0.1409
   70SLPC  H11A 5980   3.014   2.628  10.774 -1.0114 -0.6639  0.1583
   70SLPC  H11B 5981   3.150   2.620  10.892 -0.1017 -0.8541  0.6948
   70SLPC     P 5982   2.884   2.844  10.865 -0.0117  0.6299  0.0531
   70SLPC   O13 5983   2.800   2.741  10.792 -0.1145 -0.7020 -1.1114
   70SLPC   O14 5984   2.819   2.930  10.968 -0.3467  0.4750 -0.2878
   70SLPC   O12 5985   3.010   2.771  10.932  0.1921  0.2436 -0.1910
   70SLPC   O11 5986   2.962   2.943  10.764  0.5663  0.6440 -0.2125
   70SLPC    C1 5987   3.096   2.927  10.714 -0.6507  0.0853  0.3057
   70SLPC    HA 5988   3.149   3.023  10.733  0.5465  0.0566 -2.4202
   70SLPC    HB 5989   3.165   2.854  10.762  1.2683  2.1816  0.8756
   70SLPC    C2 5990   3.091   2.902  10.560  0.0178 -0.1487  0.6479
   70SLPC    HS 5991   3.193   2.920  10.520 -1.7880  1.5865 -3.8504
   70SLPC   O21 5992   2.997   2.979  10.484  0.0716  0.0922  0.0268
   70SLPC   C21 5993   3.031   3.086  10.418 -0.8635  0.1218  0.0449
   70SLPC   O22 5994   3.148   3.123  10.400  0.1351  0.7109 -0.4975
   70SLPC   C22 5995   2.911   3.161  10.364  0.5709  0.5858  0.4391
   70SLPC   H2R 5996   2.847   3.087  10.311  0.3761  2.3980 -2.0122
   70SLPC   H2S 5997   2.865   3.212  10.451 -1.1176  1.1374 -0.7282
   70SLPC    C3 5998   3.060   2.751  10.536  0.1082  0.6765  0.4918
   70SLPC    HX 5999   2.961   2.725  10.578  0.1609  1.1522  0.9181
   70SLPC    HY 6000   3.141   2.695  10.587  2.3640  3.7620  0.5599
   70SLPC   O31 6001   3.052   2.732  10.390 -0.0253 -0.1826 -0.0026
   70SLPC   C31 6002   3.095   2.611  10.344  0.0163  0.5452  0.1548
   70SLPC   O32 6003   3.130   2.523  10.421 -0.0886  0.1478 -0.0826
   70SLPC   C32 6004   3.074   2.596  10.194  0.1258  0.6503  0.5774
   70SLPC   H2X 6005   2.994   2.663  10.155 -0.3317 -0.8180 -1.1196
   70SLPC   H2Y 6006   3.053   2.488  10.175  0.4315  0.5359  0.8757
   70SLPC   C23 6007   2.939   3.267  10.251 -0.6281 -0.1220 -0.7239
   70SLPC   H3R 6008   2.992   3.355  10.295  0.8984 -0.9459 -0.8546
   70SLPC   H3S 6009   2.845   3.317  10.221 -1.8492 -2.5751 -1.2080
   70SLPC   C24 6010   3.019   3.210  10.126  0.4757  0.2758  0.3992
   70SLPC   H4R 6011   3.099   3.139  10.157  0.8913  0.5939  0.0631
   70SLPC   H4S 6012   3.081   3.287  10.075  0.8172  0.0682  0.4984
   70SLPC   C25 6013   2.927   3.144  10.025 -0.0862 -1.1981  0.3191
   70SLPC   H5R 6014   2.847   3.216   9.997 -0.1210 -1.1586  0.5162
   70SLPC   H5S 6015   2.877   3.049  10.054  0.0078 -1.6561 -0.9733
   70SLPC   C26 6016   3.007   3.113   9.901 -0.1078 -0.3863 -0.1268
   70SLPC   H6R 6017   3.043   3.206   9.851  2.6054 -1.1371  0.2282
   70SLPC   H6S 6018   2.938   3.067   9.828 -1.2678  1.4663 -0.2793
   70SLPC   C27 6019   3.126   3.013   9.924  0.6813 -0.7141 -0.1285
   70SLPC   H7R 6020   3.084   2.932   9.987 -0.0178  0.3187  0.7845
   70SLPC   H7S 6021   3.212   3.064   9.971  2.0844 -1.1503 -2.1235
   70SLPC   C28 6022   3.191   2.957   9.795 -0.1402  0.6182 -0.1183
   70SLPC   H8R 6023   3.279   2.894   9.820 -1.6187 -1.4527  0.1854
   70SLPC   H8S 6024   3.239   3.041   9.741  1.1582 -0.3389 -0.5208
   70SLPC   C29 6025   3.095   2.878   9.705  0.1834 -0.2564 -0.0079
   70SLPC   H9R 6026   3.005   2.840   9.756 -0.7456  0.6790 -0.8996
   70SLPC  C210 6027   3.092   2.858   9.570 -0.4098 -0.5912  0.2563
   70SLPC  H10R 6028   3.009   2.809   9.517  0.5641  0.1783 -2.0869
   70SLPC  C211 6029   3.197   2.907   9.472  0.6858  0.1939  0.1105
   70SLPC  H11R 6030   3.215   3.012   9.505  2.8864  0.1277 -0.6800
   70SLPC  H11S 6031   3.146   2.919   9.374  3.5284  2.4724 -1.2321
   70SLPC  C212 6032   3.333   2.843   9.453 -0.1216  0.0691 -0.1567
   70SLPC  H12R 6033   3.357   2.775   9.536 -0.4289 -0.7492 -0.7266
   70SLPC  C213 6034   3.427   2.855   9.358 -0.0634  0.0698  0.0613
   70SLPC  H13R 6035   3.517   2.793   9.366  0.8411  1.5218  2.1083
   70SLPC  C214 6036   3.413   2.944   9.240  0.0151 -0.9250 -1.1279
   70SLPC  H14R 6037   3.494   3.019   9.235 -0.8020  0.0850  0.2775
   70SLPC  H14S 6038   3.320   3.002   9.258 -0.2132 -2.0615  1.9461
   70SLPC  C215 6039   3.392   2.866   9.112  0.5733  0.4283 -0.1357
   70SLPC  H15R 6040   3.300   2.804   9.120  0.1497  0.9525 -0.8400
   70SLPC  H15S 6041   3.474   2.792   9.108  0.9193  0.7094  1.2405
   70SLPC  C216 6042   3.364   2.953   8.986  0.3474  1.0732  0.2213
   70SLPC  H16R 6043   3.465   2.990   8.957  0.0318  3.5135  2.0272
   70SLPC  H16S 6044   3.300   3.039   9.014 -0.1521  0.5787  0.6091
   70SLPC  C217 6045   3.296   2.867   8.880 -0.2845 -0.2193  0.4328
   70SLPC  H17R 6046   3.198   2.845   8.928 -0.4168  0.1336  0.3303
   70SLPC  H17S 6047   3.352   2.772   8.868 -0.9788 -0.5728 -0.0792
   70SLPC  C218 6048   3.284   2.933   8.747 -0.1797  0.3589  0.0885
   70SLPC  H18R 6049   3.261   2.863   8.664 -0.1290 -1.1921  1.3431
   70SLPC  H18S 6050   3.382   2.975   8.716  0.0228 -0.7936 -0.8789
   70SLPC  H18T 6051   3.201   3.007   8.755 -1.4507 -1.2061  4.5527
   70SLPC   C33 6052   3.208   2.614  10.110 -0.2851 -0.2039 -0.7024
   70SLPC   H3X 6053   3.275   2.534  10.149  0.9273  1.1634  0.1356
   70SLPC   H3Y 6054   3.251   2.712  10.138  1.2562 -0.3432 -2.3464
   70SLPC   C34 6055   3.199   2.602   9.960 -0.0592  0.3792 -0.1586
   70SLPC   H4X 6056   3.275   2.675   9.923  0.7723  1.0207  2.6264
   70SLPC   H4Y 6057   3.099   2.638   9.927 -0.3548  1.9312  2.1882
   70SLPC   C35 6058   3.236   2.469   9.912 -0.2310 -0.8345 -0.2769
   70SLPC   H5X 6059   3.173   2.388   9.952  2.0134 -2.5575 -0.0017
   70SLPC   H5Y 6060   3.337   2.435   9.945  0.1794 -0.3104 -0.9455
   70SLPC   C36 6061   3.256   2.460   9.758 -1.1258  0.3722 -1.0251
   70SLPC   H6X 6062   3.347   2.518   9.731  0.0063  0.1574  2.0282
   70SLPC   H6Y 6063   3.167   2.498   9.703 -2.6943 -2.3605 -0.5403
   70SLPC   C37 6064   3.281   2.313   9.711  0.4229 -0.7748 -0.4106
   70SLPC   H7X 6065   3.185   2.263   9.735 -0.6502  1.8847  1.3125
   70SLPC   H7Y 6066   3.361   2.276   9.777 -0.0745 -2.9451 -0.9535
   70SLPC   C38 6067   3.333   2.310   9.573 -0.2054  0.1650 -0.5298
   70SLPC   H8X 6068   3.323   2.212   9.523 -0.3462  0.1195 -0.4136
   70SLPC   H8Y 6069   3.437   2.347   9.582  0.0846 -0.4464 -1.2769
   70SLPC   C39 6070   3.268   2.398   9.466  0.3609 -0.4060  0.0372
   70SLPC   H9X 6071   3.233   2.502   9.487 -0.2361  0.2834 -3.6689
   70SLPC   H9Y 6072   3.167   2.362   9.439 -2.0316  3.9890  2.0686
   70SLPC  C310 6073   3.361   2.398   9.353 -0.1640 -0.0024  0.9566
   70SLPC  H10X 6074   3.390   2.293   9.331 -2.3135 -0.5477  0.4678
   70SLPC  H10Y 6075   3.454   2.457   9.365 -0.6154  1.1625 -0.8599
   70SLPC  C311 6076   3.292   2.446   9.223 -0.2961 -0.0120  0.2692
   70SLPC  H11X 6077   3.266   2.554   9.229 -1.1017 -0.0514 -1.8958
   70SLPC  H11Y 6078   3.202   2.382   9.216 -0.9590  0.8318  0.9293
   70SLPC  C312 6079   3.358   2.409   9.086 -0.0923  0.2917 -0.8446
   70SLPC  H12X 6080   3.363   2.298   9.085  2.5600  0.3425 -1.7885
   70SLPC  H12Y 6081   3.463   2.441   9.071  0.3933 -0.3081  1.0506
   70SLPC  C313 6082   3.289   2.474   8.970 -0.0953 -0.3110  0.5023
   70SLPC  H13X 6083   3.299   2.583   8.994 -1.6350 -0.0546  0.0555
   70SLPC  H13Y 6084   3.179   2.462   8.963  0.0244 -0.7022 -4.4793
   70SLPC  C314 6085   3.343   2.454   8.830 -0.3101 -0.3061 -0.3767
   70SLPC  H14X 6086   3.346   2.343   8.828 -1.0255 -0.3268 -0.5792
   70SLPC  H14Y 6087   3.442   2.502   8.812 -1.3417  1.0070 -3.0260
   70SLPC  C315 6088   3.243   2.498   8.720 -0.0441  0.2023 -0.0562
   70SLPC  H15X 6089   3.249   2.608   8.727  1.5196  0.0940  0.5976
   70SLPC  H15Y 6090   3.135   2.472   8.726 -0.8225  2.2153 -2.9764
   70SLPC  C316 6091   3.282   2.448   8.582  0.0772  0.0759 -0.1569
   70SLPC  H16X 6092   3.200   2.468   8.508 -0.6098 -1.6091  0.1054
   70SLPC  H16Y 6093   3.296   2.338   8.589  0.3019  0.2297  2.4970
   70SLPC  C317 6094   3.420   2.512   8.540  0.2070 -1.1010  0.0128
   70SLPC  H17X 6095   3.517   2.486   8.587  0.4747 -0.2328 -0.0482
   70SLPC  H17Y 6096   3.413   2.621   8.556  4.0128 -0.5267 -1.2653
   70SLPC  C318 6097   3.437   2.497   8.390 -0.1563 -0.5330 -0.1523
   70SLPC  H18X 6098   3.467   2.394   8.361  0.8755  0.2313 -1.9927
   70SLPC  H18Y 6099   3.520   2.566   8.363 -0.4238 -0.5378 -1.0242
   70SLPC  H18Z 6100   3.352   2.526   8.325 -1.0989 -0.1821  1.1997
   71SLPC     N 6101   1.329   1.705  10.911  0.2065 -0.6139 -1.2053
   71SLPC   C13 6102   1.367   1.676  11.051  0.3384  0.1590 -0.2910
   71SLPC  H13A 6103   1.439   1.596  11.049 -0.2246 -0.3435 -1.4455
   71SLPC  H13B 6104   1.403   1.756  11.115  0.9646  0.2343 -0.7255
   71SLPC  H13C 6105   1.280   1.651  11.109 -0.9468  0.2029 -2.1106
   71SLPC   C14 6106   1.181   1.750  10.900 -0.1166  0.3039  0.5968
   71SLPC  H14A 6107   1.163   1.772  10.796  1.2381 -1.2963 -0.0131
   71SLPC  H14B 6108   1.119   1.664  10.922  2.0215 -1.6103 -0.4545
   71SLPC  H14C 6109   1.170   1.836  10.965 -0.5786  2.5037 -2.1749
   71SLPC   C15 6110   1.332   1.577  10.827  0.2016 -0.1905 -0.1822
   71SLPC  H15A 6111   1.295   1.586  10.726  0.1944 -1.9339 -0.3617
   71SLPC  H15B 6112   1.435   1.549  10.811  0.2666  0.1170 -0.3206
   71SLPC  H15C 6113   1.278   1.492  10.865 -1.2662  0.5608 -0.5055
   71SLPC   C12 6114   1.420   1.804  10.849  0.3073  0.5879  0.6093
   71SLPC  H12A 6115   1.380   1.823  10.750  0.1785  0.8119  0.7027
   71SLPC  H12B 6116   1.521   1.771  10.833  0.1564 -0.1703  1.1622
   71SLPC   C11 6117   1.430   1.948  10.900 -0.6186  0.5536 -0.0685
   71SLPC  H11A 6118   1.525   1.989  10.860 -0.7886  1.4942  0.4469
   71SLPC  H11B 6119   1.431   1.929  11.010 -0.9116 -3.9883 -0.6830
   71SLPC     P 6120   1.274   2.067  10.726 -0.0322 -0.1231 -0.3141
   71SLPC   O13 6121   1.135   2.113  10.727 -0.3417  0.2370 -0.2357
   71SLPC   O14 6122   1.372   2.162  10.670 -0.4046 -0.0576  0.4291
   71SLPC   O12 6123   1.318   2.030  10.875 -0.1558  0.1189  0.2755
   71SLPC   O11 6124   1.282   1.944  10.629  0.5433  0.7360  0.3381
   71SLPC    C1 6125   1.360   1.936  10.510 -1.0025 -0.1832  0.4037
   71SLPC    HA 6126   1.463   1.961  10.543 -0.3266 -1.4056 -0.6753
   71SLPC    HB 6127   1.368   1.832  10.471  1.4053 -0.9906  2.7550
   71SLPC    C2 6128   1.322   2.039  10.398 -0.3181 -0.0502 -1.1072
   71SLPC    HS 6129   1.313   2.137  10.451  1.8701 -0.6933  0.6003
   71SLPC   O21 6130   1.190   1.988  10.348 -0.0929 -0.5161  0.1073
   71SLPC   C21 6131   1.108   2.084  10.300  0.2419 -0.2493 -0.4101
   71SLPC   O22 6132   1.137   2.205  10.300  0.3867 -0.0560  0.3513
   71SLPC   C22 6133   0.983   2.004  10.247  0.3343 -0.2587  0.3081
   71SLPC   H2R 6134   1.014   1.901  10.222  0.6223 -0.8217  2.7504
   71SLPC   H2S 6135   0.919   1.993  10.337 -1.3803 -0.3820 -0.8863
   71SLPC    C3 6136   1.430   2.041  10.288 -0.2288  0.5012 -0.4882
   71SLPC    HX 6137   1.447   1.940  10.246  0.9419  0.9638 -1.1779
   71SLPC    HY 6138   1.529   2.075  10.326 -0.0875  0.5228 -0.8738
   71SLPC   O31 6139   1.396   2.124  10.174 -1.5285 -0.1566  0.0812
   71SLPC   C31 6140   1.421   2.258  10.189 -0.2375  0.2505 -0.2812
   71SLPC   O32 6141   1.463   2.310  10.292 -0.7573  0.5521  0.3289
   71SLPC   C32 6142   1.389   2.324  10.058  0.2898  0.4684  0.6900
   71SLPC   H2X 6143   1.292   2.276  10.033  1.4735 -0.7652 -1.9449
   71SLPC   H2Y 6144   1.464   2.289   9.984  0.1103 -0.0826  0.7656
   71SLPC   C23 6145   0.903   2.071  10.134 -0.4183  0.2534  0.0307
   71SLPC   H3R 6146   0.876   2.178  10.146  0.2309  0.1415  3.2862
   71SLPC   H3S 6147   0.814   2.010  10.109  0.2359 -0.8130  0.2219
   71SLPC   C24 6148   0.987   2.077  10.005  0.6818 -0.1653 -0.1825
   71SLPC   H4R 6149   0.996   1.971   9.970  1.2190 -0.9746  2.2373
   71SLPC   H4S 6150   1.083   2.122  10.036  0.3674 -0.0087  0.5752
   71SLPC   C25 6151   0.907   2.138   9.891 -0.2659 -0.2535  0.4659
   71SLPC   H5R 6152   0.911   2.247   9.912 -0.2831 -0.2999  0.7136
   71SLPC   H5S 6153   0.801   2.105   9.886 -1.4170  3.2393 -3.3439
   71SLPC   C26 6154   0.977   2.112   9.756 -0.3939 -0.0087  0.1716
   71SLPC   H6R 6155   0.964   2.005   9.728 -0.2587  0.3976 -1.5353
   71SLPC   H6S 6156   1.084   2.135   9.776  0.0574 -0.3857 -1.6469
   71SLPC   C27 6157   0.931   2.200   9.640  0.2705  0.0135 -0.0388
   71SLPC   H7R 6158   0.974   2.166   9.543 -4.6400 -3.6878 -1.3290
   71SLPC   H7S 6159   0.967   2.305   9.643 -2.1341  1.0336 -2.5829
   71SLPC   C28 6160   0.781   2.207   9.620  1.0874  0.1787  0.3821
   71SLPC   H8R 6161   0.745   2.306   9.584  0.5779  0.0916  0.6465
   71SLPC   H8S 6162   0.734   2.202   9.720 -0.7676  0.5645 -0.4303
   71SLPC   C29 6163   0.728   2.093   9.530 -0.3956  0.0783 -1.1465
   71SLPC   H9R 6164   0.721   1.998   9.585 -0.9179 -0.2795 -1.8210
   71SLPC  C210 6165   0.702   2.091   9.397 -0.1154 -0.2764 -0.0151
   71SLPC  H10R 6166   0.700   1.998   9.337  1.0153  0.8687 -1.9134
   71SLPC  C211 6167   0.706   2.208   9.302  0.2951 -0.8538  0.2343
   71SLPC  H11R 6168   0.679   2.306   9.347 -1.0293 -0.3323 -1.6022
   71SLPC  H11S 6169   0.631   2.185   9.224 -2.4156 -1.2678  2.7762
   71SLPC  C212 6170   0.840   2.230   9.250  0.1124 -0.7974  0.1206
   71SLPC  H12R 6171   0.917   2.234   9.329 -0.6406  1.0881  0.8161
   71SLPC  C213 6172   0.859   2.274   9.130 -0.9564  0.3783 -0.0312
   71SLPC  H13R 6173   0.966   2.285   9.107 -0.2165 -1.3181  2.2704
   71SLPC  C214 6174   0.759   2.298   9.019 -0.7173  0.0153  0.2862
   71SLPC  H14R 6175   0.741   2.405   8.997 -1.2373  0.1159  1.1753
   71SLPC  H14S 6176   0.664   2.246   9.042 -0.8651 -0.2242 -0.8096
   71SLPC  C215 6177   0.809   2.246   8.886 -0.5927  0.4133  0.0260
   71SLPC  H15R 6178   0.791   2.136   8.881 -1.3434  0.5373 -0.1051
   71SLPC  H15S 6179   0.915   2.272   8.864 -0.2111  0.3631  1.6999
   71SLPC  C216 6180   0.728   2.307   8.771  0.6108  0.4994 -1.1792
   71SLPC  H16R 6181   0.744   2.416   8.781 -1.4558  0.7123  0.7319
   71SLPC  H16S 6182   0.625   2.271   8.791  1.8801 -2.3696  0.8443
   71SLPC  C217 6183   0.788   2.271   8.636 -0.5317 -0.2427 -0.1377
   71SLPC  H17R 6184   0.821   2.165   8.632  0.2270 -0.0181 -4.4025
   71SLPC  H17S 6185   0.874   2.341   8.626 -0.4508 -0.2702  0.3178
   71SLPC  C218 6186   0.687   2.301   8.530 -0.0552 -0.1219 -0.2497
   71SLPC  H18R 6187   0.740   2.318   8.434 -1.9905  1.5022 -1.1083
   71SLPC  H18S 6188   0.645   2.401   8.553  0.3170  0.4914 -2.1268
   71SLPC  H18T 6189   0.599   2.233   8.529 -1.2412  1.3444  0.4691
   71SLPC   C33 6190   1.368   2.477  10.043 -0.1314  0.7528 -0.0266
   71SLPC   H3X 6191   1.471   2.507  10.073  0.6766 -3.8796  2.8846
   71SLPC   H3Y 6192   1.304   2.509  10.128  0.1644  0.5633  0.2721
   71SLPC   C34 6193   1.325   2.509   9.900  0.4808  0.1751  0.2211
   71SLPC   H4X 6194   1.229   2.458   9.875 -1.1154  2.3782  1.5258
   71SLPC   H4Y 6195   1.407   2.471   9.835  1.1355  0.8815  0.6199
   71SLPC   C35 6196   1.311   2.655   9.873  0.0607 -0.0760  0.4156
   71SLPC   H5X 6197   1.407   2.709   9.884  0.1166  0.0836 -0.7604
   71SLPC   H5Y 6198   1.237   2.695   9.947 -0.6529  1.7713 -1.2251
   71SLPC   C36 6199   1.258   2.704   9.736  0.5887  0.3409  0.0432
   71SLPC   H6X 6200   1.326   2.671   9.655  0.1372 -0.1615 -0.1314
   71SLPC   H6Y 6201   1.247   2.814   9.748  0.1653  0.2980  0.0370
   71SLPC   C37 6202   1.111   2.666   9.712  0.5794  0.6655  0.5329
   71SLPC   H7X 6203   1.044   2.701   9.793  0.1310 -0.2238  0.5612
   71SLPC   H7Y 6204   1.107   2.556   9.700  1.7353  0.6852 -0.1222
   71SLPC   C38 6205   1.066   2.727   9.576  0.3006 -0.7603 -0.1584
   71SLPC   H8X 6206   1.078   2.838   9.578  2.2440 -0.9442  0.4291
   71SLPC   H8Y 6207   0.955   2.720   9.573  0.1694  0.9437 -0.4320
   71SLPC   C39 6208   1.130   2.667   9.455 -0.6177 -0.1979 -0.5131
   71SLPC   H9X 6209   1.152   2.560   9.475  1.3670  0.0731 -1.0848
   71SLPC   H9Y 6210   1.226   2.719   9.435  0.7858 -1.4752  2.3265
   71SLPC  C310 6211   1.043   2.662   9.328 -0.2631 -0.0184  0.8997
   71SLPC  H10X 6212   1.024   2.766   9.293 -1.9969 -0.7438 -0.4919
   71SLPC  H10Y 6213   0.946   2.613   9.346 -1.5080  2.1737  0.5431
   71SLPC  C311 6214   1.120   2.587   9.213  1.2178  0.1389 -0.2099
   71SLPC  H11X 6215   1.140   2.479   9.231 -0.7160 -0.7956 -2.9174
   71SLPC  H11Y 6216   1.226   2.618   9.207  1.9267 -0.9554  3.7141
   71SLPC  C312 6217   1.055   2.585   9.078 -0.7742  0.1692  0.0849
   71SLPC  H12X 6218   1.054   2.693   9.052  1.5499 -0.0732 -1.3392
   71SLPC  H12Y 6219   0.952   2.544   9.085 -1.2448  1.1548 -0.8121
   71SLPC  C313 6220   1.129   2.502   8.965 -0.1567  0.1039 -0.2053
   71SLPC  H13X 6221   1.055   2.500   8.883  0.2438  1.1194 -0.5955
   71SLPC  H13Y 6222   1.156   2.397   8.992 -1.8008 -1.1627 -2.9917
   71SLPC  C314 6223   1.258   2.571   8.921 -0.1054  0.0314  0.2490
   71SLPC  H14X 6224   1.322   2.592   9.009 -0.6293 -0.0226  0.6470
   71SLPC  H14Y 6225   1.242   2.675   8.886  3.2364  0.9622  1.1185
   71SLPC  C315 6226   1.339   2.484   8.818 -0.3766  0.7261 -0.6425
   71SLPC  H15X 6227   1.342   2.378   8.849  1.5134  1.3758  1.7991
   71SLPC  H15Y 6228   1.442   2.527   8.818 -0.5696  1.3446  1.6349
   71SLPC  C316 6229   1.271   2.496   8.682 -0.8731  0.6285 -0.1234
   71SLPC  H16X 6230   1.239   2.601   8.668 -2.2313  0.3861  0.9222
   71SLPC  H16Y 6231   1.174   2.444   8.689  0.0481 -1.2908 -0.7911
   71SLPC  C317 6232   1.357   2.431   8.579 -0.1419 -0.0169 -0.3703
   71SLPC  H17X 6233   1.311   2.409   8.480 -1.7278 -0.1411  0.3714
   71SLPC  H17Y 6234   1.391   2.335   8.625  1.9746  1.6175  1.6799
   71SLPC  C318 6235   1.481   2.513   8.550 -0.0584  0.1401 -0.3771
   71SLPC  H18X 6236   1.542   2.524   8.642 -1.0019 -1.4150  0.4734
   71SLPC  H18Y 6237   1.454   2.613   8.509 -1.1671 -0.0929 -0.2275
   71SLPC  H18Z 6238   1.541   2.448   8.482  0.3219 -0.9783  0.9813
   72SLPC     N 6239   1.340   6.629  10.823  0.8358  0.6933  0.4866
   72SLPC   C13 6240   1.462   6.632  10.906 -0.1179  0.4298 -0.0945
   72SLPC  H13A 6241   1.536   6.679  10.842 -0.5235  0.6394 -0.4099
   72SLPC  H13B 6242   1.454   6.669  11.007  4.3197 -1.4996  1.2126
   72SLPC  H13C 6243   1.494   6.530  10.919  4.2844  1.6406  0.2931
   72SLPC   C14 6244   1.243   6.524  10.881  0.0553 -0.6045 -0.5244
   72SLPC  H14A 6245   1.215   6.561  10.978  3.0896 -1.2177  0.7238
   72SLPC  H14B 6246   1.152   6.519  10.824  0.2585  2.2228 -1.2369
   72SLPC  H14C 6247   1.286   6.425  10.886  0.5089 -0.3730  0.6283
   72SLPC   C15 6248   1.370   6.590  10.684 -1.0104  0.1897 -0.1053
   72SLPC  H15A 6249   1.445   6.512  10.679 -0.6372  0.5318  0.0691
   72SLPC  H15B 6250   1.281   6.559  10.632 -1.4589 -1.7446  1.7070
   72SLPC  H15C 6251   1.420   6.680  10.651  2.9772 -0.4495  3.3705
   72SLPC   C12 6252   1.273   6.763  10.831 -0.6961  0.0934 -0.8861
   72SLPC  H12A 6253   1.341   6.829  10.779 -0.0388 -1.2354 -1.7948
   72SLPC  H12B 6254   1.278   6.797  10.933  0.6481  1.1643 -1.2786
   72SLPC   C11 6255   1.135   6.781  10.771 -0.0536  0.0604 -0.0133
   72SLPC  H11A 6256   1.127   6.715  10.682  4.3907 -1.2415  0.2713
   72SLPC  H11B 6257   1.107   6.882  10.736 -2.1877 -0.7818 -0.8634
   72SLPC     P 6258   0.909   6.682  10.846  0.0225 -0.4434  0.0143
   72SLPC   O13 6259   0.936   6.567  10.764 -0.3455  0.6886 -0.0375
   72SLPC   O14 6260   0.835   6.654  10.971  0.2373 -0.0738  0.0494
   72SLPC   O12 6261   1.038   6.757  10.874  0.2592  0.2729 -0.8292
   72SLPC   O11 6262   0.837   6.800  10.763 -0.2794 -0.0603 -0.4554
   72SLPC    C1 6263   0.751   6.748  10.659  0.1294 -0.3647 -0.1206
   72SLPC    HA 6264   0.732   6.639  10.660 -4.0458  0.1815 -1.5104
   72SLPC    HB 6265   0.653   6.800  10.659 -1.5403 -3.3157  0.1511
   72SLPC    C2 6266   0.803   6.781  10.514  0.1227  0.3864 -0.8241
   72SLPC    HS 6267   0.872   6.700  10.484  1.0366  1.0151 -0.4576
   72SLPC   O21 6268   0.879   6.896  10.526  0.2750 -0.0842 -0.3826
   72SLPC   C21 6269   0.983   6.904  10.442  0.2265  0.8073 -0.0846
   72SLPC   O22 6270   1.022   6.809  10.376 -0.2049 -0.3953 -0.1981
   72SLPC   C22 6271   1.035   7.044  10.445  0.7838 -0.3975  0.7268
   72SLPC   H2R 6272   0.946   7.101  10.411  0.0464 -0.3303  2.6710
   72SLPC   H2S 6273   1.066   7.077  10.546 -0.4104 -0.4365  1.1135
   72SLPC    C3 6274   0.698   6.788  10.397  0.2967  0.2023  1.3386
   72SLPC    HX 6275   0.618   6.864  10.413 -1.6341 -0.6772 -2.8135
   72SLPC    HY 6276   0.657   6.685  10.391  1.0404 -0.0652  0.6311
   72SLPC   O31 6277   0.761   6.809  10.262  0.2203  0.1874 -0.0642
   72SLPC   C31 6278   0.690   6.862  10.168  0.0084  0.4851  0.1757
   72SLPC   O32 6279   0.580   6.917  10.183  0.1216  0.7306 -0.2636
   72SLPC   C32 6280   0.775   6.864  10.037  0.0028 -0.0313 -0.9715
   72SLPC   H2X 6281   0.843   6.776  10.041 -0.1025 -0.0862  2.4564
   72SLPC   H2Y 6282   0.845   6.949  10.051 -0.9818  0.3670  2.5454
   72SLPC   C23 6283   1.139   7.063  10.336 -0.3381 -0.4460  0.3353
   72SLPC   H3R 6284   1.108   7.026  10.236  0.7671 -1.7409  0.4590
   72SLPC   H3S 6285   1.233   7.011  10.364 -0.7472 -1.8486 -0.8247
   72SLPC   C24 6286   1.181   7.207  10.320  0.3372  0.2200 -0.7212
   72SLPC   H4R 6287   1.222   7.241  10.418 -0.2805  1.0766 -0.7541
   72SLPC   H4S 6288   1.100   7.280  10.300 -0.0621 -0.2323 -0.7872
   72SLPC   C25 6289   1.291   7.226  10.216  0.0937  0.2127 -0.4006
   72SLPC   H5R 6290   1.273   7.178  10.118  0.5546 -3.1536  1.0326
   72SLPC   H5S 6291   1.388   7.185  10.251  0.8758  1.0545 -1.4948
   72SLPC   C26 6292   1.315   7.381  10.192 -0.4600 -0.3723  0.3351
   72SLPC   H6R 6293   1.336   7.428  10.290  0.8780 -1.8694  0.8125
   72SLPC   H6S 6294   1.218   7.413  10.149  0.3221 -0.5855 -1.7005
   72SLPC   C27 6295   1.439   7.410  10.098  0.5316 -0.1631  0.1300
   72SLPC   H7R 6296   1.535   7.414  10.153 -1.0366 -0.5980  3.0895
   72SLPC   H7S 6297   1.422   7.515  10.065  1.1424 -0.2766 -0.5843
   72SLPC   C28 6298   1.445   7.312   9.982  0.0239 -0.0308 -0.8266
   72SLPC   H8R 6299   1.342   7.305   9.941 -1.5139 -1.9405  2.8471
   72SLPC   H8S 6300   1.474   7.211  10.018  1.9331  0.4278 -0.9629
   72SLPC   C29 6301   1.548   7.342   9.877 -0.6191 -0.3933  0.0185
   72SLPC   H9R 6302   1.650   7.334   9.918  0.2705 -2.3904 -2.3210
   72SLPC  C210 6303   1.529   7.375   9.745  0.2363  0.3667 -0.4665
   72SLPC  H10R 6304   1.621   7.382   9.685  0.2294 -2.1883 -0.9216
   72SLPC  C211 6305   1.401   7.386   9.672 -0.5615 -0.2251 -0.3604
   72SLPC  H11R 6306   1.317   7.374   9.743 -1.2837  2.0761 -0.7323
   72SLPC  H11S 6307   1.415   7.305   9.598  2.1632  1.5025 -1.9312
   72SLPC  C212 6308   1.387   7.521   9.605 -0.3487 -0.4669 -0.2425
   72SLPC  H12R 6309   1.383   7.606   9.675 -1.6324 -2.4709  2.2226
   72SLPC  C213 6310   1.392   7.544   9.477 -0.1445  0.2042  0.0965
   72SLPC  H13R 6311   1.391   7.652   9.454 -1.2549  0.4166  1.0718
   72SLPC  C214 6312   1.409   7.447   9.363 -0.0401  0.5298  0.4644
   72SLPC  H14R 6313   1.403   7.339   9.389  2.8116  0.4240  0.9435
   72SLPC  H14S 6314   1.505   7.472   9.314  1.1941  1.1551  3.0127
   72SLPC  C215 6315   1.310   7.483   9.254  0.3702 -0.7995 -0.1331
   72SLPC  H15R 6316   1.210   7.505   9.298 -0.5417 -1.2614 -1.8733
   72SLPC  H15S 6317   1.305   7.412   9.169  0.7391 -1.5022  0.4249
   72SLPC  C216 6318   1.351   7.621   9.186  0.0016 -0.1581 -0.1612
   72SLPC  H16R 6319   1.460   7.612   9.166 -0.2274 -0.4116 -1.3690
   72SLPC  H16S 6320   1.352   7.712   9.251 -1.7079 -0.7637  0.7715
   72SLPC  C217 6321   1.276   7.651   9.056 -0.0232 -0.3743  0.7295
   72SLPC  H17R 6322   1.269   7.761   9.048 -1.6192 -0.5254 -0.3257
   72SLPC  H17S 6323   1.172   7.612   9.059 -0.3891  0.6196  2.6094
   72SLPC  C218 6324   1.347   7.603   8.930  0.1970 -0.2527  0.2154
   72SLPC  H18R 6325   1.444   7.654   8.910 -0.5650  0.8992 -0.7552
   72SLPC  H18S 6326   1.287   7.623   8.838  1.9182  0.2861 -0.8518
   72SLPC  H18T 6327   1.368   7.497   8.952 -1.2284 -0.4759  0.5652
   72SLPC   C33 6328   0.696   6.858   9.916 -0.6080 -0.0770  0.6317
   72SLPC   H3X 6329   0.623   6.940   9.906 -2.9874 -2.3264 -2.1269
   72SLPC   H3Y 6330   0.646   6.759   9.908 -0.3222 -0.1177 -1.1495
   72SLPC   C34 6331   0.785   6.863   9.789 -0.5387 -0.0827  0.6345
   72SLPC   H4X 6332   0.850   6.774   9.790 -1.9980 -1.1795  0.7536
   72SLPC   H4Y 6333   0.847   6.956   9.792  1.8326 -1.4483 -1.8832
   72SLPC   C35 6334   0.690   6.838   9.670  0.1860 -0.0333 -0.3741
   72SLPC   H5X 6335   0.601   6.905   9.664  0.0197 -0.3604 -2.0544
   72SLPC   H5Y 6336   0.655   6.733   9.683 -0.4293  0.3009  0.7899
   72SLPC   C36 6337   0.755   6.847   9.528 -0.3201 -0.0479  0.5262
   72SLPC   H6X 6338   0.856   6.801   9.526 -0.2497  0.0853 -2.2899
   72SLPC   H6Y 6339   0.762   6.958   9.524  0.0740 -0.0842  0.1944
   72SLPC   C37 6340   0.664   6.796   9.423 -0.3458 -0.6336  0.1756
   72SLPC   H7X 6341   0.566   6.847   9.416 -0.4719 -0.4740  2.4494
   72SLPC   H7Y 6342   0.646   6.687   9.435  1.5735 -0.8668  1.5070
   72SLPC   C38 6343   0.725   6.822   9.283 -0.6851  0.7171  0.4116
   72SLPC   H8X 6344   0.828   6.783   9.265 -1.2079 -0.5814  0.1315
   72SLPC   H8Y 6345   0.722   6.932   9.271  3.4209  0.8409 -1.0804
   72SLPC   C39 6346   0.636   6.767   9.174 -0.0163 -0.1640  0.1089
   72SLPC   H9X 6347   0.540   6.821   9.171  0.8624  1.5220  0.9114
   72SLPC   H9Y 6348   0.601   6.668   9.210 -0.2737 -0.9257 -2.0781
   72SLPC  C310 6349   0.686   6.769   9.028  0.4415  0.3062  0.4789
   72SLPC  H10X 6350   0.769   6.696   9.013 -0.6225 -0.4881 -2.2260
   72SLPC  H10Y 6351   0.717   6.872   9.001 -0.1428  0.1308 -0.9751
   72SLPC  C311 6352   0.572   6.723   8.940 -0.5185  0.5678  1.1982
   72SLPC  H11X 6353   0.586   6.748   8.833  1.5462 -0.2375  1.2329
   72SLPC  H11Y 6354   0.471   6.757   8.971 -0.4052  0.2503  1.9291
   72SLPC  C312 6355   0.554   6.567   8.946 -0.0089 -0.5930 -0.8014
   72SLPC  H12X 6356   0.514   6.541   9.046  0.4851  4.3153  0.9518
   72SLPC  H12Y 6357   0.649   6.510   8.942 -0.9708 -2.3837  0.4224
   72SLPC  C313 6358   0.463   6.513   8.834 -0.5145  0.2878 -0.2245
   72SLPC  H13X 6359   0.504   6.523   8.731  0.6585 -0.0822  0.1872
   72SLPC  H13Y 6360   0.382   6.589   8.825  2.2793  3.5473 -0.0666
   72SLPC  C314 6361   0.429   6.367   8.867  0.0105 -0.4530  0.5297
   72SLPC  H14X 6362   0.374   6.358   8.963  3.0600  2.7116  2.8318
   72SLPC  H14Y 6363   0.519   6.308   8.893 -0.9205 -1.4329  1.6568
   72SLPC  C315 6364   0.364   6.297   8.744  0.2255 -0.3680  0.7233
   72SLPC  H15X 6365   0.353   6.190   8.773  0.1776 -0.0868  1.7890
   72SLPC  H15Y 6366   0.429   6.303   8.654  1.5393  0.3897  1.7052
   72SLPC  C316 6367   0.230   6.365   8.714  0.5343 -0.5661 -0.4977
   72SLPC  H16X 6368   0.257   6.465   8.672  0.8774 -1.3135 -2.1089
   72SLPC  H16Y 6369   0.181   6.392   8.811  0.2382 -0.9602 -0.5363
   72SLPC  C317 6370   0.128   6.288   8.631  0.3032  0.1230 -0.0780
   72SLPC  H17X 6371   0.113   6.185   8.669 -3.1901  0.5608  0.0086
   72SLPC  H17Y 6372   0.172   6.272   8.530 -0.3747 -0.8280 -0.2337
   72SLPC  C318 6373  -0.003   6.361   8.602 -0.5702  0.3824 -0.1967
   72SLPC  H18X 6374  -0.074   6.289   8.555  0.0112 -1.1785  1.1984
   72SLPC  H18Y 6375   0.006   6.456   8.547  0.9910  0.1570 -0.3969
   72SLPC  H18Z 6376  -0.044   6.388   8.701 -1.9714 -1.8387 -0.0895
   73SLPC     N 6377   1.916   5.999  11.167  0.2327 -0.0834  0.4058
   73SLPC   C13 6378   1.861   6.102  11.073  0.7678 -0.3046  0.8625
   73SLPC  H13A 6379   1.755   6.087  11.059  0.6332  0.1816  1.3376
   73SLPC  H13B 6380   1.877   6.208  11.087  2.8400 -0.0819 -2.0896
   73SLPC  H13C 6381   1.905   6.098  10.974 -0.0834  0.4567  0.4382
   73SLPC   C14 6382   1.859   6.024  11.306 -0.3794 -0.5036  0.9304
   73SLPC  H14A 6383   1.753   6.001  11.307 -0.1783 -1.6533  2.8965
   73SLPC  H14B 6384   1.902   5.958  11.381 -0.6896  0.1134  1.6645
   73SLPC  H14C 6385   1.879   6.127  11.330  2.2937 -0.6391 -0.4344
   73SLPC   C15 6386   2.061   6.023  11.183 -0.0771 -0.2073 -0.0175
   73SLPC  H15A 6387   2.105   6.031  11.084 -3.3820 -0.7945 -1.6544
   73SLPC  H15B 6388   2.068   6.106  11.251  0.2899 -1.7205  1.9135
   73SLPC  H15C 6389   2.116   5.936  11.218 -0.0672  0.0583  0.6347
   73SLPC   C12 6390   1.892   5.854  11.119  0.3658  0.4557 -0.5032
   73SLPC  H12A 6391   1.913   5.800  11.210 -0.2951  1.1479  0.0784
   73SLPC  H12B 6392   1.968   5.833  11.046  0.2233  0.3203 -0.6147
   73SLPC   C11 6393   1.750   5.810  11.076 -1.2932 -0.6149 -0.0324
   73SLPC  H11A 6394   1.678   5.838  11.156 -1.4175  1.3291 -0.7668
   73SLPC  H11B 6395   1.756   5.700  11.068 -1.1042 -0.5584 -0.8140
   73SLPC     P 6396   1.574   5.836  10.881 -0.0851  0.4813 -0.3401
   73SLPC   O13 6397   1.522   5.706  10.932 -0.4738  1.1190  0.5105
   73SLPC   O14 6398   1.481   5.952  10.893 -0.4942  0.1276 -0.1253
   73SLPC   O12 6399   1.709   5.874  10.956 -0.2853  0.1386 -0.1134
   73SLPC   O11 6400   1.609   5.811  10.729 -0.5323 -0.5820 -0.2398
   73SLPC    C1 6401   1.669   5.913  10.645  0.5137  0.1798 -0.0653
   73SLPC    HA 6402   1.736   5.974  10.710 -1.0812  2.6536 -0.6094
   73SLPC    HB 6403   1.737   5.875  10.565  2.6151  0.2829  1.5852
   73SLPC    C2 6404   1.563   6.010  10.584  0.1928  0.3418 -0.1871
   73SLPC    HS 6405   1.504   6.060  10.663 -0.2210 -2.7270  1.6090
   73SLPC   O21 6406   1.471   5.931  10.494  0.1741 -0.3578  0.1183
   73SLPC   C21 6407   1.348   5.962  10.499  0.0467  0.5396 -0.2949
   73SLPC   O22 6408   1.299   6.055  10.559  0.4288  0.2771  0.5647
   73SLPC   C22 6409   1.259   5.861  10.423 -0.0798 -0.0711 -0.6401
   73SLPC   H2R 6410   1.311   5.767  10.398 -1.8384 -1.3758  0.4068
   73SLPC   H2S 6411   1.167   5.846  10.483  0.5478  3.1468  1.4078
   73SLPC    C3 6412   1.643   6.108  10.493  0.2762 -0.1455  0.2664
   73SLPC    HX 6413   1.704   6.045  10.425 -1.2832 -0.1182 -1.2288
   73SLPC    HY 6414   1.724   6.160  10.549  0.2890 -1.0064  1.0695
   73SLPC   O31 6415   1.575   6.183  10.395 -0.2283 -0.2830  0.2699
   73SLPC   C31 6416   1.496   6.273  10.451 -0.6520 -0.6336 -1.0318
   73SLPC   O32 6417   1.492   6.299  10.571 -0.7354 -0.5607  0.2479
   73SLPC   C32 6418   1.400   6.339  10.349 -0.6379  0.4915 -0.5152
   73SLPC   H2X 6419   1.440   6.441  10.329 -1.2512  1.2157  1.6693
   73SLPC   H2Y 6420   1.302   6.358  10.397 -0.4249 -1.0750  0.6077
   73SLPC   C23 6421   1.206   5.919  10.290  0.0321  0.4067  0.6679
   73SLPC   H3R 6422   1.287   5.927  10.214  1.0496 -0.1198  1.6559
   73SLPC   H3S 6423   1.177   6.022  10.317  0.3995  0.9334 -0.8492
   73SLPC   C24 6424   1.077   5.864  10.224 -0.3764 -0.1970 -0.3347
   73SLPC   H4R 6425   1.005   5.872  10.309 -0.4039  0.4851 -0.4168
   73SLPC   H4S 6426   1.097   5.764  10.180 -0.3115 -0.9366  1.2886
   73SLPC   C25 6427   1.022   5.961  10.121  0.6663  0.0289 -0.0110
   73SLPC   H5R 6428   1.092   5.970  10.036  0.1205 -1.4182 -0.6437
   73SLPC   H5S 6429   1.023   6.064  10.162 -0.0485  0.1954 -0.4049
   73SLPC   C26 6430   0.879   5.916  10.104 -0.6844 -0.0992  0.6179
   73SLPC   H6R 6431   0.826   5.922  10.201  0.3350  0.5391  1.1534
   73SLPC   H6S 6432   0.877   5.809  10.073  0.0542  0.2895 -0.8904
   73SLPC   C27 6433   0.797   6.000   9.997 -0.2260  0.3552 -0.5040
   73SLPC   H7R 6434   0.844   6.001   9.897 -0.4461 -1.8770 -0.6768
   73SLPC   H7S 6435   0.794   6.101  10.044 -0.8062  0.1387 -0.0552
   73SLPC   C28 6436   0.649   5.955   9.993 -0.0008  0.1394 -0.2611
   73SLPC   H8R 6437   0.643   5.854   9.947  3.5227 -0.5495  0.4494
   73SLPC   H8S 6438   0.605   6.022   9.916  0.3410 -1.3234 -1.7962
   73SLPC   C29 6439   0.568   5.961  10.128 -0.4870  0.0218 -0.0861
   73SLPC   H9R 6440   0.628   6.013  10.205 -0.5456  0.1618 -0.1345
   73SLPC  C210 6441   0.444   5.915  10.147 -0.2296  0.1688 -0.8763
   73SLPC  H10R 6442   0.398   5.927  10.246  0.5596  0.8918 -0.5839
   73SLPC  C211 6443   0.356   5.844  10.046 -0.1035  0.3783 -0.2694
   73SLPC  H11R 6444   0.372   5.892   9.947  0.3443  2.7881  0.9079
   73SLPC  H11S 6445   0.251   5.868  10.073  0.3461  0.9044  1.0828
   73SLPC  C212 6446   0.367   5.687  10.038  0.4726  0.2614  0.6215
   73SLPC  H12R 6447   0.336   5.636  10.130  1.2823 -0.3732  0.5534
   73SLPC  C213 6448   0.391   5.611   9.932  0.0244  0.1451  0.0719
   73SLPC  H13R 6449   0.410   5.504   9.951  0.3250 -0.1570 -1.7239
   73SLPC  C214 6450   0.418   5.655   9.790 -0.4186 -0.3092 -0.4646
   73SLPC  H14R 6451   0.525   5.648   9.760 -0.1600 -0.3870  0.4440
   73SLPC  H14S 6452   0.398   5.763   9.779 -0.6576 -0.2813  0.2365
   73SLPC  C215 6453   0.325   5.569   9.702  1.1524 -0.1765  0.0235
   73SLPC  H15R 6454   0.320   5.611   9.600 -0.4382  1.6140  0.7653
   73SLPC  H15S 6455   0.223   5.561   9.746  1.4086  1.1691  0.9003
   73SLPC  C216 6456   0.366   5.422   9.687  0.6466 -0.2008  0.2208
   73SLPC  H16R 6457   0.280   5.358   9.657  0.3036  0.2792  0.1705
   73SLPC  H16S 6458   0.405   5.378   9.781 -2.4724  0.4454  1.9619
   73SLPC  C217 6459   0.455   5.389   9.568 -0.7529 -0.1160 -0.7232
   73SLPC  H17R 6460   0.551   5.446   9.568  0.9873 -2.7260 -3.9979
   73SLPC  H17S 6461   0.404   5.423   9.475 -1.4189 -3.0265 -1.4946
   73SLPC  C218 6462   0.481   5.243   9.558  0.3102  0.2969  0.5142
   73SLPC  H18R 6463   0.569   5.219   9.495 -0.3982 -0.1744 -0.3258
   73SLPC  H18S 6464   0.397   5.195   9.503  2.0658 -1.0080 -1.1738
   73SLPC  H18T 6465   0.480   5.197   9.659  0.8383 -2.7175 -0.7532
   73SLPC   C33 6466   1.379   6.271  10.210  0.0072  0.0343 -0.2622
   73SLPC   H3X 6467   1.354   6.167  10.238 -1.8692  0.3661 -0.5378
   73SLPC   H3Y 6468   1.475   6.286  10.156 -1.1084  2.5782 -1.7383
   73SLPC   C34 6469   1.257   6.321  10.137 -1.4674 -0.0536 -0.6515
   73SLPC   H4X 6470   1.254   6.431  10.122  0.2665  0.8570  4.1498
   73SLPC   H4Y 6471   1.169   6.308  10.203 -1.5513 -1.3815 -1.0009
   73SLPC   C35 6472   1.234   6.234  10.014 -0.1691  0.4999  0.6381
   73SLPC   H5X 6473   1.129   6.242   9.978  0.0537  0.2273 -0.0846
   73SLPC   H5Y 6474   1.265   6.128  10.024 -0.0436  0.4619 -0.1037
   73SLPC   C36 6475   1.306   6.293   9.892 -0.2184  0.5494  0.1555
   73SLPC   H6X 6476   1.412   6.315   9.915 -0.0332  0.4764 -0.5901
   73SLPC   H6Y 6477   1.264   6.390   9.860 -0.9677 -0.0838 -0.8392
   73SLPC   C37 6478   1.300   6.200   9.782 -0.4321 -0.5110  0.1854
   73SLPC   H7X 6479   1.194   6.178   9.755 -1.3539 -0.1746  3.1758
   73SLPC   H7Y 6480   1.354   6.104   9.797  1.9255  0.2322 -2.4938
   73SLPC   C38 6481   1.362   6.261   9.649  1.1420  0.5146 -0.7855
   73SLPC   H8X 6482   1.289   6.334   9.607 -0.6569 -0.3579  0.7178
   73SLPC   H8Y 6483   1.360   6.179   9.574 -0.0315  0.2212 -0.4518
   73SLPC   C39 6484   1.505   6.323   9.642  0.5852  0.4106 -0.2604
   73SLPC   H9X 6485   1.589   6.263   9.683  1.0772  2.1027  1.3221
   73SLPC   H9Y 6486   1.497   6.420   9.695  2.7414 -0.2918  1.4794
   73SLPC  C310 6487   1.545   6.347   9.499  1.0629 -0.3469  0.2224
   73SLPC  H10X 6488   1.460   6.398   9.450 -0.2925  0.9927  3.6638
   73SLPC  H10Y 6489   1.561   6.252   9.444  1.0353 -1.1343  1.5309
   73SLPC  C311 6490   1.672   6.431   9.474  0.5637 -0.1595 -0.0272
   73SLPC  H11X 6491   1.760   6.396   9.532  2.3986  1.4362 -1.7179
   73SLPC  H11Y 6492   1.663   6.534   9.516 -0.4486  0.2324 -1.1551
   73SLPC  C312 6493   1.711   6.447   9.327 -0.0101 -0.6462  0.2340
   73SLPC  H12X 6494   1.708   6.347   9.278 -1.6058 -0.2198 -0.6075
   73SLPC  H12Y 6495   1.818   6.480   9.322 -0.4104  0.4967 -1.6623
   73SLPC  C313 6496   1.619   6.541   9.245 -0.1194 -0.6782  0.1018
   73SLPC  H13X 6497   1.644   6.648   9.263 -2.7443  0.1106 -0.5283
   73SLPC  H13Y 6498   1.512   6.522   9.267 -0.1164 -0.3877  0.3697
   73SLPC  C314 6499   1.632   6.499   9.097  0.0591 -0.5811 -0.0130
   73SLPC  H14X 6500   1.555   6.570   9.059  1.3523  1.9213  1.7499
   73SLPC  H14Y 6501   1.597   6.394   9.084 -0.8146 -0.1840 -0.9909
   73SLPC  C315 6502   1.762   6.530   9.032  0.4653 -0.1155  0.4047
   73SLPC  H15X 6503   1.841   6.481   9.092  1.4537 -1.7010 -2.0428
   73SLPC  H15Y 6504   1.778   6.640   9.035  0.9063 -0.1583 -0.2400
   73SLPC  C316 6505   1.768   6.479   8.885 -0.9028  0.6719  0.0429
   73SLPC  H16X 6506   1.679   6.509   8.825 -0.5797 -0.6511 -1.1673
   73SLPC  H16Y 6507   1.764   6.368   8.884  0.3844  0.5681  1.8910
   73SLPC  C317 6508   1.890   6.540   8.809  0.2298 -0.5728 -0.0731
   73SLPC  H17X 6509   1.886   6.506   8.704 -0.1862  0.1262 -0.2853
   73SLPC  H17Y 6510   1.983   6.498   8.853 -1.2045 -1.4687  2.3169
   73SLPC  C318 6511   1.886   6.693   8.792  0.2556  0.4205 -0.0328
   73SLPC  H18X 6512   1.864   6.719   8.686 -0.4842 -0.2642 -0.0633
   73SLPC  H18Y 6513   1.985   6.736   8.816  1.1501  0.0957 -2.8546
   73SLPC  H18Z 6514   1.807   6.729   8.862 -0.6961 -3.4760  1.1390
   74SLPC     N 6515   1.760   0.833  10.756  0.0630 -0.3726  0.5504
   74SLPC   C13 6516   1.826   0.844  10.887 -0.4356  0.0599  0.1474
   74SLPC  H13A 6517   1.881   0.937  10.894 -1.4618  1.0285 -2.8522
   74SLPC  H13B 6518   1.751   0.849  10.964 -2.1091  0.3551 -1.4224
   74SLPC  H13C 6519   1.895   0.763  10.901 -0.0511  0.6683  2.0124
   74SLPC   C14 6520   1.651   0.939  10.745  0.3577  0.8031  0.3946
   74SLPC  H14A 6521   1.592   0.928  10.655  0.8907  2.0362 -0.1262
   74SLPC  H14B 6522   1.585   0.946  10.830 -0.5136 -1.1522 -0.0580
   74SLPC  H14C 6523   1.703   1.031  10.723  1.1836 -0.2734 -2.7664
   74SLPC   C15 6524   1.694   0.700  10.753 -0.3041 -1.0392 -1.3832
   74SLPC  H15A 6525   1.762   0.616  10.748 -1.2299 -1.9312  0.1144
   74SLPC  H15B 6526   1.639   0.685  10.844 -0.5549  0.3651 -1.2825
   74SLPC  H15C 6527   1.631   0.683  10.667 -2.0049  1.4477 -0.7509
   74SLPC   C12 6528   1.859   0.847  10.642  0.0539 -0.8440 -0.2982
   74SLPC  H12A 6529   1.884   0.952  10.644 -2.0100 -0.3208  0.9661
   74SLPC  H12B 6530   1.810   0.831  10.548  0.8376 -2.3512 -0.4739
   74SLPC   C11 6531   1.989   0.756  10.640 -0.6548  0.0795  0.3346
   74SLPC  H11A 6532   2.052   0.775  10.729 -1.4549  0.8243  0.7574
   74SLPC  H11B 6533   2.039   0.792  10.547 -0.2890 -2.9051 -0.7285
   74SLPC     P 6534   1.898   0.570  10.479  0.0111 -0.0119  0.2425
   74SLPC   O13 6535   1.846   0.434  10.498 -0.2469 -0.4310  0.2440
   74SLPC   O14 6536   1.811   0.666  10.407  0.4601 -0.0850  0.7622
   74SLPC   O12 6537   1.950   0.618  10.622  0.2877 -0.6428 -0.1398
   74SLPC   O11 6538   2.047   0.559  10.409  0.5397 -0.2912  0.2328
   74SLPC    C1 6539   2.135   0.465  10.476 -0.0740  0.5112  0.2050
   74SLPC    HA 6540   2.196   0.509  10.558 -1.2061 -1.4725  2.2303
   74SLPC    HB 6541   2.085   0.387  10.537 -1.5232  1.7283  0.6052
   74SLPC    C2 6542   2.222   0.389  10.363  0.6644  0.2394 -0.5072
   74SLPC    HS 6543   2.311   0.343  10.411 -0.5676 -0.2984  1.3717
   74SLPC   O21 6544   2.263   0.488  10.263  0.4372  0.1643  0.1751
   74SLPC   C21 6545   2.370   0.453  10.196 -0.2376  0.4258 -0.6089
   74SLPC   O22 6546   2.443   0.354  10.210  0.4872 -0.4161 -0.2669
   74SLPC   C22 6547   2.379   0.546  10.080 -0.5174 -0.4586 -0.1486
   74SLPC   H2R 6548   2.312   0.634  10.086  1.2699  0.9167  0.4491
   74SLPC   H2S 6549   2.478   0.592  10.102 -1.9399  1.6989  2.1096
   74SLPC    C3 6550   2.145   0.273  10.299  0.1451 -0.1218  0.2590
   74SLPC    HX 6551   2.108   0.211  10.382  0.4357 -2.0097 -0.9727
   74SLPC    HY 6552   2.219   0.215  10.241 -0.0486  0.4841 -0.6252
   74SLPC   O31 6553   2.036   0.331  10.218  0.2006 -0.3357  0.1731
   74SLPC   C31 6554   1.933   0.256  10.208  0.0315  0.1660  1.0954
   74SLPC   O32 6555   1.931   0.138  10.241  0.3798  0.6829 -0.4979
   74SLPC   C32 6556   1.808   0.331  10.156 -0.2175 -0.1126  0.2108
   74SLPC   H2X 6557   1.838   0.435  10.128  1.6900 -0.2505  1.5644
   74SLPC   H2Y 6558   1.720   0.329  10.223 -1.7887 -1.6527 -1.7822
   74SLPC   C23 6559   2.369   0.480   9.945  0.4348 -0.7867 -0.3154
   74SLPC   H3R 6560   2.443   0.399   9.930  2.3680  0.7977  0.1440
   74SLPC   H3S 6561   2.416   0.546   9.869  0.4783 -1.7836 -1.1605
   74SLPC   C24 6562   2.228   0.436   9.902  0.2957 -0.2789 -0.0176
   74SLPC   H4R 6563   2.149   0.510   9.927 -1.0064 -1.4778 -0.3928
   74SLPC   H4S 6564   2.205   0.344   9.962  2.9218  0.9026  3.0971
   74SLPC   C25 6565   2.205   0.405   9.751 -0.0055 -0.5053 -0.3945
   74SLPC   H5R 6566   2.131   0.323   9.741 -1.1635  0.4564  0.0546
   74SLPC   H5S 6567   2.302   0.368   9.712 -0.0078 -0.1907 -0.7025
   74SLPC   C26 6568   2.173   0.528   9.671  0.2100  0.0861  0.4073
   74SLPC   H6R 6569   2.260   0.597   9.670  0.0564  0.2770 -0.2820
   74SLPC   H6S 6570   2.086   0.577   9.720  0.5482 -0.4546  1.5874
   74SLPC   C27 6571   2.152   0.497   9.526  0.0454 -0.1078 -0.1794
   74SLPC   H7R 6572   2.103   0.581   9.472 -0.3688 -0.8918 -1.0706
   74SLPC   H7S 6573   2.078   0.416   9.505 -0.7945 -0.5340  3.7048
   74SLPC   C28 6574   2.277   0.455   9.446  0.0617  0.7467 -0.5006
   74SLPC   H8R 6575   2.333   0.388   9.515 -0.2344  1.5450  0.5327
   74SLPC   H8S 6576   2.340   0.546   9.443 -0.0260  0.8093 -0.4231
   74SLPC   C29 6577   2.261   0.384   9.307  0.5026 -0.1922 -0.4500
   74SLPC   H9R 6578   2.194   0.297   9.303 -0.8905  0.8159  0.2081
   74SLPC  C210 6579   2.300   0.430   9.186 -0.5741 -0.1826 -0.1183
   74SLPC  H10R 6580   2.274   0.366   9.100  0.3627  0.6696 -1.0659
   74SLPC  C211 6581   2.371   0.565   9.162 -0.0906  0.6722 -0.6176
   74SLPC  H11R 6582   2.471   0.536   9.122  1.8215  0.6594  3.6678
   74SLPC  H11S 6583   2.388   0.619   9.258 -1.3641  0.6263 -0.3574
   74SLPC  C212 6584   2.286   0.633   9.069  0.3429 -0.3464  0.8297
   74SLPC  H12R 6585   2.204   0.682   9.123 -2.9294 -2.4539 -1.8237
   74SLPC  C213 6586   2.295   0.638   8.934 -0.0022  0.2062 -0.2924
   74SLPC  H13R 6587   2.225   0.712   8.892  1.0096  2.0286  1.0854
   74SLPC  C214 6588   2.393   0.573   8.846  0.0956 -0.0602 -0.0972
   74SLPC  H14R 6589   2.432   0.485   8.901 -0.7583  0.7837  1.9379
   74SLPC  H14S 6590   2.476   0.646   8.836  0.3742 -0.3756 -0.1079
   74SLPC  C215 6591   2.332   0.519   8.718 -0.1822 -0.2795 -0.0581
   74SLPC  H15R 6592   2.251   0.443   8.712  0.5407 -1.0323 -0.3282
   74SLPC  H15S 6593   2.420   0.462   8.682  0.7581  1.4256 -0.5580
   74SLPC  C216 6594   2.301   0.619   8.610 -0.1297 -0.0393  0.0954
   74SLPC  H16R 6595   2.391   0.677   8.584 -0.0639 -0.4519 -0.6277
   74SLPC  H16S 6596   2.230   0.693   8.653  0.2187  0.1002  0.4332
   74SLPC  C217 6597   2.239   0.542   8.494  0.6648  0.3389 -0.0611
   74SLPC  H17R 6598   2.148   0.494   8.536  0.1485  1.6705  0.3928
   74SLPC  H17S 6599   2.314   0.463   8.470  1.2422  0.4654  1.2271
   74SLPC  C218 6600   2.206   0.623   8.365  0.3492  0.3506  0.7027
   74SLPC  H18R 6601   2.138   0.702   8.405 -0.8550 -0.9628  1.3440
   74SLPC  H18S 6602   2.154   0.559   8.292  2.2920  0.8621 -1.2184
   74SLPC  H18T 6603   2.303   0.657   8.322  1.8691 -2.7333  1.4427
   74SLPC   C33 6604   1.758   0.264  10.027 -0.2647 -0.7921  0.7738
   74SLPC   H3X 6605   1.671   0.320   9.985  1.8390  0.9193 -1.6314
   74SLPC   H3Y 6606   1.720   0.161  10.044 -1.0572 -1.0321 -1.9378
   74SLPC   C34 6607   1.872   0.266   9.918 -0.3720 -0.0359 -0.2529
   74SLPC   H4X 6608   1.965   0.217   9.952 -0.1807  0.9749  0.7344
   74SLPC   H4Y 6609   1.894   0.374   9.901 -2.6514  0.4984 -0.2277
   74SLPC   C35 6610   1.832   0.214   9.783 -0.2487 -0.1473  0.1484
   74SLPC   H5X 6611   1.767   0.125   9.793 -1.4808  0.7739  0.5640
   74SLPC   H5Y 6612   1.920   0.189   9.719  0.2445 -0.8607  1.0878
   74SLPC   C36 6613   1.739   0.313   9.701 -0.8655 -0.2485  0.4466
   74SLPC   H6X 6614   1.791   0.411   9.707 -0.4905 -0.4582  0.6962
   74SLPC   H6Y 6615   1.645   0.319   9.759 -1.6550  0.6323 -0.8753
   74SLPC   C37 6616   1.717   0.266   9.559 -0.5356  1.4856 -0.1650
   74SLPC   H7X 6617   1.620   0.303   9.520 -0.4633  1.3458 -0.4871
   74SLPC   H7Y 6618   1.700   0.156   9.567 -0.5691  1.5490  0.6504
   74SLPC   C38 6619   1.840   0.300   9.463 -0.0353 -0.2278  0.0835
   74SLPC   H8X 6620   1.935   0.251   9.493  0.5887  0.8187 -0.1428
   74SLPC   H8Y 6621   1.852   0.409   9.477 -0.0066 -0.2935  0.6004
   74SLPC   C39 6622   1.804   0.293   9.320 -0.3936 -0.2253  0.6260
   74SLPC   H9X 6623   1.699   0.322   9.302 -0.4116 -1.1828 -0.9669
   74SLPC   H9Y 6624   1.814   0.191   9.276 -0.0359  0.0957 -0.0492
   74SLPC  C310 6625   1.884   0.385   9.218 -0.1527  0.1468 -0.4040
   74SLPC  H10X 6626   1.987   0.344   9.212 -0.8494 -2.1973  1.9664
   74SLPC  H10Y 6627   1.874   0.490   9.252 -2.8294 -0.1577 -0.0362
   74SLPC  C311 6628   1.829   0.372   9.079  0.0871 -0.1483 -0.4456
   74SLPC  H11X 6629   1.723   0.398   9.100  0.3516  1.9861 -1.4596
   74SLPC  H11Y 6630   1.837   0.264   9.051  0.9322 -0.8181  2.1337
   74SLPC  C312 6631   1.909   0.459   8.985  0.4507  0.7339 -0.1318
   74SLPC  H12X 6632   2.018   0.443   8.991  0.5827  1.4974 -0.3236
   74SLPC  H12Y 6633   1.889   0.567   9.004  1.6171  0.8121  0.7451
   74SLPC  C313 6634   1.859   0.431   8.835 -0.5659 -0.6872 -0.1864
   74SLPC  H13X 6635   1.749   0.419   8.839 -0.9061  2.0548  1.7045
   74SLPC  H13Y 6636   1.894   0.330   8.803  1.0730  0.5434 -2.5720
   74SLPC  C314 6637   1.915   0.532   8.729  0.5031  0.6407 -0.2151
   74SLPC  H14X 6638   1.895   0.505   8.623  2.1000 -0.5079 -0.2605
   74SLPC  H14Y 6639   2.026   0.535   8.728  0.6207 -0.3275  2.4137
   74SLPC  C315 6640   1.854   0.670   8.744 -0.0133  0.2496 -0.4644
   74SLPC  H15X 6641   1.874   0.707   8.847 -0.2984 -0.1959 -0.2456
   74SLPC  H15Y 6642   1.743   0.667   8.734  0.1650  1.2983 -3.9871
   74SLPC  C316 6643   1.904   0.776   8.650  0.3331  0.5157  0.1643
   74SLPC  H16X 6644   2.013   0.796   8.651  0.1171  1.7872  0.2688
   74SLPC  H16Y 6645   1.865   0.876   8.680  1.2909  0.9250  0.0819
   74SLPC  C317 6646   1.865   0.757   8.503  0.0667  0.3573 -0.1512
   74SLPC  H17X 6647   1.760   0.723   8.489 -0.3708  2.3081 -2.3002
   74SLPC  H17Y 6648   1.930   0.676   8.463 -2.2587 -0.0067 -3.6784
   74SLPC  C318 6649   1.886   0.876   8.408  0.5154  0.2380 -0.7392
   74SLPC  H18X 6650   1.981   0.930   8.423  0.0753  0.7312  0.4594
   74SLPC  H18Y 6651   1.813   0.954   8.438  1.3377  0.4853  0.7192
   74SLPC  H18Z 6652   1.883   0.852   8.299 -0.2542  4.1232 -1.7055
   75SLPC     N 6653   1.468   4.557   6.145  0.4172 -0.1779 -0.1690
   75SLPC   C13 6654   1.516   4.671   6.065  0.4853  0.6905 -1.1750
   75SLPC  H13A 6655   1.463   4.756   6.107  0.0186 -0.3441  0.4149
   75SLPC  H13B 6656   1.622   4.686   6.079  0.6687 -0.5012 -1.2530
   75SLPC  H13C 6657   1.495   4.656   5.960  0.3846 -1.2901 -0.9075
   75SLPC   C14 6658   1.534   4.431   6.094 -0.7126 -0.5587 -0.4247
   75SLPC  H14A 6659   1.639   4.442   6.114 -1.2576  0.0738  2.4711
   75SLPC  H14B 6660   1.493   4.345   6.145  0.0285  0.3327  1.8017
   75SLPC  H14C 6661   1.504   4.418   5.991 -1.3934  3.6431 -0.9192
   75SLPC   C15 6662   1.317   4.536   6.110 -0.1430 -0.4670  0.9880
   75SLPC  H15A 6663   1.284   4.455   6.173  2.4743 -0.6021  2.3437
   75SLPC  H15B 6664   1.254   4.618   6.138 -1.0283  1.0867 -4.3494
   75SLPC  H15C 6665   1.306   4.511   6.005 -0.2053 -0.5789  1.0217
   75SLPC   C12 6666   1.492   4.565   6.292 -0.0696 -0.3934  0.0668
   75SLPC  H12A 6667   1.442   4.649   6.335  0.8141  1.0215 -1.5388
   75SLPC  H12B 6668   1.597   4.588   6.305 -0.2835  0.3384  0.5323
   75SLPC   C11 6669   1.457   4.447   6.388  0.3198  0.1520 -0.2144
   75SLPC  H11A 6670   1.476   4.474   6.494 -1.6236 -1.2614  0.5409
   75SLPC  H11B 6671   1.514   4.352   6.376  0.7992 -0.2141  3.6313
   75SLPC     P 6672   1.216   4.477   6.492 -0.0363 -0.2140 -0.2588
   75SLPC   O13 6673   1.261   4.617   6.519 -0.1973  0.0516  0.0498
   75SLPC   O14 6674   1.073   4.475   6.447  0.1598 -0.4398  0.1812
   75SLPC   O12 6675   1.315   4.412   6.383 -0.2015  0.2812 -0.1863
   75SLPC   O11 6676   1.232   4.393   6.626 -0.3978  0.7671  0.1875
   75SLPC    C1 6677   1.244   4.250   6.638  0.7529 -0.4250 -1.2732
   75SLPC    HA 6678   1.147   4.199   6.617  1.4911 -2.0866 -0.8204
   75SLPC    HB 6679   1.332   4.208   6.585  2.0789 -0.9453  1.1981
   75SLPC    C2 6680   1.282   4.203   6.786 -0.3225  0.6031 -0.4967
   75SLPC    HS 6681   1.191   4.227   6.844 -0.9845 -0.3342 -1.1284
   75SLPC   O21 6682   1.410   4.269   6.817 -0.4236 -0.7629 -0.1665
   75SLPC   C21 6683   1.422   4.300   6.946 -0.1161  0.0072  0.8107
   75SLPC   O22 6684   1.324   4.308   7.014  0.1386  0.5999  0.3339
   75SLPC   C22 6685   1.564   4.331   6.993  0.0874  0.3606  0.1105
   75SLPC   H2R 6686   1.632   4.264   6.936 -0.5057 -0.4182  0.2929
   75SLPC   H2S 6687   1.591   4.437   6.976  1.8241  0.1386  1.2606
   75SLPC    C3 6688   1.303   4.049   6.800 -0.0412  0.4920 -0.5631
   75SLPC    HX 6689   1.396   4.019   6.746  0.0232  0.3252 -0.3601
   75SLPC    HY 6690   1.225   3.982   6.760  0.8386 -0.7438 -0.2607
   75SLPC   O31 6691   1.323   4.008   6.936  0.9092 -0.5057 -0.0620
   75SLPC   C31 6692   1.213   4.024   7.006 -0.0427 -0.1330  0.2954
   75SLPC   O32 6693   1.102   4.046   6.964 -0.3344 -0.3985  0.1046
   75SLPC   C32 6694   1.247   4.010   7.156 -0.8928  0.0731  0.2909
   75SLPC   H2X 6695   1.345   4.057   7.179  0.3917 -1.7523 -1.0872
   75SLPC   H2Y 6696   1.261   3.903   7.185 -1.7556  0.0261  0.5720
   75SLPC   C23 6697   1.588   4.301   7.148  0.4511  0.0652  0.4018
   75SLPC   H3R 6698   1.604   4.192   7.159  0.2688  0.1432  1.4655
   75SLPC   H3S 6699   1.497   4.334   7.203  2.5005  0.7434  3.5965
   75SLPC   C24 6700   1.717   4.349   7.210 -0.0852  0.4997  0.0109
   75SLPC   H4R 6701   1.722   4.459   7.217 -1.8795  0.6243 -0.1859
   75SLPC   H4S 6702   1.807   4.324   7.150 -1.1229  1.7614 -2.1859
   75SLPC   C25 6703   1.725   4.298   7.359 -1.0154 -0.1146 -0.3443
   75SLPC   H5R 6704   1.824   4.336   7.394 -1.2946  0.2222  0.1002
   75SLPC   H5S 6705   1.729   4.187   7.364 -0.6803 -0.0530  1.2325
   75SLPC   C26 6706   1.604   4.345   7.446  0.1597  0.2147  0.3519
   75SLPC   H6R 6707   1.505   4.309   7.411  0.5796 -0.9892  0.3768
   75SLPC   H6S 6708   1.602   4.456   7.452  1.2212  0.2691 -0.0655
   75SLPC   C27 6709   1.624   4.300   7.589  0.0488  0.1880 -0.0197
   75SLPC   H7R 6710   1.623   4.189   7.596 -1.0016  0.2629  1.6862
   75SLPC   H7S 6711   1.534   4.334   7.645 -1.0580 -1.7228 -0.5415
   75SLPC   C28 6712   1.740   4.370   7.662  0.4483 -0.1680 -0.4491
   75SLPC   H8R 6713   1.830   4.336   7.606 -2.1752 -2.6535 -3.5730
   75SLPC   H8S 6714   1.747   4.322   7.762  0.5301  0.8370  0.0392
   75SLPC   C29 6715   1.733   4.521   7.679  0.7889 -0.7553 -0.1348
   75SLPC   H9R 6716   1.728   4.581   7.587  1.9453 -0.6241 -0.1190
   75SLPC  C210 6717   1.713   4.597   7.796  0.4219 -0.0842  1.1892
   75SLPC  H10R 6718   1.690   4.701   7.772  0.3607 -0.7113 -1.8617
   75SLPC  C211 6719   1.685   4.537   7.937 -0.6914 -0.0488  0.0011
   75SLPC  H11R 6720   1.681   4.427   7.927 -0.1162  0.0149 -1.1200
   75SLPC  H11S 6721   1.585   4.577   7.964 -0.3646  0.6981  0.1295
   75SLPC  C212 6722   1.774   4.593   8.049 -0.5769 -0.1421  0.2707
   75SLPC  H12R 6723   1.881   4.583   8.027 -0.8736 -2.6354 -0.2716
   75SLPC  C213 6724   1.734   4.643   8.173  0.1970 -0.1692  0.6032
   75SLPC  H13R 6725   1.815   4.661   8.245  1.6897  3.7533 -1.7528
   75SLPC  C214 6726   1.593   4.669   8.211  0.2115  0.1551  0.2274
   75SLPC  H14R 6727   1.560   4.605   8.295 -0.0859 -0.6025 -0.4610
   75SLPC  H14S 6728   1.519   4.659   8.129  0.0365 -0.5366  0.4709
   75SLPC  C215 6729   1.603   4.811   8.259 -0.6345  0.0806 -0.2070
   75SLPC  H15R 6730   1.580   4.879   8.174 -0.5259  0.9899  0.4705
   75SLPC  H15S 6731   1.700   4.838   8.306 -0.4469  2.6207 -1.8086
   75SLPC  C216 6732   1.482   4.848   8.350 -0.1823  0.7577 -0.1843
   75SLPC  H16R 6733   1.443   4.763   8.409 -0.4066  1.4334  0.6593
   75SLPC  H16S 6734   1.389   4.851   8.287 -1.7767 -1.7822  1.8462
   75SLPC  C217 6735   1.494   4.977   8.436  0.2108 -0.4892 -0.0399
   75SLPC  H17R 6736   1.392   5.011   8.466  0.0324 -1.5253  0.5749
   75SLPC  H17S 6737   1.532   5.059   8.371 -0.0269 -0.5010 -0.1979
   75SLPC  C218 6738   1.582   4.953   8.557  0.0546 -0.4956 -0.0759
   75SLPC  H18R 6739   1.673   4.903   8.517  1.2039  0.3419  1.3937
   75SLPC  H18S 6740   1.539   4.884   8.632 -0.7501 -0.3919 -0.4256
   75SLPC  H18T 6741   1.609   5.051   8.603 -1.4497 -0.6341  1.1726
   75SLPC   C33 6742   1.135   4.060   7.248  0.4728 -0.5126  0.1011
   75SLPC   H3X 6743   1.122   4.169   7.229  0.2605 -0.5886 -0.1869
   75SLPC   H3Y 6744   1.051   3.996   7.217  0.8106 -0.2856 -1.3468
   75SLPC   C34 6745   1.159   4.044   7.399  0.3334  0.5133  0.1364
   75SLPC   H4X 6746   1.176   3.938   7.428  0.8457  1.4976  3.9621
   75SLPC   H4Y 6747   1.069   4.074   7.456 -0.0875 -0.8196  0.1942
   75SLPC   C35 6748   1.278   4.123   7.452 -0.2131 -0.3978 -0.4020
   75SLPC   H5X 6749   1.285   4.223   7.405 -1.4240  1.4712  2.9967
   75SLPC   H5Y 6750   1.370   4.066   7.428 -1.4747 -2.4020 -0.7198
   75SLPC   C36 6751   1.267   4.159   7.600  0.5009  0.0455  0.7961
   75SLPC   H6X 6752   1.156   4.160   7.613 -0.0173 -1.6686 -2.5135
   75SLPC   H6Y 6753   1.312   4.260   7.606  1.0078 -0.2608  4.2885
   75SLPC   C37 6754   1.325   4.066   7.708 -0.1079  1.2750 -0.3092
   75SLPC   H7X 6755   1.436   4.070   7.701 -0.1231  1.2233 -0.5774
   75SLPC   H7Y 6756   1.293   3.961   7.690  1.3032  0.8066 -0.2134
   75SLPC   C38 6757   1.270   4.085   7.848 -0.5245 -0.4298 -0.6380
   75SLPC   H8X 6758   1.334   4.014   7.905 -0.5423  1.0990  1.4014
   75SLPC   H8Y 6759   1.162   4.065   7.832 -0.4202 -1.1038 -0.5233
   75SLPC   C39 6760   1.275   4.236   7.894 -0.2073  0.5325 -0.1706
   75SLPC   H9X 6761   1.207   4.306   7.841  0.8110  1.7945  0.1497
   75SLPC   H9Y 6762   1.380   4.266   7.878  0.0433 -0.0410  0.3716
   75SLPC  C310 6763   1.246   4.228   8.043  0.1237  0.1495 -0.8482
   75SLPC  H10X 6764   1.294   4.314   8.094 -1.7004  0.8246 -0.1744
   75SLPC  H10Y 6765   1.298   4.142   8.089 -1.7245  0.4026  1.9780
   75SLPC  C311 6766   1.095   4.243   8.078  0.9370  0.0175 -0.0671
   75SLPC  H11X 6767   1.055   4.153   8.026  1.9586 -1.9533  2.3173
   75SLPC  H11Y 6768   1.060   4.337   8.030 -1.7369 -0.5743  0.4996
   75SLPC  C312 6769   1.069   4.240   8.229 -0.5353  0.3203  0.7845
   75SLPC  H12X 6770   1.124   4.153   8.271  0.9567  1.0324  0.3427
   75SLPC  H12Y 6771   0.963   4.215   8.250 -0.2028 -1.7808  0.2124
   75SLPC  C313 6772   1.120   4.364   8.304  0.5556 -0.4643  0.2763
   75SLPC  H13X 6773   1.215   4.399   8.259  0.6313 -2.0186 -0.8530
   75SLPC  H13Y 6774   1.141   4.332   8.407  0.9564  3.8955  1.7786
   75SLPC  C314 6775   1.020   4.485   8.304 -0.6256 -0.5943  0.0351
   75SLPC  H14X 6776   0.925   4.464   8.358 -0.7251  1.1631  0.6091
   75SLPC  H14Y 6777   0.998   4.511   8.199 -1.8171 -3.0349 -0.3901
   75SLPC  C315 6778   1.090   4.603   8.366 -0.1818 -0.2483 -0.3411
   75SLPC  H15X 6779   1.186   4.615   8.311  0.0806 -1.3984 -0.1684
   75SLPC  H15Y 6780   1.113   4.589   8.474  0.2140  0.3187 -0.3470
   75SLPC  C316 6781   1.008   4.728   8.339  0.2458 -0.8271 -0.1294
   75SLPC  H16X 6782   0.913   4.720   8.397 -0.2211 -1.6618 -0.9719
   75SLPC  H16Y 6783   0.983   4.728   8.231  1.7402 -1.0794 -0.4870
   75SLPC  C317 6784   1.085   4.854   8.377 -0.1069 -0.5888  0.8817
   75SLPC  H17X 6785   1.179   4.862   8.318 -1.0465 -0.1901 -0.6226
   75SLPC  H17Y 6786   1.114   4.857   8.484 -0.2483  3.5711  0.9725
   75SLPC  C318 6787   1.005   4.987   8.357  0.7708 -0.4336 -0.2943
   75SLPC  H18X 6788   1.062   5.075   8.395  2.5830 -1.8284  0.3469
   75SLPC  H18Y 6789   0.907   4.991   8.408  1.1803 -4.6287  1.1378
   75SLPC  H18Z 6790   0.980   5.001   8.250 -0.2817 -0.8991 -0.1169
   76SLPC     N 6791   2.086   3.161   6.105  0.0312  1.0045 -0.3133
   76SLPC   C13 6792   2.007   3.233   6.003  0.7603  0.1500  0.4777
   76SLPC  H13A 6793   2.069   3.260   5.919  2.5312  1.1881  2.0527
   76SLPC  H13B 6794   1.914   3.182   5.980  0.9422 -0.0354  0.1551
   76SLPC  H13C 6795   1.970   3.316   6.062 -0.2628 -0.0337  0.1213
   76SLPC   C14 6796   2.191   3.246   6.156 -0.6236 -0.3990 -0.4648
   76SLPC  H14A 6797   2.259   3.187   6.216 -1.9574 -2.6510 -1.0391
   76SLPC  H14B 6798   2.249   3.285   6.075  0.9249  0.6060  1.0549
   76SLPC  H14C 6799   2.159   3.325   6.222  0.3224 -2.8115  3.1815
   76SLPC   C15 6800   2.144   3.036   6.035  0.4622  0.9452  0.0312
   76SLPC  H15A 6801   2.071   2.969   5.992  1.2334 -0.7302  1.2175
   76SLPC  H15B 6802   2.209   3.060   5.952 -0.1536 -0.3273 -0.8497
   76SLPC  H15C 6803   2.210   2.975   6.095  1.1821 -0.8671 -2.4360
   76SLPC   C12 6804   2.007   3.114   6.224  0.5625 -0.0686 -0.6748
   76SLPC  H12A 6805   2.000   3.197   6.293  0.9491 -0.0725 -0.6282
   76SLPC  H12B 6806   2.073   3.047   6.277  0.2422 -1.3160 -1.7904
   76SLPC   C11 6807   1.867   3.046   6.208 -0.0188 -0.5188 -0.2553
   76SLPC  H11A 6808   1.805   3.132   6.176 -0.4333 -0.2716  1.1649
   76SLPC  H11B 6809   1.822   3.019   6.305 -0.9767  0.9659 -0.2474
   76SLPC     P 6810   1.926   2.788   6.179 -0.4149 -0.1363 -0.1713
   76SLPC   O13 6811   1.813   2.727   6.254 -0.1039 -0.6599 -0.0405
   76SLPC   O14 6812   1.981   2.711   6.063  0.2888 -0.3387 -0.3440
   76SLPC   O12 6813   1.865   2.930   6.121  0.0269 -0.0736 -0.6685
   76SLPC   O11 6814   2.041   2.827   6.281  0.5310  0.2072  0.5155
   76SLPC    C1 6815   2.164   2.756   6.299  0.2511  0.3454  0.2602
   76SLPC    HA 6816   2.214   2.724   6.205  3.0192 -0.3427  1.8604
   76SLPC    HB 6817   2.234   2.823   6.354  0.8525 -0.8055  0.9538
   76SLPC    C2 6818   2.166   2.638   6.396 -0.0815  0.1090  0.3723
   76SLPC    HS 6819   2.087   2.567   6.363  0.3852 -1.0361  1.6043
   76SLPC   O21 6820   2.145   2.689   6.526  0.1091 -0.5001 -0.4569
   76SLPC   C21 6821   2.099   2.597   6.609  0.1769  0.3081 -0.3821
   76SLPC   O22 6822   2.079   2.479   6.587 -0.2911 -0.3640 -0.1996
   76SLPC   C22 6823   2.096   2.664   6.749 -0.4626  0.8763  0.5540
   76SLPC   H2R 6824   2.197   2.685   6.791 -0.4005 -0.3255  1.0337
   76SLPC   H2S 6825   2.045   2.762   6.737 -0.2082  0.8936 -0.4521
   76SLPC    C3 6826   2.296   2.544   6.388 -0.3751 -0.2380  0.1912
   76SLPC    HX 6827   2.291   2.503   6.285  1.5945  2.0976 -0.9596
   76SLPC    HY 6828   2.284   2.461   6.460  0.5796 -1.3071 -0.8451
   76SLPC   O31 6829   2.419   2.614   6.390  0.0265 -0.4659 -0.2165
   76SLPC   C31 6830   2.465   2.641   6.516  0.6040  0.2619 -0.0806
   76SLPC   O32 6831   2.405   2.623   6.621 -0.2417  0.1474  0.2877
   76SLPC   C32 6832   2.589   2.720   6.501 -0.3133 -0.0999 -0.5116
   76SLPC   H2X 6833   2.570   2.818   6.452  0.4994  0.1328 -0.3609
   76SLPC   H2Y 6834   2.653   2.660   6.433 -1.0000 -3.8572  1.8185
   76SLPC   C23 6835   2.011   2.595   6.852 -0.2295  0.9340 -1.0141
   76SLPC   H3R 6836   2.055   2.497   6.881  0.2382  0.6980 -2.4621
   76SLPC   H3S 6837   1.907   2.577   6.815  0.1251  1.7149 -2.4706
   76SLPC   C24 6838   1.991   2.680   6.987 -0.8279  0.0013 -0.9457
   76SLPC   H4R 6839   1.937   2.769   6.949 -2.4363 -0.3063  0.4828
   76SLPC   H4S 6840   2.094   2.701   7.023 -0.7839 -1.4817 -0.1285
   76SLPC   C25 6841   1.914   2.614   7.107  0.0930  0.0760  0.1831
   76SLPC   H5R 6842   1.954   2.511   7.114  0.9208  0.0526 -3.2847
   76SLPC   H5S 6843   1.806   2.618   7.083  0.1879  0.3060 -0.2193
   76SLPC   C26 6844   1.927   2.685   7.242 -0.0919  0.7648 -0.1835
   76SLPC   H6R 6845   1.884   2.786   7.224 -2.0559  0.2711  1.3382
   76SLPC   H6S 6846   2.033   2.706   7.267  0.3024 -0.8673 -0.3849
   76SLPC   C27 6847   1.863   2.620   7.358  0.6253 -0.2136  0.1202
   76SLPC   H7R 6848   1.892   2.514   7.374  2.6401  0.0772 -1.2644
   76SLPC   H7S 6849   1.757   2.609   7.328  0.6922 -0.6312  0.0331
   76SLPC   C28 6850   1.881   2.702   7.481 -0.4685 -0.1137  0.5525
   76SLPC   H8R 6851   1.991   2.698   7.491 -0.4032 -1.3179 -0.4470
   76SLPC   H8S 6852   1.850   2.808   7.465 -3.4424 -0.9333  0.1525
   76SLPC   C29 6853   1.816   2.654   7.606  0.3371  0.7855 -0.1432
   76SLPC   H9R 6854   1.731   2.585   7.596 -0.5200  1.7792  0.1952
   76SLPC  C210 6855   1.855   2.677   7.726 -0.4475 -0.4595 -0.1600
   76SLPC  H10R 6856   1.811   2.621   7.810  0.1300 -1.3290 -0.4158
   76SLPC  C211 6857   1.966   2.763   7.780  0.3629  0.4568  0.6247
   76SLPC  H11R 6858   2.044   2.790   7.706  2.3515 -1.9113  1.6944
   76SLPC  H11S 6859   2.035   2.700   7.841  1.1288  0.2404 -0.4287
   76SLPC  C212 6860   1.904   2.884   7.843 -0.7688 -0.2126 -0.3894
   76SLPC  H12R 6861   1.833   2.937   7.779 -2.4942  0.9238  2.2978
   76SLPC  C213 6862   1.931   2.934   7.964  0.3592  0.3188  0.3359
   76SLPC  H13R 6863   1.874   3.022   7.998  1.1144  0.0720  2.3329
   76SLPC  C214 6864   2.030   2.874   8.067 -0.2088 -0.3464  0.2731
   76SLPC  H14R 6865   2.092   2.794   8.021  0.9777  0.0860  1.0474
   76SLPC  H14S 6866   1.965   2.833   8.147  1.0386 -0.1098  1.4462
   76SLPC  C215 6867   2.131   2.972   8.132 -0.0629 -0.6839 -0.3252
   76SLPC  H15R 6868   2.176   3.031   8.049 -1.7382  0.5456 -0.4200
   76SLPC  H15S 6869   2.217   2.921   8.181  1.8760 -0.4375 -3.2511
   76SLPC  C216 6870   2.078   3.063   8.241 -0.3628  0.6247  0.6392
   76SLPC  H16R 6871   2.162   3.120   8.284 -2.1329  2.5275  1.7740
   76SLPC  H16S 6872   2.039   3.007   8.329  1.7215 -0.1506  1.1305
   76SLPC  C217 6873   1.998   3.179   8.179  0.5106 -0.2897  0.0319
   76SLPC  H17R 6874   1.895   3.143   8.160  0.3217  0.4036 -0.2940
   76SLPC  H17S 6875   2.050   3.203   8.083 -0.2139 -3.1381 -1.1854
   76SLPC  C218 6876   1.965   3.302   8.271  0.3643  0.3147  0.9366
   76SLPC  H18R 6877   2.058   3.356   8.300  0.2625  1.8034 -1.2636
   76SLPC  H18S 6878   1.928   3.267   8.370  0.5631 -2.3749  0.1479
   76SLPC  H18T 6879   1.891   3.365   8.217 -0.0748 -2.2887 -1.8000
   76SLPC   C33 6880   2.677   2.729   6.633  0.3666  0.0413 -1.1521
   76SLPC   H3X 6881   2.766   2.782   6.593  1.5453  0.0960  1.3950
   76SLPC   H3Y 6882   2.704   2.623   6.654 -1.8018 -0.2875  0.2327
   76SLPC   C34 6883   2.618   2.810   6.747 -0.2476 -0.0543 -0.1259
   76SLPC   H4X 6884   2.520   2.770   6.781  0.3473 -0.9513  0.5880
   76SLPC   H4Y 6885   2.606   2.914   6.711 -1.0843 -0.7973 -2.1576
   76SLPC   C35 6886   2.719   2.807   6.866 -0.3243  0.0063 -0.0199
   76SLPC   H5X 6887   2.811   2.854   6.824 -1.9849 -0.4759 -4.9219
   76SLPC   H5Y 6888   2.735   2.703   6.899  1.5254  0.2979  0.1050
   76SLPC   C36 6889   2.678   2.876   6.995 -0.1670  0.2839 -0.3667
   76SLPC   H6X 6890   2.569   2.863   7.013 -0.3436  0.1266 -1.4662
   76SLPC   H6Y 6891   2.701   2.984   6.985 -1.6362  0.5160 -1.5651
   76SLPC   C37 6892   2.752   2.837   7.131 -0.4662  0.0324 -0.5935
   76SLPC   H7X 6893   2.858   2.863   7.114  0.8242 -4.2960 -0.2966
   76SLPC   H7Y 6894   2.735   2.728   7.142  2.2680 -0.3219  0.8218
   76SLPC   C38 6895   2.710   2.914   7.256 -0.2423 -0.9233  0.2345
   76SLPC   H8X 6896   2.599   2.909   7.264 -0.4389 -2.0834 -2.1949
   76SLPC   H8Y 6897   2.736   3.020   7.235  3.8819 -2.0774 -1.3514
   76SLPC   C39 6898   2.778   2.861   7.378 -0.5723  0.3905 -0.2308
   76SLPC   H9X 6899   2.889   2.868   7.375 -0.6148  1.1338 -0.1834
   76SLPC   H9Y 6900   2.758   2.752   7.375 -0.2413  0.3483 -1.6413
   76SLPC  C310 6901   2.720   2.926   7.501  0.0081  0.1243  0.2351
   76SLPC  H10X 6902   2.610   2.909   7.494  0.0577 -0.6945  1.1735
   76SLPC  H10Y 6903   2.738   3.036   7.509 -1.2257  0.2546  1.8209
   76SLPC  C311 6904   2.762   2.864   7.642  0.6107  0.6861  0.3050
   76SLPC  H11X 6905   2.871   2.881   7.660  0.4965  1.6778  0.1072
   76SLPC  H11Y 6906   2.735   2.757   7.654 -0.8918  1.2996  3.4598
   76SLPC  C312 6907   2.688   2.937   7.755  0.1623 -0.4172 -0.0924
   76SLPC  H12X 6908   2.588   2.969   7.719 -0.6578 -2.9917 -0.3710
   76SLPC  H12Y 6909   2.744   3.029   7.781  2.0666 -1.1955 -1.2330
   76SLPC  C313 6910   2.655   2.845   7.872  0.2714 -0.0134  0.2345
   76SLPC  H13X 6911   2.742   2.781   7.897 -0.2369 -0.5792  0.5820
   76SLPC  H13Y 6912   2.574   2.777   7.836 -0.9522  2.1615 -1.3463
   76SLPC  C314 6913   2.604   2.924   7.987  0.1099  0.2815  0.1091
   76SLPC  H14X 6914   2.563   2.842   8.050 -0.5826 -1.4274 -2.4215
   76SLPC  H14Y 6915   2.521   2.993   7.960 -0.1145  0.5608  1.4265
   76SLPC  C315 6916   2.712   3.005   8.054 -0.1492  0.6133 -0.3778
   76SLPC  H15X 6917   2.648   3.064   8.122 -4.7634 -0.7441 -3.1444
   76SLPC  H15Y 6918   2.752   3.075   7.977  0.1587 -0.1986 -0.9748
   76SLPC  C316 6919   2.827   2.930   8.129  0.4332 -0.3911  0.0020
   76SLPC  H16X 6920   2.901   2.995   8.180 -0.3796  0.1659  0.4940
   76SLPC  H16Y 6921   2.886   2.876   8.052  1.2680 -0.0549  0.3961
   76SLPC  C317 6922   2.772   2.831   8.237 -0.0815 -0.1312  0.5061
   76SLPC  H17X 6923   2.859   2.767   8.264 -1.9711 -2.7560  0.8013
   76SLPC  H17Y 6924   2.704   2.754   8.196  0.5843 -0.9228  0.8390
   76SLPC  C318 6925   2.731   2.902   8.360  0.7404 -1.1833 -0.9041
   76SLPC  H18X 6926   2.706   2.830   8.440  0.0685  0.6433  0.6079
   76SLPC  H18Y 6927   2.637   2.961   8.348  0.9301 -0.2733  1.6183
   76SLPC  H18Z 6928   2.816   2.966   8.391  0.7790 -1.3697 -0.6265
   77SLPC     N 6929   6.068   3.160   6.222  0.7051  0.4425 -0.1376
   77SLPC   C13 6930   6.112   3.125   6.352 -0.7828 -0.0978  0.4008
   77SLPC  H13A 6931   6.217   3.098   6.353 -0.8114 -1.0151 -3.4457
   77SLPC  H13B 6932   6.102   3.211   6.416  1.1868  0.8252 -0.4418
   77SLPC  H13C 6933   6.060   3.044   6.402 -0.0409 -2.0998 -1.8855
   77SLPC   C14 6934   6.155   3.277   6.173 -0.6801  0.0095  0.3834
   77SLPC  H14A 6935   6.252   3.241   6.142 -0.1263 -0.5052  2.5813
   77SLPC  H14B 6936   6.119   3.321   6.081 -0.4201  0.3692  0.4529
   77SLPC  H14C 6937   6.167   3.352   6.249 -0.6512 -0.8455  1.2362
   77SLPC   C15 6938   5.927   3.200   6.220 -0.1589 -0.0014  0.4776
   77SLPC  H15A 6939   5.908   3.286   6.282  1.3954 -0.0028  0.9909
   77SLPC  H15B 6940   5.893   3.223   6.120 -2.8467 -1.5951  0.9295
   77SLPC  H15C 6941   5.863   3.117   6.246 -0.4767 -0.0099 -0.3009
   77SLPC   C12 6942   6.079   3.045   6.121 -0.4164  0.6656  0.4469
   77SLPC  H12A 6943   6.184   3.020   6.123 -0.0874  1.8235 -1.0895
   77SLPC  H12B 6944   6.052   3.076   6.021 -1.0838  0.1465  0.4561
   77SLPC   C11 6945   5.996   2.913   6.148 -0.8569 -0.5457  0.1403
   77SLPC  H11A 6946   5.997   2.846   6.060 -0.0556 -0.1887 -0.1317
   77SLPC  H11B 6947   5.889   2.937   6.166 -0.3270  1.2025  1.2610
   77SLPC     P 6948   5.973   2.772   6.367  0.3605 -0.3639 -0.1402
   77SLPC   O13 6949   5.918   2.883   6.448 -0.6536 -0.0143  0.2023
   77SLPC   O14 6950   5.869   2.686   6.305 -0.0702 -0.1144  0.4637
   77SLPC   O12 6951   6.058   2.838   6.253  0.6136 -0.8898 -0.5878
   77SLPC   O11 6952   6.079   2.697   6.452 -0.0884  0.0754 -0.2207
   77SLPC    C1 6953   6.146   2.772   6.562 -0.4028 -0.0888  0.1786
   77SLPC    HA 6954   6.180   2.865   6.513  0.3700 -1.6384 -2.4104
   77SLPC    HB 6955   6.082   2.781   6.653 -0.6478 -0.8956  0.0960
   77SLPC    C2 6956   6.281   2.705   6.608  0.0311  0.2733 -0.0074
   77SLPC    HS 6957   6.331   2.671   6.515 -1.3098  1.3679 -1.1717
   77SLPC   O21 6958   6.255   2.596   6.696  0.3899  0.7963  0.1882
   77SLPC   C21 6959   6.348   2.496   6.695  0.4992 -0.1367 -0.1155
   77SLPC   O22 6960   6.440   2.494   6.618  0.4277 -0.1072  0.5718
   77SLPC   C22 6961   6.315   2.400   6.810  0.0262  0.5215  0.9499
   77SLPC   H2R 6962   6.223   2.429   6.865  0.3659 -1.0370  2.4106
   77SLPC   H2S 6963   6.305   2.297   6.770 -2.3772  1.4397 -1.0724
   77SLPC    C3 6964   6.385   2.796   6.668 -0.3122  0.5831 -0.3636
   77SLPC    HX 6965   6.430   2.858   6.588 -0.2045  1.0349  0.0442
   77SLPC    HY 6966   6.460   2.737   6.724 -1.4927 -1.4720 -0.8382
   77SLPC   O31 6967   6.316   2.875   6.769 -0.2367 -0.0553 -0.4379
   77SLPC   C31 6968   6.369   2.990   6.800 -0.2202 -0.4656  0.7334
   77SLPC   O32 6969   6.474   3.033   6.760 -0.1306  0.0112  0.0057
   77SLPC   C32 6970   6.283   3.064   6.900  0.2359 -0.1316  0.6975
   77SLPC   H2X 6971   6.285   3.007   6.995 -2.1459 -0.3651  0.6818
   77SLPC   H2Y 6972   6.179   3.061   6.860  0.4339  1.1423  0.0117
   77SLPC   C23 6973   6.433   2.407   6.912  0.5764 -0.4127 -0.4523
   77SLPC   H3R 6974   6.452   2.515   6.928 -0.6143 -0.3148  0.4490
   77SLPC   H3S 6975   6.534   2.383   6.872  0.3849 -0.7460 -0.7423
   77SLPC   C24 6976   6.402   2.321   7.029  0.5477 -0.0078 -0.3315
   77SLPC   H4R 6977   6.495   2.273   7.067 -0.6271 -1.8321  0.4102
   77SLPC   H4S 6978   6.345   2.240   6.976 -0.8716  0.1007  0.9601
   77SLPC   C25 6979   6.321   2.397   7.134 -0.0647  0.1730  0.2438
   77SLPC   H5R 6980   6.247   2.471   7.097 -0.8826 -0.5317  0.4323
   77SLPC   H5S 6981   6.408   2.456   7.171  0.4629 -0.6629  0.3620
   77SLPC   C26 6982   6.255   2.313   7.251 -0.4112 -0.4187 -0.0021
   77SLPC   H6R 6983   6.156   2.271   7.224 -0.2020 -0.4532 -0.7323
   77SLPC   H6S 6984   6.238   2.394   7.326  2.3599 -0.1144  0.4079
   77SLPC   C27 6985   6.340   2.211   7.326  0.0316  0.2444  0.4865
   77SLPC   H7R 6986   6.442   2.252   7.341  0.0207  0.6179 -0.4020
   77SLPC   H7S 6987   6.339   2.113   7.273  0.1525  1.6721 -2.2947
   77SLPC   C28 6988   6.285   2.160   7.463 -0.2050  0.2726 -0.2605
   77SLPC   H8R 6989   6.338   2.064   7.482  1.6248  1.4955  1.1853
   77SLPC   H8S 6990   6.175   2.143   7.454  0.0269 -0.2749 -2.7326
   77SLPC   C29 6991   6.306   2.256   7.574 -0.9343 -0.5494  0.7604
   77SLPC   H9R 6992   6.350   2.352   7.544  1.1600 -1.6455  0.1483
   77SLPC  C210 6993   6.292   2.234   7.703 -0.0544  0.0474  0.5255
   77SLPC  H10R 6994   6.322   2.318   7.768  2.1784 -0.7654  0.6342
   77SLPC  C211 6995   6.239   2.114   7.773  0.8451  0.9873  0.1946
   77SLPC  H11R 6996   6.175   2.051   7.707 -0.1531  0.5685  1.5067
   77SLPC  H11S 6997   6.174   2.143   7.858  0.3943 -0.6821  0.4563
   77SLPC  C212 6998   6.356   2.033   7.834  0.0286 -0.2845 -0.3560
   77SLPC  H12R 6999   6.431   1.998   7.761 -0.5623 -0.1835 -1.0313
   77SLPC  C213 7000   6.393   2.030   7.965 -0.1648  0.3988 -0.5246
   77SLPC  H13R 7001   6.481   1.966   7.982 -0.0997  0.7785  0.6102
   77SLPC  C214 7002   6.308   2.080   8.082  0.0952 -0.7578  0.5882
   77SLPC  H14R 7003   6.207   2.119   8.056 -0.3399 -1.8517  0.6103
   77SLPC  H14S 7004   6.350   2.167   8.137 -1.3097  0.0472  0.4546
   77SLPC  C215 7005   6.279   1.985   8.204  0.2428  0.2141  0.0405
   77SLPC  H15R 7006   6.238   1.887   8.171 -2.3230  1.1783  0.1474
   77SLPC  H15S 7007   6.209   2.034   8.275  0.8736 -1.8333  2.2058
   77SLPC  C216 7008   6.407   1.941   8.270 -1.1091  0.0678 -0.0727
   77SLPC  H16R 7009   6.458   2.028   8.317 -0.4454  1.1230 -2.5796
   77SLPC  H16S 7010   6.480   1.904   8.194 -0.5014 -0.4403  0.7422
   77SLPC  C217 7011   6.383   1.829   8.371 -0.1834  0.1647  0.6710
   77SLPC  H17R 7012   6.320   1.751   8.325  1.0270 -0.7723  0.5535
   77SLPC  H17S 7013   6.338   1.874   8.462  0.3314  1.3826  0.3583
   77SLPC  C218 7014   6.511   1.766   8.420 -0.0712  0.4183 -0.0344
   77SLPC  H18R 7015   6.555   1.704   8.339 -0.8264 -1.3851  0.8919
   77SLPC  H18S 7016   6.494   1.705   8.511 -0.3410 -1.2115 -1.1364
   77SLPC  H18T 7017   6.577   1.851   8.446  1.8323 -1.6701  2.4481
   77SLPC   C33 7018   6.315   3.214   6.921 -0.2082  0.1549  0.0064
   77SLPC   H3X 7019   6.299   3.265   6.823  1.1858  2.4778  0.9265
   77SLPC   H3Y 7020   6.423   3.233   6.935 -0.0927 -1.3620  1.4283
   77SLPC   C34 7021   6.204   3.286   7.009 -0.3159  0.9161 -0.4466
   77SLPC   H4X 7022   6.105   3.239   6.989  0.2320 -1.3415  1.6340
   77SLPC   H4Y 7023   6.207   3.393   6.979  2.3276  0.9247 -0.3492
   77SLPC   C35 7024   6.236   3.265   7.159 -0.9413  0.1406  0.4311
   77SLPC   H5X 7025   6.251   3.155   7.170 -0.8831  0.1295  0.2428
   77SLPC   H5Y 7026   6.152   3.303   7.221 -0.5755 -0.0416  1.0470
   77SLPC   C36 7027   6.367   3.332   7.210  0.5102 -0.8489 -0.3925
   77SLPC   H6X 7028   6.445   3.315   7.132 -1.1604 -0.4173 -2.2169
   77SLPC   H6Y 7029   6.386   3.293   7.313 -1.0538 -0.5634  0.0230
   77SLPC   C37 7030   6.369   3.487   7.226  0.2111 -0.4077 -0.2003
   77SLPC   H7X 7031   6.295   3.512   7.305 -0.7482 -0.5073 -1.0452
   77SLPC   H7Y 7032   6.345   3.540   7.131 -0.4601  1.8745  1.1715
   77SLPC   C38 7033   6.506   3.546   7.276  0.0876 -0.5945  0.1434
   77SLPC   H8X 7034   6.488   3.652   7.305 -1.2609 -0.9046  0.4776
   77SLPC   H8Y 7035   6.569   3.547   7.185 -0.8092 -0.5649 -0.4897
   77SLPC   C39 7036   6.580   3.478   7.394 -0.6720 -0.9080 -0.0156
   77SLPC   H9X 7037   6.679   3.527   7.407 -1.3642  0.3509  0.7813
   77SLPC   H9Y 7038   6.608   3.373   7.374  1.4036 -0.8641  2.2251
   77SLPC  C310 7039   6.504   3.492   7.524 -0.2413 -0.9479 -0.7234
   77SLPC  H10X 7040   6.414   3.428   7.533 -1.6554  1.0740  0.5061
   77SLPC  H10Y 7041   6.458   3.593   7.523 -0.2525 -0.9555 -1.3438
   77SLPC  C311 7042   6.571   3.452   7.656  0.1621 -0.7129 -0.3424
   77SLPC  H11X 7043   6.656   3.522   7.673  1.0662 -2.0781  1.0601
   77SLPC  H11Y 7044   6.617   3.352   7.642  1.5723  0.0120 -1.1332
   77SLPC  C312 7045   6.478   3.461   7.780 -0.1239  0.0921  0.0142
   77SLPC  H12X 7046   6.389   3.396   7.767  0.1526 -0.3682  0.3899
   77SLPC  H12Y 7047   6.446   3.567   7.790  1.1613  0.4326  0.6729
   77SLPC  C313 7048   6.553   3.428   7.910  0.4100  0.0786 -0.5516
   77SLPC  H13X 7049   6.631   3.506   7.927  1.2927 -0.7478 -0.6910
   77SLPC  H13Y 7050   6.598   3.333   7.874  0.6077 -1.1643  2.6326
   77SLPC  C314 7051   6.461   3.419   8.029 -0.8967 -0.0418 -0.3517
   77SLPC  H14X 7052   6.394   3.331   8.022 -0.4343 -0.5027  0.8637
   77SLPC  H14Y 7053   6.397   3.510   8.040  1.2248  1.3668  1.1689
   77SLPC  C315 7054   6.544   3.402   8.160  0.5783 -0.4734  0.1232
   77SLPC  H15X 7055   6.509   3.457   8.250 -0.6810 -3.4671  1.6164
   77SLPC  H15Y 7056   6.649   3.431   8.142  0.2071  0.1987 -1.0774
   77SLPC  C316 7057   6.528   3.255   8.215  0.5083 -0.4477 -0.7721
   77SLPC  H16X 7058   6.420   3.236   8.228  1.0578 -2.2626  1.9342
   77SLPC  H16Y 7059   6.573   3.250   8.316 -0.5028 -1.6772 -0.3542
   77SLPC  C317 7060   6.587   3.147   8.126  0.3140  1.0697 -0.1977
   77SLPC  H17X 7061   6.695   3.172   8.125  0.8126 -0.8532 -1.9377
   77SLPC  H17Y 7062   6.542   3.151   8.024 -0.5123 -0.1495  0.0986
   77SLPC  C318 7063   6.570   3.005   8.189 -0.0224  0.0115 -0.1027
   77SLPC  H18X 7064   6.656   2.940   8.162  0.7160  0.3362  1.3437
   77SLPC  H18Y 7065   6.475   2.960   8.154 -0.9323  2.2071 -0.5947
   77SLPC  H18Z 7066   6.572   3.023   8.299 -1.5510  1.9734 -0.3448
   78SLPC     N 7067   0.292   3.103   5.921  0.3183  0.2469  0.2328
   78SLPC   C13 7068   0.298   3.253   5.907  1.2054  0.9138  0.1106
   78SLPC  H13A 7069   0.268   3.269   5.805  2.0661 -0.2623 -0.3529
   78SLPC  H13B 7070   0.228   3.304   5.972  2.4486  1.9954  0.6691
   78SLPC  H13C 7071   0.399   3.291   5.920  1.8160  0.1245 -2.0286
   78SLPC   C14 7072   0.405   3.031   5.849 -0.0167  0.4017  0.4787
   78SLPC  H14A 7073   0.406   2.929   5.884 -1.9156  0.4896  0.9106
   78SLPC  H14B 7074   0.368   3.021   5.747 -3.4235 -0.5157  1.6718
   78SLPC  H14C 7075   0.499   3.080   5.868  1.3783 -1.9938  0.0694
   78SLPC   C15 7076   0.158   3.068   5.859  0.1858  0.1379  1.0793
   78SLPC  H15A 7077   0.143   2.961   5.854 -0.1809  0.0992  2.5192
   78SLPC  H15B 7078   0.081   3.117   5.917 -1.4337 -1.0153 -0.0173
   78SLPC  H15C 7079   0.158   3.104   5.757  3.9431 -1.1641  0.4611
   78SLPC   C12 7080   0.295   3.068   6.067 -0.2999 -0.6724 -0.3143
   78SLPC  H12A 7081   0.220   3.126   6.120  0.7963  0.2513  0.2892
   78SLPC  H12B 7082   0.382   3.114   6.110  0.1792 -0.7260 -1.2091
   78SLPC   C11 7083   0.299   2.920   6.120 -0.7607 -0.4809  0.2068
   78SLPC  H11A 7084   0.218   2.872   6.060 -1.3879 -0.0431  0.6890
   78SLPC  H11B 7085   0.276   2.918   6.229 -0.1775  1.0374  0.3848
   78SLPC     P 7086   0.557   2.892   6.188 -0.7228  0.0543  0.7928
   78SLPC   O13 7087   0.660   2.822   6.110  0.3812 -0.2739  0.2642
   78SLPC   O14 7088   0.569   3.037   6.224 -0.0477  0.1945 -0.5902
   78SLPC   O12 7089   0.431   2.869   6.095  0.3491  0.3271  0.0319
   78SLPC   O11 7090   0.508   2.803   6.305  0.1770  0.0102  0.0953
   78SLPC    C1 7091   0.431   2.682   6.289 -0.5067 -0.4054  0.2517
   78SLPC    HA 7092   0.324   2.697   6.264 -0.7359 -0.7983  0.9743
   78SLPC    HB 7093   0.474   2.621   6.206  2.4626  1.0533  0.5734
   78SLPC    C2 7094   0.434   2.605   6.424  0.2282  0.1990  0.5416
   78SLPC    HS 7095   0.363   2.519   6.420  0.0672  0.3659 -0.4212
   78SLPC   O21 7096   0.402   2.684   6.541 -0.2283 -0.4202  0.5145
   78SLPC   C21 7097   0.273   2.697   6.562  1.1492  0.5502  0.4836
   78SLPC   O22 7098   0.180   2.656   6.491 -0.2710  0.4600 -0.0154
   78SLPC   C22 7099   0.244   2.748   6.706 -0.1237  0.0082  0.7320
   78SLPC   H2R 7100   0.285   2.676   6.780  1.8957  0.9298  0.5623
   78SLPC   H2S 7101   0.289   2.846   6.730  2.1517 -0.9364  0.5245
   78SLPC    C3 7102   0.580   2.546   6.451 -0.4337  0.6133  0.1996
   78SLPC    HX 7103   0.654   2.628   6.460  0.7573 -0.5112  0.9910
   78SLPC    HY 7104   0.606   2.494   6.356 -2.0194  1.0804 -0.5363
   78SLPC   O31 7105   0.581   2.459   6.572  0.6504 -0.0752  0.5634
   78SLPC   C31 7106   0.696   2.407   6.609 -0.6084  0.6874 -0.2978
   78SLPC   O32 7107   0.804   2.448   6.574  0.4131 -0.4352  0.2841
   78SLPC   C32 7108   0.678   2.288   6.698  0.1942  0.3431 -0.0246
   78SLPC   H2X 7109   0.622   2.209   6.643  0.7666  0.9435 -1.5379
   78SLPC   H2Y 7110   0.627   2.322   6.791 -2.5202 -0.0767 -1.2530
   78SLPC   C23 7111   0.091   2.750   6.740 -0.1858 -0.4225 -0.3851
   78SLPC   H3R 7112   0.053   2.646   6.730 -0.8700 -0.4083  1.6775
   78SLPC   H3S 7113   0.047   2.829   6.676  1.0437  3.3257  2.9933
   78SLPC   C24 7114   0.075   2.796   6.885  0.2596 -0.3645  0.1068
   78SLPC   H4R 7115   0.104   2.904   6.888 -1.7036  0.1933  0.4033
   78SLPC   H4S 7116   0.146   2.742   6.951  1.9088  1.2476 -0.2359
   78SLPC   C25 7117  -0.076   2.785   6.934  0.2600  0.3215  0.1709
   78SLPC   H5R 7118  -0.104   2.681   6.959 -1.8653  1.0150  0.8652
   78SLPC   H5S 7119  -0.128   2.821   6.843  1.4681  2.7899  0.3701
   78SLPC   C26 7120  -0.104   2.882   7.059 -0.1970  0.5218 -0.4070
   78SLPC   H6R 7121  -0.207   2.908   7.090 -0.0392 -0.6152  1.1886
   78SLPC   H6S 7122  -0.053   2.979   7.043  1.7243 -0.1475  1.2415
   78SLPC   C27 7123  -0.044   2.828   7.186 -0.0589  0.1989  0.0289
   78SLPC   H7R 7124   0.052   2.777   7.164 -0.9464 -1.3182 -0.4601
   78SLPC   H7S 7125  -0.108   2.752   7.236  0.0125 -0.8293 -1.4017
   78SLPC   C28 7126  -0.010   2.939   7.294 -0.8340  0.8180 -0.5415
   78SLPC   H8R 7127   0.079   2.993   7.254  0.3608 -1.0162 -0.4657
   78SLPC   H8S 7128   0.021   2.877   7.381  2.6961  0.7813 -1.6322
   78SLPC   C29 7129  -0.131   3.027   7.316 -0.4583 -0.9989 -0.5787
   78SLPC   H9R 7130  -0.156   3.082   7.225 -2.4413  0.3351  0.6854
   78SLPC  C210 7131  -0.205   3.040   7.432 -0.0151 -0.2722  1.3822
   78SLPC  H10R 7132  -0.280   3.121   7.432  0.2970  0.0749 -0.9214
   78SLPC  C211 7133  -0.175   2.961   7.556  0.3784 -0.1116 -0.8714
   78SLPC  H11R 7134  -0.066   2.946   7.571  0.2547  0.2516  0.4539
   78SLPC  H11S 7135  -0.238   2.869   7.563 -0.4038  0.5541  1.8623
   78SLPC  C212 7136  -0.220   3.054   7.663  0.0020  0.1877  0.1757
   78SLPC  H12R 7137  -0.146   3.133   7.685  0.1731 -0.3040  1.4837
   78SLPC  C213 7138  -0.333   3.066   7.731  0.4805  0.2601 -0.1267
   78SLPC  H13R 7139  -0.339   3.143   7.809 -0.9038  0.4136 -0.3621
   78SLPC  C214 7140  -0.458   2.988   7.713  0.1928 -1.0424  0.1330
   78SLPC  H14R 7141  -0.477   2.939   7.811 -3.5127  2.1814  1.2728
   78SLPC  H14S 7142  -0.444   2.906   7.640  1.8363 -1.5666  0.9857
   78SLPC  C215 7143  -0.582   3.065   7.696  0.2685 -1.0225  0.2151
   78SLPC  H15R 7144  -0.597   3.139   7.777 -1.7532  0.4464 -1.3838
   78SLPC  H15S 7145  -0.677   3.007   7.688 -0.3751  0.1734 -1.6155
   78SLPC  C216 7146  -0.576   3.153   7.565 -0.3162  0.5158 -0.4188
   78SLPC  H16R 7147  -0.547   3.097   7.474  1.6848  0.4383  0.2052
   78SLPC  H16S 7148  -0.486   3.217   7.581  0.6446 -0.2955 -2.2101
   78SLPC  C217 7149  -0.704   3.240   7.543  0.4965  0.2021  0.0288
   78SLPC  H17R 7150  -0.674   3.320   7.472 -1.4737 -0.3488 -1.5251
   78SLPC  H17S 7151  -0.732   3.292   7.637  1.9228  0.9341  0.0806
   78SLPC  C218 7152  -0.825   3.165   7.486  0.8159  0.4411 -0.2969
   78SLPC  H18R 7153  -0.871   3.091   7.555  1.1519 -1.0424 -1.6022
   78SLPC  H18S 7154  -0.805   3.120   7.386  1.1565  0.1812 -0.1158
   78SLPC  H18T 7155  -0.904   3.243   7.482  1.6662  1.2884 -1.1753
   78SLPC   C33 7156   0.818   2.222   6.737 -0.3272 -0.6323 -0.6216
   78SLPC   H3X 7157   0.896   2.294   6.770 -1.2310  0.8818 -1.6665
   78SLPC   H3Y 7158   0.857   2.167   6.648 -0.5905 -2.5760  0.4010
   78SLPC   C34 7159   0.804   2.119   6.852 -0.0312  0.5921 -0.8762
   78SLPC   H4X 7160   0.903   2.071   6.863 -0.5855 -0.8254 -1.6994
   78SLPC   H4Y 7161   0.734   2.035   6.832  0.7697  0.0134 -1.3158
   78SLPC   C35 7162   0.755   2.173   6.989  0.5215  0.2604  0.0074
   78SLPC   H5X 7163   0.659   2.228   6.976  1.9533  2.7587 -0.7410
   78SLPC   H5Y 7164   0.817   2.263   7.012 -0.1455  0.3821  1.4406
   78SLPC   C36 7165   0.750   2.084   7.110 -0.2987 -0.4050 -0.2974
   78SLPC   H6X 7166   0.857   2.053   7.121  0.4895  2.4756  1.1144
   78SLPC   H6Y 7167   0.700   1.986   7.094  1.8545 -1.4281 -1.2489
   78SLPC   C37 7168   0.706   2.159   7.244  0.1893 -0.2795  0.0097
   78SLPC   H7X 7169   0.604   2.199   7.231 -0.5657 -0.6608  3.6138
   78SLPC   H7Y 7170   0.768   2.250   7.258 -0.4078 -0.0611  1.3776
   78SLPC   C38 7171   0.719   2.063   7.358  0.0285 -0.0644 -0.2621
   78SLPC   H8X 7172   0.824   2.026   7.367  0.0096  0.0892  0.8222
   78SLPC   H8Y 7173   0.653   1.975   7.344 -2.2534  0.9975  2.6700
   78SLPC   C39 7174   0.699   2.127   7.496 -0.6276  0.2785  0.5670
   78SLPC   H9X 7175   0.591   2.148   7.511 -0.8946 -1.3721  1.0791
   78SLPC   H9Y 7176   0.766   2.216   7.497 -0.2120 -0.0196 -0.4530
   78SLPC  C310 7177   0.754   2.038   7.608 -0.5203 -0.2754  0.1907
   78SLPC  H10X 7178   0.847   1.986   7.578  0.8801  1.4453  1.2981
   78SLPC  H10Y 7179   0.684   1.954   7.623  0.1623 -0.9187 -0.1834
   78SLPC  C311 7180   0.778   2.104   7.747  0.3597 -0.1267  0.1024
   78SLPC  H11X 7181   0.680   2.140   7.786  0.3172  1.3827 -1.2789
   78SLPC  H11Y 7182   0.851   2.187   7.736 -0.4229  0.7136  1.1103
   78SLPC  C312 7183   0.834   1.998   7.850 -0.1528  0.1623 -0.5808
   78SLPC  H12X 7184   0.897   1.928   7.792  0.4164 -1.1138  1.4854
   78SLPC  H12Y 7185   0.753   1.932   7.885  0.1239 -2.2532 -3.9830
   78SLPC  C313 7186   0.902   2.072   7.965 -0.4022 -0.5351 -0.0968
   78SLPC  H13X 7187   0.824   2.141   8.003  0.6216  1.1663 -0.9817
   78SLPC  H13Y 7188   0.984   2.132   7.921 -0.8878 -0.3903 -0.8075
   78SLPC  C314 7189   0.970   1.986   8.077 -0.5428 -0.2979  0.1438
   78SLPC  H14X 7190   1.026   2.055   8.143  2.3633 -2.7813  0.4829
   78SLPC  H14Y 7191   1.044   1.926   8.018 -0.5144 -0.2518  0.1328
   78SLPC  C315 7192   0.871   1.896   8.157  0.1860 -0.0926 -0.0530
   78SLPC  H15X 7193   0.797   1.843   8.093  1.0741 -1.0592 -0.3169
   78SLPC  H15Y 7194   0.822   1.966   8.229 -0.2018  2.5381 -2.6712
   78SLPC  C316 7195   0.939   1.785   8.240  0.1225  0.8252  0.2183
   78SLPC  H16X 7196   1.030   1.814   8.298  0.1866 -1.4027  1.3470
   78SLPC  H16Y 7197   0.982   1.710   8.170  1.2069  0.2699  1.4243
   78SLPC  C317 7198   0.851   1.710   8.342 -0.0300  0.2066 -0.0990
   78SLPC  H17X 7199   0.770   1.663   8.282 -2.0878  0.3500  2.3882
   78SLPC  H17Y 7200   0.807   1.774   8.421  0.2669 -0.7177  0.8487
   78SLPC  C318 7201   0.908   1.581   8.404 -0.1133 -0.3197 -0.1328
   78SLPC  H18X 7202   0.987   1.599   8.480  1.0021 -1.1646 -1.0532
   78SLPC  H18Y 7203   0.947   1.511   8.326  0.2403  0.3338 -0.5573
   78SLPC  H18Z 7204   0.829   1.525   8.458  1.7024 -1.6761  1.2676
   79SLPC     N 7205   5.045   4.619   6.339 -0.6955 -0.0318  0.2405
   79SLPC   C13 7206   4.929   4.556   6.410  0.6080  0.0152 -0.1824
   79SLPC  H13A 7207   4.862   4.501   6.346 -0.4063  0.6259  0.3379
   79SLPC  H13B 7208   4.967   4.477   6.474  1.7924  0.3818 -0.3955
   79SLPC  H13C 7209   4.872   4.633   6.458  0.0185 -0.3158 -0.3466
   79SLPC   C14 7210   5.002   4.724   6.238  0.1391 -0.1375  0.0132
   79SLPC  H14A 7211   4.944   4.807   6.277 -0.9966 -0.0719 -1.6977
   79SLPC  H14B 7212   5.082   4.778   6.190  0.5490 -3.0289 -2.8963
   79SLPC  H14C 7213   4.945   4.671   6.163 -0.4379  0.7147 -0.1635
   79SLPC   C15 7214   5.116   4.514   6.261 -0.2140 -0.1443  0.2332
   79SLPC  H15A 7215   5.198   4.553   6.201  0.3399  0.3357  1.2762
   79SLPC  H15B 7216   5.169   4.449   6.329 -0.3901  0.0083  0.5188
   79SLPC  H15C 7217   5.054   4.446   6.205 -0.2215  1.1574 -1.4377
   79SLPC   C12 7218   5.134   4.687   6.442 -0.8153 -0.2769  0.6015
   79SLPC  H12A 7219   5.235   4.695   6.403 -1.5765  0.1325 -1.4225
   79SLPC  H12B 7220   5.143   4.622   6.527  1.0219  0.2662  0.8712
   79SLPC   C11 7221   5.074   4.821   6.490  0.3938  0.1348  0.9886
   79SLPC  H11A 7222   5.069   4.895   6.408 -1.2774 -0.6885  0.3182
   79SLPC  H11B 7223   5.142   4.869   6.565  0.2812 -0.1367  1.2671
   79SLPC     P 7224   4.834   4.911   6.543 -0.0289  0.3684  0.3763
   79SLPC   O13 7225   4.867   5.019   6.451 -0.4511  0.4584 -0.0736
   79SLPC   O14 7226   4.709   4.839   6.512  0.0337  0.2845  0.6102
   79SLPC   O12 7227   4.947   4.801   6.553 -0.0603 -0.4545 -0.0964
   79SLPC   O11 7228   4.821   4.966   6.692 -0.1435 -0.3685  0.3788
   79SLPC    C1 7229   4.940   5.014   6.749  0.1302 -0.6740 -0.5987
   79SLPC    HA 7230   5.014   5.057   6.679 -0.8642  2.2454  0.0100
   79SLPC    HB 7231   4.908   5.097   6.815 -0.5386 -2.1882  1.0631
   79SLPC    C2 7232   5.000   4.912   6.850  0.3569 -0.6281 -0.0661
   79SLPC    HS 7233   4.978   4.811   6.808 -0.5400  0.3811 -2.1884
   79SLPC   O21 7234   4.934   4.945   6.980  0.0195  0.3963  0.0759
   79SLPC   C21 7235   4.840   4.862   7.011 -0.3923  0.5473 -0.4302
   79SLPC   O22 7236   4.816   4.759   6.952 -0.0336  0.6448  0.0272
   79SLPC   C22 7237   4.762   4.923   7.129  0.3357 -0.5814  0.3617
   79SLPC   H2R 7238   4.710   5.012   7.088 -1.2132 -0.6815  2.0122
   79SLPC   H2S 7239   4.682   4.850   7.152 -2.2804  1.6208 -1.2379
   79SLPC    C3 7240   5.160   4.926   6.865 -0.7092  0.1365  0.6910
   79SLPC    HX 7241   5.173   5.031   6.897 -0.0860  0.0950  0.5973
   79SLPC    HY 7242   5.214   4.913   6.769  0.1182  1.3860  0.9632
   79SLPC   O31 7243   5.226   4.837   6.961  0.0459 -0.1464 -0.4063
   79SLPC   C31 7244   5.223   4.703   6.933  0.5729 -0.1907  0.2448
   79SLPC   O32 7245   5.185   4.662   6.824  0.3335 -0.3328  0.0726
   79SLPC   C32 7246   5.267   4.619   7.053 -0.0938 -1.3965  0.7118
   79SLPC   H2X 7247   5.369   4.580   7.034 -0.0440 -1.6115  1.4087
   79SLPC   H2Y 7248   5.208   4.525   7.052 -0.0168 -1.5790 -3.0944
   79SLPC   C23 7249   4.842   4.954   7.258  0.4850 -0.3211  0.0004
   79SLPC   H3R 7250   4.786   5.025   7.323  2.1953 -0.6217  1.9143
   79SLPC   H3S 7251   4.939   5.006   7.242 -0.2846  0.7396 -1.4874
   79SLPC   C24 7252   4.863   4.836   7.351  0.0075 -0.1901 -0.1983
   79SLPC   H4R 7253   4.945   4.867   7.420 -0.4892  2.7508 -0.7667
   79SLPC   H4S 7254   4.903   4.751   7.292 -0.2419 -0.8866  0.6258
   79SLPC   C25 7255   4.729   4.814   7.429  0.5902 -0.4108 -0.0041
   79SLPC   H5R 7256   4.647   4.786   7.360 -0.0512 -0.6213  0.8298
   79SLPC   H5S 7257   4.700   4.915   7.466 -0.7090  0.5560 -3.2639
   79SLPC   C26 7258   4.727   4.701   7.530 -0.2443  0.2896 -0.2439
   79SLPC   H6R 7259   4.625   4.705   7.573 -0.9644  0.2542 -1.8803
   79SLPC   H6S 7260   4.801   4.714   7.612 -0.1645  0.5674 -0.3601
   79SLPC   C27 7261   4.764   4.566   7.466 -0.3091  0.1295 -0.1719
   79SLPC   H7R 7262   4.872   4.567   7.441 -0.8935  1.3317 -2.9837
   79SLPC   H7S 7263   4.724   4.551   7.363 -0.9542  0.4169  0.0312
   79SLPC   C28 7264   4.713   4.451   7.542 -0.1097 -0.0659 -0.2957
   79SLPC   H8R 7265   4.761   4.365   7.491  0.4675 -0.7646  1.3537
   79SLPC   H8S 7266   4.604   4.441   7.522 -0.3480  1.1409  0.2785
   79SLPC   C29 7267   4.738   4.461   7.694 -0.3260 -0.0870  0.4225
   79SLPC   H9R 7268   4.690   4.550   7.737  1.9939  0.7806  1.3630
   79SLPC  C210 7269   4.815   4.394   7.776 -0.0536  0.3890 -0.5937
   79SLPC  H10R 7270   4.805   4.409   7.884 -1.6836  0.4044 -0.7309
   79SLPC  C211 7271   4.889   4.267   7.747 -0.1735  0.5280  0.0817
   79SLPC  H11R 7272   4.963   4.295   7.669 -0.3587 -1.6311 -0.9231
   79SLPC  H11S 7273   4.825   4.198   7.688  1.3391  0.1599 -1.1892
   79SLPC  C212 7274   4.959   4.183   7.849  0.1944 -0.6464 -0.4250
   79SLPC  H12R 7275   5.066   4.205   7.865 -0.0627  1.4042 -1.2376
   79SLPC  C213 7276   4.893   4.109   7.944 -0.0254  0.6731 -0.3505
   79SLPC  H13R 7277   4.952   4.061   8.024 -1.2874  0.8946  0.7560
   79SLPC  C214 7278   4.740   4.089   7.963  0.0916 -0.0011  0.5342
   79SLPC  H14R 7279   4.684   4.130   7.876 -2.8077 -2.2038  1.1865
   79SLPC  H14S 7280   4.702   4.145   8.051  2.9440  0.8376  1.3387
   79SLPC  C215 7281   4.705   3.945   7.977  0.2074 -0.3180  0.4808
   79SLPC  H15R 7282   4.772   3.882   7.913  0.2491 -0.1327  0.3426
   79SLPC  H15S 7283   4.600   3.934   7.944  0.3454 -1.2832  0.3142
   79SLPC  C216 7284   4.741   3.900   8.120  0.1411 -0.1474 -0.1309
   79SLPC  H16R 7285   4.837   3.940   8.159  0.7128 -0.8423 -0.7870
   79SLPC  H16S 7286   4.744   3.789   8.123  0.3182 -0.1256  0.8634
   79SLPC  C217 7287   4.637   3.928   8.232 -0.8797  0.0231 -0.0688
   79SLPC  H17R 7288   4.559   3.851   8.220  0.8897 -2.0724  1.2156
   79SLPC  H17S 7289   4.615   4.037   8.231 -0.6145  0.0850  0.4711
   79SLPC  C218 7290   4.705   3.907   8.371  0.3812 -0.7932 -0.9004
   79SLPC  H18R 7291   4.640   3.935   8.456  1.8244  0.2330 -0.0789
   79SLPC  H18S 7292   4.802   3.962   8.372 -0.5747  0.9424  0.7543
   79SLPC  H18T 7293   4.739   3.802   8.385  3.1162  0.0393 -0.6279
   79SLPC   C33 7294   5.248   4.697   7.184 -0.3428  0.4225 -0.6509
   79SLPC   H3X 7295   5.161   4.765   7.182 -0.4600  0.2738 -0.6383
   79SLPC   H3Y 7296   5.338   4.754   7.216  0.5226 -1.6086  0.7938
   79SLPC   C34 7297   5.233   4.594   7.297  0.0663 -0.3105  0.5145
   79SLPC   H4X 7298   5.320   4.525   7.297  0.4442  0.1636  0.0178
   79SLPC   H4Y 7299   5.149   4.522   7.287 -0.1974 -0.1322  1.3940
   79SLPC   C35 7300   5.220   4.663   7.429  0.4375  0.8544  0.1686
   79SLPC   H5X 7301   5.125   4.719   7.427  0.9395  1.7440  0.6000
   79SLPC   H5Y 7302   5.304   4.736   7.428  0.9266  0.3417 -1.8788
   79SLPC   C36 7303   5.223   4.568   7.553 -0.3090 -0.0729 -0.8916
   79SLPC   H6X 7304   5.324   4.550   7.594 -0.8901  0.1025  0.6903
   79SLPC   H6Y 7305   5.177   4.470   7.526  2.4454 -1.0449 -2.5234
   79SLPC   C37 7306   5.137   4.634   7.661 -0.0052  0.6325 -0.5732
   79SLPC   H7X 7307   5.028   4.618   7.648 -0.2584  1.0124  0.8812
   79SLPC   H7Y 7308   5.147   4.744   7.645  0.7849  0.6030 -0.3113
   79SLPC   C38 7309   5.162   4.583   7.805 -0.5608 -0.5161 -0.0750
   79SLPC   H8X 7310   5.265   4.592   7.844 -1.0899 -1.0015  1.5310
   79SLPC   H8Y 7311   5.139   4.474   7.814 -1.8167 -0.2571  0.0771
   79SLPC   C39 7312   5.071   4.651   7.911 -0.0814 -0.2120 -0.1576
   79SLPC   H9X 7313   4.964   4.637   7.883  0.0594  1.9409 -2.0644
   79SLPC   H9Y 7314   5.094   4.759   7.901  2.8633 -0.9641 -3.1305
   79SLPC  C310 7315   5.087   4.599   8.058  0.2595 -0.4976 -0.1552
   79SLPC  H10X 7316   5.002   4.635   8.120 -1.1316 -1.8679 -1.1885
   79SLPC  H10Y 7317   5.184   4.634   8.099 -0.1696  1.5623 -0.7725
   79SLPC  C311 7318   5.082   4.445   8.082  1.0099  1.0138  0.4386
   79SLPC  H11X 7319   5.159   4.389   8.025  0.7732  0.0627  1.0403
   79SLPC  H11Y 7320   4.980   4.417   8.047  1.0371  3.1221 -1.6045
   79SLPC  C312 7321   5.090   4.405   8.227 -0.5297  0.7819  0.2418
   79SLPC  H12X 7322   4.997   4.430   8.282 -0.8929 -0.9719  0.4609
   79SLPC  H12Y 7323   5.177   4.450   8.281 -1.0695  0.0173  1.8217
   79SLPC  C313 7324   5.122   4.256   8.240  0.7890  0.3304 -0.0056
   79SLPC  H13X 7325   5.228   4.225   8.227  0.9096  0.9124 -0.4666
   79SLPC  H13Y 7326   5.056   4.210   8.164 -0.7071  0.2313  1.3115
   79SLPC  C314 7327   5.075   4.200   8.378 -0.3273 -0.2294  0.2333
   79SLPC  H14X 7328   5.107   4.094   8.392  0.1026 -0.2051 -0.4960
   79SLPC  H14Y 7329   4.964   4.200   8.376 -0.3829  2.1239  1.0492
   79SLPC  C315 7330   5.114   4.283   8.503 -0.3311  0.9891 -0.1586
   79SLPC  H15X 7331   5.029   4.328   8.558 -0.4029  0.6375  0.0197
   79SLPC  H15Y 7332   5.171   4.374   8.474  0.2566  0.6318 -0.1340
   79SLPC  C316 7333   5.194   4.193   8.594 -0.3158 -0.7585  0.3210
   79SLPC  H16X 7334   5.275   4.154   8.529  1.2025 -1.2600  2.4014
   79SLPC  H16Y 7335   5.143   4.107   8.643  0.7787  0.1652  3.2973
   79SLPC  C317 7336   5.265   4.271   8.714 -0.8262  0.0998  0.3773
   79SLPC  H17X 7337   5.196   4.353   8.742 -0.2533  0.4467  0.7706
   79SLPC  H17Y 7338   5.357   4.320   8.677 -0.3640 -0.2520  1.0540
   79SLPC  C318 7339   5.301   4.187   8.836 -0.2079  0.4386  0.2470
   79SLPC  H18X 7340   5.368   4.243   8.904  0.8933 -0.2523 -0.2544
   79SLPC  H18Y 7341   5.356   4.097   8.802 -3.1829 -1.2777 -0.4139
   79SLPC  H18Z 7342   5.215   4.153   8.897 -0.8512  2.9994  0.8577
   80SLPC     N 7343   5.853   4.471   6.096  0.3040  0.5925 -0.1674
   80SLPC   C13 7344   5.795   4.602   6.052 -0.4724 -0.0196 -0.0304
   80SLPC  H13A 7345   5.868   4.672   6.013 -0.8441  0.0624 -0.5916
   80SLPC  H13B 7346   5.734   4.591   5.963  0.9976  1.2882 -1.2754
   80SLPC  H13C 7347   5.740   4.653   6.130  0.5102 -0.1528  0.7645
   80SLPC   C14 7348   5.956   4.495   6.210  0.2388  1.0407  0.1049
   80SLPC  H14A 7349   5.963   4.401   6.262 -0.7380  1.4704  1.0501
   80SLPC  H14B 7350   6.046   4.533   6.162  0.5127 -1.7183 -1.7848
   80SLPC  H14C 7351   5.920   4.561   6.288 -2.4717 -1.7167  1.3992
   80SLPC   C15 7352   5.924   4.400   5.979  0.4486  0.0705 -0.3328
   80SLPC  H15A 7353   5.955   4.306   6.024 -1.1815 -0.4933 -0.3327
   80SLPC  H15B 7354   5.855   4.373   5.901 -1.5294  0.4369  1.2004
   80SLPC  H15C 7355   6.007   4.458   5.942  0.5556 -0.8310 -1.5735
   80SLPC   C12 7356   5.742   4.384   6.156 -0.2636 -0.7261 -0.4356
   80SLPC  H12A 7357   5.786   4.289   6.184  3.8587  1.0229 -0.2881
   80SLPC  H12B 7358   5.665   4.375   6.082 -1.2242 -1.2912  0.5944
   80SLPC   C11 7359   5.661   4.440   6.281 -0.2221 -0.0881 -0.1191
   80SLPC  H11A 7360   5.728   4.424   6.368  0.7560  0.3584 -0.7705
   80SLPC  H11B 7361   5.576   4.373   6.304  1.0718 -1.0187  2.3705
   80SLPC     P 7362   5.506   4.625   6.366 -0.1820 -0.3610 -0.1696
   80SLPC   O13 7363   5.400   4.676   6.279  0.6927  0.0066  0.3414
   80SLPC   O14 7364   5.467   4.519   6.463  0.0105  0.3527  0.2489
   80SLPC   O12 7365   5.615   4.577   6.268 -0.4373 -0.6114 -0.1157
   80SLPC   O11 7366   5.574   4.745   6.441 -0.0015  0.4110  0.1969
   80SLPC    C1 7367   5.704   4.784   6.428 -0.1545 -0.4499  0.4543
   80SLPC    HA 7368   5.741   4.774   6.324 -0.6675 -3.2147  0.4778
   80SLPC    HB 7369   5.703   4.895   6.437 -1.0683 -0.3220 -0.8565
   80SLPC    C2 7370   5.803   4.718   6.521 -0.5214  0.0898 -0.8762
   80SLPC    HS 7371   5.786   4.609   6.508  0.7501 -0.0718 -1.3814
   80SLPC   O21 7372   5.782   4.780   6.651  0.2541  0.0807 -0.0700
   80SLPC   C21 7373   5.791   4.692   6.751  0.0047 -0.4537  0.4008
   80SLPC   O22 7374   5.841   4.582   6.742  0.0602 -0.0093  0.1329
   80SLPC   C22 7375   5.748   4.759   6.881  0.5384  0.4857 -0.0422
   80SLPC   H2R 7376   5.802   4.856   6.885  0.0696  0.7411  3.4029
   80SLPC   H2S 7377   5.637   4.763   6.870  0.0609 -3.8792  1.2709
   80SLPC    C3 7378   5.950   4.753   6.479 -0.9884 -0.3946 -0.1670
   80SLPC    HX 7379   5.953   4.864   6.469 -2.9653 -0.3268 -0.3948
   80SLPC    HY 7380   5.976   4.708   6.381 -0.0486 -0.7596  0.2456
   80SLPC   O31 7381   6.053   4.713   6.575  0.2185 -0.0585  0.6374
   80SLPC   C31 7382   6.113   4.594   6.552  0.6642 -0.5540  0.3011
   80SLPC   O32 7383   6.081   4.514   6.466 -0.4187 -0.6036 -0.4121
   80SLPC   C32 7384   6.244   4.578   6.646 -0.4152  0.2461 -0.4063
   80SLPC   H2X 7385   6.323   4.556   6.571 -2.2403  0.5017 -2.5401
   80SLPC   H2Y 7386   6.241   4.492   6.716  0.7411  1.7697  1.6103
   80SLPC   C23 7387   5.780   4.674   7.004 -0.5377 -0.7039 -0.4181
   80SLPC   H3R 7388   5.887   4.644   7.007 -0.4945 -0.4790  1.3768
   80SLPC   H3S 7389   5.718   4.582   7.008  1.3250 -1.9759  1.7999
   80SLPC   C24 7390   5.746   4.750   7.133  0.3737 -0.4979 -1.3915
   80SLPC   H4R 7391   5.635   4.756   7.133  0.3601 -0.3916  0.1569
   80SLPC   H4S 7392   5.802   4.846   7.135  0.9567 -0.8285  0.0406
   80SLPC   C25 7393   5.800   4.668   7.262 -0.3129  0.2315  0.9857
   80SLPC   H5R 7394   5.909   4.656   7.248 -0.1017  0.4662  2.3455
   80SLPC   H5S 7395   5.754   4.567   7.254  2.0619 -0.8995  0.7187
   80SLPC   C26 7396   5.783   4.742   7.389 -0.6072  0.1817  0.8300
   80SLPC   H6R 7397   5.689   4.801   7.384  0.8819  2.5524 -0.5443
   80SLPC   H6S 7398   5.862   4.819   7.396 -0.2551  0.3898 -3.1740
   80SLPC   C27 7399   5.786   4.645   7.508 -0.2274  0.0267 -0.5165
   80SLPC   H7R 7400   5.878   4.584   7.501  0.0524  0.2350  1.0572
   80SLPC   H7S 7401   5.705   4.570   7.498  2.8045 -3.4988 -0.5714
   80SLPC   C28 7402   5.762   4.719   7.643 -1.1014 -0.1868  0.6431
   80SLPC   H8R 7403   5.817   4.813   7.621  0.3756 -0.8251  1.4636
   80SLPC   H8S 7404   5.813   4.658   7.721 -1.3088 -1.1465  0.0330
   80SLPC   C29 7405   5.618   4.747   7.670  0.2930  0.1591  0.3778
   80SLPC   H9R 7406   5.564   4.762   7.575 -0.7293  0.1489  0.9328
   80SLPC  C210 7407   5.557   4.742   7.789  0.8607 -0.4853 -0.8889
   80SLPC  H10R 7408   5.454   4.779   7.800  1.4107  0.8481  0.1941
   80SLPC  C211 7409   5.628   4.710   7.918 -0.2399 -0.2438 -0.2520
   80SLPC  H11R 7410   5.692   4.791   7.957 -1.9631  1.2621 -0.4097
   80SLPC  H11S 7411   5.696   4.624   7.897 -0.6437 -0.2020 -1.9035
   80SLPC  C212 7412   5.531   4.669   8.027 -0.3762  0.3682 -0.5105
   80SLPC  H12R 7413   5.494   4.754   8.087 -1.4751 -1.2092  1.1729
   80SLPC  C213 7414   5.489   4.546   8.060 -0.0523  0.6526 -0.3397
   80SLPC  H13R 7415   5.421   4.540   8.146 -0.3311  1.1460 -0.5255
   80SLPC  C214 7416   5.541   4.417   8.001  0.4161  0.1941 -0.7305
   80SLPC  H14R 7417   5.652   4.428   8.005  0.3040  1.0553  1.9258
   80SLPC  H14S 7418   5.491   4.403   7.902 -0.6459 -1.1063 -0.0299
   80SLPC  C215 7419   5.499   4.294   8.074  1.2010  0.2316 -0.4419
   80SLPC  H15R 7420   5.521   4.201   8.018 -0.2027 -0.3594 -0.0602
   80SLPC  H15S 7421   5.388   4.291   8.076  1.2162 -1.9674 -0.5667
   80SLPC  C216 7422   5.553   4.262   8.214 -0.8150 -0.6642 -0.2124
   80SLPC  H16R 7423   5.502   4.327   8.288 -2.7159 -1.6757 -0.5797
   80SLPC  H16S 7424   5.663   4.278   8.221 -1.1371  1.5831  0.5055
   80SLPC  C217 7425   5.526   4.116   8.253 -0.3155 -0.2698  1.3721
   80SLPC  H17R 7426   5.592   4.058   8.186 -0.4434  0.1861  0.8485
   80SLPC  H17S 7427   5.425   4.084   8.219  1.0231 -1.9304 -1.3051
   80SLPC  C218 7428   5.553   4.090   8.400 -0.3578 -0.4899  0.4935
   80SLPC  H18R 7429   5.519   3.995   8.447  0.7916 -1.1624  0.0032
   80SLPC  H18S 7430   5.529   4.178   8.464  0.4560 -0.6035  0.9778
   80SLPC  H18T 7431   5.663   4.091   8.416 -0.4554 -1.3842  1.3314
   80SLPC   C33 7432   6.278   4.698   6.729  0.6688 -0.4910 -0.3719
   80SLPC   H3X 7433   6.291   4.800   6.687  1.1949 -0.5945 -0.4656
   80SLPC   H3Y 7434   6.382   4.679   6.765  1.2963  2.3607 -0.4190
   80SLPC   C34 7435   6.189   4.715   6.852  0.4810  0.0857 -0.2697
   80SLPC   H4X 7436   6.123   4.628   6.873 -0.8723  0.7376 -1.6252
   80SLPC   H4Y 7437   6.119   4.800   6.838  0.5264  0.3537  1.0588
   80SLPC   C35 7438   6.274   4.748   6.977  0.9161 -0.8414  0.1757
   80SLPC   H5X 7439   6.318   4.849   6.961 -0.8107  0.2738  1.8559
   80SLPC   H5Y 7440   6.350   4.668   6.992  0.4551 -1.4824 -0.8110
   80SLPC   C36 7441   6.182   4.749   7.105  0.4684 -0.1358  1.0900
   80SLPC   H6X 7442   6.117   4.659   7.090  0.7925 -0.1973  0.0028
   80SLPC   H6Y 7443   6.121   4.842   7.104  2.1279  0.9861  0.6239
   80SLPC   C37 7444   6.259   4.734   7.236  0.2990  0.6273  0.3763
   80SLPC   H7X 7445   6.339   4.812   7.238  2.8994 -1.7402 -1.9439
   80SLPC   H7Y 7446   6.309   4.636   7.221 -0.5190  0.3107 -0.3011
   80SLPC   C38 7447   6.163   4.715   7.357  0.1162  0.5332  0.1045
   80SLPC   H8X 7448   6.109   4.619   7.344  0.6659  0.4906 -2.3651
   80SLPC   H8Y 7449   6.092   4.799   7.342 -0.0700  0.0081 -2.4027
   80SLPC   C39 7450   6.232   4.689   7.499  0.6765 -0.3682  0.0439
   80SLPC   H9X 7451   6.318   4.760   7.496 -1.4363  2.4152  0.8981
   80SLPC   H9Y 7452   6.265   4.584   7.511  1.9940  0.2982  3.8195
   80SLPC  C310 7453   6.142   4.737   7.608  0.4140 -0.4262 -0.5526
   80SLPC  H10X 7454   6.038   4.701   7.593  1.0193 -1.8988 -1.4139
   80SLPC  H10Y 7455   6.142   4.848   7.615  0.6484 -0.5015  1.4547
   80SLPC  C311 7456   6.192   4.709   7.755 -0.3035 -0.1025 -0.0419
   80SLPC  H11X 7457   6.287   4.764   7.773  1.7024 -2.9449 -1.1912
   80SLPC  H11Y 7458   6.219   4.603   7.773 -1.1458 -0.6308 -1.7299
   80SLPC  C312 7459   6.076   4.747   7.852 -0.2285 -0.6717  0.0431
   80SLPC  H12X 7460   5.997   4.670   7.850  0.4377 -1.4551  1.8288
   80SLPC  H12Y 7461   6.023   4.844   7.840  0.6277  0.0669  1.7569
   80SLPC  C313 7462   6.126   4.753   7.999 -0.1669  0.1582  0.2454
   80SLPC  H13X 7463   6.195   4.667   8.010 -0.0691 -0.2676 -2.7954
   80SLPC  H13Y 7464   6.042   4.722   8.065  0.6709 -2.6838  0.1426
   80SLPC  C314 7465   6.170   4.886   8.054  0.2122 -0.0022  0.3413
   80SLPC  H14X 7466   6.253   4.925   7.991 -0.4480 -1.5370 -1.5694
   80SLPC  H14Y 7467   6.218   4.880   8.154 -1.4013  1.2570  1.2410
   80SLPC  C315 7468   6.049   4.976   8.087 -0.0893  0.4234  0.5847
   80SLPC  H15X 7469   5.973   4.905   8.127  0.8441 -0.4809  0.8131
   80SLPC  H15Y 7470   6.001   5.018   7.997 -0.3450 -0.8146  0.1232
   80SLPC  C316 7471   6.090   5.086   8.183 -0.1858  0.5582  0.2657
   80SLPC  H16X 7472   6.180   5.134   8.139 -0.5459  2.5010  1.5287
   80SLPC  H16Y 7473   6.143   5.050   8.273  4.0434 -1.0669 -2.5497
   80SLPC  C317 7474   5.975   5.183   8.226  0.0565 -0.7870  0.0076
   80SLPC  H17X 7475   5.959   5.170   8.335 -0.0800 -0.7278 -0.0049
   80SLPC  H17Y 7476   5.890   5.145   8.165  0.3931 -2.0993  0.3194
   80SLPC  C318 7477   6.001   5.332   8.193 -0.1826 -0.1812  0.8177
   80SLPC  H18X 7478   6.103   5.369   8.219 -0.3360 -1.1350  3.0280
   80SLPC  H18Y 7479   5.930   5.400   8.245 -0.2002  0.3452  0.1161
   80SLPC  H18Z 7480   5.977   5.358   8.088 -1.8658  0.4100  1.3217
   81SAPS     N 7481   0.388   3.245  10.751 -0.6429 -0.2782 -0.1079
   81SAPS   HN1 7482   0.485   3.214  10.732 -0.3568  0.7364 -0.3658
   81SAPS   HN2 7483   0.332   3.173  10.701 -1.0962 -0.5901  0.8272
   81SAPS   HN3 7484   0.373   3.338  10.706 -2.8963 -0.6757 -0.3233
   81SAPS   C12 7485   0.359   3.257  10.902 -0.6423  0.6625  0.4213
   81SAPS  H12A 7486   0.256   3.288  10.911 -1.7219 -0.9124 -3.8242
   81SAPS   C13 7487   0.373   3.118  10.967  0.2604  0.8202 -0.2374
   81SAPS  O13A 7488   0.375   3.015  10.895 -0.3011 -0.2809  0.1033
   81SAPS  O13B 7489   0.345   3.109  11.087  0.5913  0.3777 -0.2286
   81SAPS   C11 7490   0.459   3.355  10.964  1.1594  0.0551  0.6647
   81SAPS  H11A 7491   0.557   3.319  10.927  1.2191 -0.8833  1.6636
   81SAPS  H11B 7492   0.459   3.353  11.076  0.4640  1.9027  0.7429
   81SAPS     P 7493   0.531   3.602  10.925  0.3702  0.0282 -0.2247
   81SAPS   O13 7494   0.487   3.715  11.006  0.5263  0.3517 -0.7237
   81SAPS   O14 7495   0.656   3.538  10.965 -0.7131  0.2763 -0.6155
   81SAPS   O12 7496   0.423   3.490  10.919  0.4008 -0.2934  0.0859
   81SAPS   O11 7497   0.547   3.644  10.776  0.4114  0.0179 -0.3993
   81SAPS    C1 7498   0.469   3.749  10.718  0.2053 -0.1865  0.4941
   81SAPS    HA 7499   0.381   3.778  10.779 -1.9455 -1.4335 -1.8133
   81SAPS    HB 7500   0.537   3.836  10.710 -0.8081  0.4956 -1.4802
   81SAPS    C2 7501   0.401   3.732  10.573 -0.4920 -0.1693 -0.5957
   81SAPS    HS 7502   0.301   3.685  10.583 -0.8180  0.5062 -0.6382
   81SAPS   O21 7503   0.493   3.657  10.488 -0.0688  0.1882 -0.2454
   81SAPS   C21 7504   0.490   3.528  10.516 -0.4439  0.5580  0.3957
   81SAPS   O22 7505   0.411   3.475  10.590 -0.2838 -1.2332 -0.5332
   81SAPS   C22 7506   0.576   3.449  10.418  0.1913  0.0918  1.4192
   81SAPS   H2R 7507   0.663   3.512  10.390 -0.6707  0.3250 -1.0463
   81SAPS   H2S 7508   0.633   3.372  10.475  0.3953 -2.5088 -1.9372
   81SAPS    C3 7509   0.363   3.869  10.507 -0.3024  0.0726 -0.7228
   81SAPS    HX 7510   0.450   3.935  10.527 -0.8538  0.0348  2.2916
   81SAPS    HY 7511   0.285   3.923  10.564  1.4655  3.3635 -1.2182
   81SAPS   O31 7512   0.339   3.853  10.365 -0.0007 -0.2963  0.1284
   81SAPS   C31 7513   0.215   3.796  10.346 -0.3328 -0.3117 -0.8386
   81SAPS   O32 7514   0.134   3.776  10.438  0.3130 -0.5767 -0.0990
   81SAPS   C32 7515   0.190   3.776  10.200 -0.1459  0.6416 -0.1712
   81SAPS   H2X 7516   0.275   3.718  10.158  0.5704  0.3559  1.6107
   81SAPS   H2Y 7517   0.193   3.878  10.156 -1.8968  0.7941  0.0216
   81SAPS   C23 7518   0.503   3.377  10.302 -0.2513  0.3337 -0.4256
   81SAPS   H3R 7519   0.427   3.309  10.345 -0.1797  0.5198 -0.0035
   81SAPS   H3S 7520   0.567   3.302  10.250  0.2152 -1.3892  2.4477
   81SAPS   C24 7521   0.429   3.479  10.208  0.1353  0.0131 -0.1895
   81SAPS   H4R 7522   0.329   3.508  10.246  1.1073  3.1248  0.3131
   81SAPS   H4S 7523   0.398   3.426  10.116 -2.0501  0.8183  0.0367
   81SAPS   C25 7524   0.506   3.597  10.164 -0.6865  0.4966 -0.0750
   81SAPS   H5R 7525   0.524   3.688  10.223  1.4244  0.3769 -0.4692
   81SAPS   C26 7526   0.564   3.611  10.043 -0.3280 -0.2458 -0.0215
   81SAPS   H6R 7527   0.620   3.705  10.033 -1.6412  0.3529 -2.3532
   81SAPS   C27 7528   0.555   3.519   9.924 -0.3964 -0.3288  0.0819
   81SAPS   H7R 7529   0.463   3.456   9.921 -0.0549 -0.8162 -0.2562
   81SAPS   H7S 7530   0.632   3.441   9.939  0.2978  0.3003 -0.1613
   81SAPS   C28 7531   0.587   3.587   9.794  0.1426  0.5120 -0.1978
   81SAPS   H8R 7532   0.656   3.672   9.804 -0.1605  0.6198  1.1079
   81SAPS   C29 7533   0.548   3.550   9.669  0.7775  0.1116 -0.8642
   81SAPS   H9R 7534   0.604   3.600   9.588  2.3994  1.1628  0.8244
   81SAPS  C210 7535   0.444   3.447   9.632 -0.0036  1.1691 -0.0781
   81SAPS  H10R 7536   0.424   3.456   9.523  1.2930 -0.1084 -0.4376
   81SAPS  H10S 7537   0.344   3.477   9.672  0.9139  0.8719  2.6488
   81SAPS  C211 7538   0.476   3.305   9.675  0.8293  0.3029  0.9725
   81SAPS  H11R 7539   0.529   3.291   9.770 -1.1576 -1.3394  1.9168
   81SAPS  C212 7540   0.448   3.194   9.607 -0.3115 -0.4528 -0.0680
   81SAPS  H12R 7541   0.478   3.099   9.653 -0.9686  0.0088  1.3877
   81SAPS  C213 7542   0.383   3.180   9.474  0.3589 -0.4557 -0.1245
   81SAPS  H13R 7543   0.465   3.195   9.401  1.4348 -2.2560  0.6749
   81SAPS  H13S 7544   0.310   3.263   9.460  0.8975  0.0717  0.1160
   81SAPS  C214 7545   0.318   3.043   9.431 -0.1322  0.1467  0.2360
   81SAPS  H14R 7546   0.259   2.984   9.502 -0.8265 -0.6237 -0.9295
   81SAPS  C215 7547   0.315   2.998   9.301 -0.1665  0.3332  0.1588
   81SAPS  H15R 7548   0.272   2.898   9.282  2.0097 -0.5474 -0.4160
   81SAPS  C216 7549   0.351   3.069   9.172 -0.6025 -0.7419 -0.2653
   81SAPS  H16R 7550   0.446   3.034   9.127  1.6563  2.2036  1.8137
   81SAPS  H16S 7551   0.370   3.176   9.197  0.4650 -0.8177 -0.6860
   81SAPS  C217 7552   0.235   3.050   9.068 -0.3292  0.8845 -0.1835
   81SAPS  H17R 7553   0.152   3.123   9.086 -0.6372  0.8806 -1.4631
   81SAPS  H17S 7554   0.199   2.945   9.063  0.0639  0.7619 -0.4736
   81SAPS  C218 7555   0.289   3.076   8.925 -0.0070 -0.3827  0.3182
   81SAPS  H18R 7556   0.373   3.004   8.927  1.8973  1.5867 -1.9156
   81SAPS  H18S 7557   0.344   3.172   8.927  0.2533 -0.5297  2.4085
   81SAPS  C219 7558   0.199   3.046   8.810  0.2467 -0.2466  0.5573
   81SAPS  H19R 7559   0.149   2.948   8.824  0.5185 -0.5771 -0.6206
   81SAPS  H19S 7560   0.254   3.041   8.714  0.9452  1.0916  0.8666
   81SAPS  C220 7561   0.092   3.155   8.784 -0.0094 -0.1496 -0.7160
   81SAPS  H20R 7562   0.019   3.156   8.868 -1.7420 -0.9892 -2.1357
   81SAPS  H20S 7563   0.037   3.121   8.694 -0.8557 -1.9969  0.4479
   81SAPS  H20T 7564   0.135   3.255   8.762 -1.1566  0.0057 -2.4969
   81SAPS   C33 7565   0.061   3.706  10.156  0.1065 -1.2788 -0.3759
   81SAPS   H3X 7566  -0.037   3.743  10.193 -0.2285 -2.2053 -0.3150
   81SAPS   H3Y 7567   0.068   3.601  10.190 -0.8660 -0.6331  2.0480
   81SAPS   C34 7568   0.024   3.687  10.009 -0.2784 -0.5553  0.1785
   81SAPS   H4X 7569   0.010   3.786   9.961 -0.4985 -0.2144  0.9410
   81SAPS   H4Y 7570  -0.067   3.624  10.005 -0.4414 -0.2576 -1.2400
   81SAPS   C35 7571   0.129   3.615   9.919  0.5422 -0.9811 -0.4007
   81SAPS   H5X 7572   0.162   3.518   9.964 -0.3269 -1.8895 -1.6527
   81SAPS   H5Y 7573   0.220   3.677   9.905  2.1205 -2.7195  1.4854
   81SAPS   C36 7574   0.070   3.574   9.781 -0.2389 -0.2325 -0.5405
   81SAPS   H6X 7575  -0.030   3.527   9.775 -0.6874  0.8501 -2.3411
   81SAPS   H6Y 7576   0.148   3.521   9.722 -0.7581 -0.2680 -1.2146
   81SAPS   C37 7577   0.048   3.694   9.687  0.3861 -0.2721  0.2733
   81SAPS   H7X 7578   0.146   3.746   9.678 -0.1185  0.6830  0.1926
   81SAPS   H7Y 7579  -0.023   3.759   9.743  2.3686  0.9964  1.4530
   81SAPS   C38 7580  -0.003   3.658   9.549  0.2688  0.3616  0.3652
   81SAPS   H8X 7581  -0.001   3.754   9.493 -0.7386 -1.0267 -2.1974
   81SAPS   H8Y 7582  -0.108   3.622   9.560 -0.1334  0.2138 -3.0012
   81SAPS   C39 7583   0.074   3.556   9.460 -0.1201  0.2310 -0.1771
   81SAPS   H9X 7584   0.073   3.452   9.498 -0.6622  0.1028 -0.5245
   81SAPS   H9Y 7585   0.180   3.587   9.466 -0.2649  0.6811  0.1406
   81SAPS  C310 7586   0.028   3.551   9.312  0.1528 -0.2789 -0.0519
   81SAPS  H10X 7587  -0.007   3.651   9.277  4.1492  1.1802 -0.3124
   81SAPS  H10Y 7588  -0.059   3.481   9.312 -0.0859 -0.0009 -0.8478
   81SAPS  C311 7589   0.135   3.503   9.223  0.0145  0.9091  0.1063
   81SAPS  H11X 7590   0.123   3.395   9.201  1.5173 -0.4034  4.6060
   81SAPS  H11Y 7591   0.232   3.501   9.277  2.4947 -0.1266 -3.9099
   81SAPS  C312 7592   0.159   3.584   9.094 -0.5372  0.0079  0.4223
   81SAPS  H12X 7593   0.176   3.692   9.118 -3.4640  0.8861 -1.0035
   81SAPS  H12Y 7594   0.070   3.581   9.028  0.1258 -1.2134 -0.4384
   81SAPS  C313 7595   0.276   3.518   9.018 -0.0187 -0.1539 -0.4948
   81SAPS  H13X 7596   0.233   3.418   8.993 -1.1473  0.1869  0.0081
   81SAPS  H13Y 7597   0.358   3.505   9.092 -0.5639  1.1713  0.3850
   81SAPS  C314 7598   0.325   3.571   8.892 -0.1921  0.2474  0.0909
   81SAPS  H14X 7599   0.381   3.664   8.917  0.4192 -1.1284  4.7584
   81SAPS  H14Y 7600   0.237   3.596   8.828 -0.5466  1.0994  0.8952
   81SAPS  C315 7601   0.414   3.471   8.815  0.1733 -0.8117 -0.3874
   81SAPS  H15X 7602   0.350   3.381   8.803 -0.8604 -0.0788 -0.5367
   81SAPS  H15Y 7603   0.501   3.453   8.881  0.4720  0.9655 -0.2462
   81SAPS  C316 7604   0.470   3.527   8.687 -0.0780  0.4112 -0.1675
   81SAPS  H16X 7605   0.520   3.626   8.699  0.8328  0.0022 -0.4888
   81SAPS  H16Y 7606   0.398   3.534   8.602  1.2392 -0.2416 -1.3943
   81SAPS  C317 7607   0.572   3.426   8.628  0.0633 -0.5162 -0.8670
   81SAPS  H17X 7608   0.520   3.334   8.592 -1.4967  0.2770 -0.7370
   81SAPS  H17Y 7609   0.645   3.399   8.707 -2.6890 -2.0059  1.3428
   81SAPS  C318 7610   0.643   3.480   8.500 -0.2021  0.4254 -0.1714
   81SAPS  H18X 7611   0.564   3.506   8.425 -1.1202  0.8875  0.9252
   81SAPS  H18Y 7612   0.720   3.408   8.465 -0.0640 -1.3524  3.3501
   81SAPS  H18Z 7613   0.696   3.571   8.535  2.4086 -1.2903  0.6415
   82SAPS     N 7614   0.169   2.843  10.801  0.1268 -0.6705 -0.7593
   82SAPS   HN1 7615   0.218   2.923  10.847 -3.2583  0.4148  1.3979
   82SAPS   HN2 7616   0.209   2.754  10.836  1.4132  1.0973  2.7081
   82SAPS   HN3 7617   0.175   2.854  10.698  0.9959  3.2533 -0.4465
   82SAPS   C12 7618   0.032   2.840  10.865 -1.1225 -0.6038  0.0559
   82SAPS  H12A 7619   0.046   2.801  10.964  1.0915 -0.1541 -0.0229
   82SAPS   C13 7620  -0.021   2.984  10.869 -0.2251 -1.1867 -0.8371
   82SAPS  O13A 7621   0.055   3.083  10.828  0.0072  0.2818  0.2623
   82SAPS  O13B 7622  -0.121   3.003  10.946  0.1705 -0.1434 -0.3199
   82SAPS   C11 7623  -0.059   2.756  10.777  0.1556  0.6321  0.7916
   82SAPS  H11A 7624  -0.048   2.808  10.679  0.1403  1.1961  1.0831
   82SAPS  H11B 7625  -0.159   2.762  10.825 -0.1715 -0.2069  0.2400
   82SAPS     P 7626  -0.082   2.514  10.677  0.2552 -0.0048 -0.1514
   82SAPS   O13 7627   0.013   2.405  10.647 -0.4168  0.0464 -0.0068
   82SAPS   O14 7628  -0.207   2.474  10.747 -0.0407  0.1506  0.5733
   82SAPS   O12 7629  -0.008   2.623  10.772  1.0889 -0.8684  0.0010
   82SAPS   O11 7630  -0.123   2.582  10.543  0.0540 -0.1690 -0.2869
   82SAPS    C1 7631  -0.027   2.617  10.447  0.0600 -0.5203  0.2290
   82SAPS    HA 7632  -0.028   2.727  10.433  2.0549 -0.3591  1.0304
   82SAPS    HB 7633   0.079   2.602  10.478  0.3053 -0.0982 -0.3764
   82SAPS    C2 7634  -0.048   2.542  10.308  0.1736 -0.1260  0.6289
   82SAPS    HS 7635   0.036   2.581  10.247  0.3824 -1.8376 -0.2379
   82SAPS   O21 7636  -0.173   2.583  10.256  0.4983 -0.0458  0.2310
   82SAPS   C21 7637  -0.175   2.698  10.197 -0.3873  0.0305  0.8379
   82SAPS   O22 7638  -0.083   2.773  10.180  0.1828  0.3144 -0.0749
   82SAPS   C22 7639  -0.309   2.723  10.131 -0.1796  0.3889 -0.5926
   82SAPS   H2R 7640  -0.385   2.685  10.202 -0.0624 -0.5561 -0.9614
   82SAPS   H2S 7641  -0.325   2.832  10.117  0.4967  0.3692 -1.6788
   82SAPS    C3 7642  -0.032   2.392  10.323 -1.0329  0.4377  0.5333
   82SAPS    HX 7643  -0.113   2.339  10.378 -1.5492 -1.5775 -1.9754
   82SAPS    HY 7644   0.060   2.385  10.384 -1.7923  0.4892  1.7114
   82SAPS   O31 7645  -0.009   2.335  10.192 -0.8611 -0.1068  0.1813
   82SAPS   C31 7646  -0.112   2.281  10.135  0.4404 -0.0875  0.3378
   82SAPS   O32 7647  -0.222   2.272  10.181 -0.1111 -0.0460  0.1560
   82SAPS   C32 7648  -0.060   2.209  10.012  0.4945 -0.0350 -0.3220
   82SAPS   H2X 7649  -0.093   2.103  10.007  0.9071 -0.1091 -1.8391
   82SAPS   H2Y 7650   0.051   2.210  10.017  0.4991 -2.2596  3.3182
   82SAPS   C23 7651  -0.306   2.660   9.989  0.7816  0.4223 -0.3015
   82SAPS   H3R 7652  -0.278   2.552   9.994 -1.9899 -0.4216 -1.0660
   82SAPS   H3S 7653  -0.224   2.702   9.927  2.0796 -0.3026  0.8819
   82SAPS   C24 7654  -0.444   2.668   9.915  0.1430  0.2648 -0.2017
   82SAPS   H4R 7655  -0.418   2.637   9.812  0.4914 -1.3672  0.3432
   82SAPS   H4S 7656  -0.472   2.775   9.921 -1.8873 -0.2572  0.2749
   82SAPS   C25 7657  -0.557   2.582   9.958 -0.3053 -0.7149 -0.6808
   82SAPS   H5R 7658  -0.589   2.598  10.062  1.3260  0.2573 -0.2932
   82SAPS   C26 7659  -0.609   2.481   9.892 -0.2563  0.1885  0.4488
   82SAPS   H6R 7660  -0.698   2.431   9.933 -1.1196  0.7729 -0.6526
   82SAPS   C27 7661  -0.559   2.444   9.751 -0.3061 -0.0137 -0.1547
   82SAPS   H7R 7662  -0.448   2.442   9.763 -0.6188 -1.3596  3.7618
   82SAPS   H7S 7663  -0.578   2.523   9.675  0.5712  2.8992  2.4495
   82SAPS   C28 7664  -0.603   2.308   9.697  0.3080  0.3025  0.0675
   82SAPS   H8R 7665  -0.596   2.222   9.764 -0.3155  0.9629  1.0027
   82SAPS   C29 7666  -0.608   2.283   9.568  0.3948  0.2895  0.0781
   82SAPS   H9R 7667  -0.642   2.182   9.542 -1.4814  0.3424  1.9984
   82SAPS  C210 7668  -0.569   2.373   9.453 -0.0778 -0.2458  0.3513
   82SAPS  H10R 7669  -0.659   2.432   9.427 -1.0855 -1.3905  1.1056
   82SAPS  H10S 7670  -0.546   2.304   9.369 -0.5694 -1.8678  1.4896
   82SAPS  C211 7671  -0.437   2.451   9.461  0.5149  0.4661  0.1386
   82SAPS  H11R 7672  -0.388   2.443   9.560  1.7577 -2.8195 -0.6164
   82SAPS  C212 7673  -0.378   2.521   9.358 -0.7879  0.8442  0.4242
   82SAPS  H12R 7674  -0.290   2.580   9.385  0.5478 -1.1584  0.6353
   82SAPS  C213 7675  -0.422   2.527   9.210  0.1426  0.8210 -0.4089
   82SAPS  H13R 7676  -0.522   2.481   9.192  0.1690  0.1464  1.0416
   82SAPS  H13S 7677  -0.364   2.444   9.165 -0.8311 -0.3006  0.3149
   82SAPS  C214 7678  -0.408   2.661   9.135 -0.8973  0.4188  0.5440
   82SAPS  H14R 7679  -0.333   2.665   9.054 -1.5640 -1.1571 -0.1913
   82SAPS  C215 7680  -0.477   2.774   9.167 -0.0744  0.6837 -0.0654
   82SAPS  H15R 7681  -0.459   2.871   9.119  3.9091  0.2688  0.2033
   82SAPS  C216 7682  -0.577   2.782   9.285 -0.2014 -0.3189 -0.0570
   82SAPS  H16R 7683  -0.545   2.870   9.343 -1.1586  0.6131 -0.9006
   82SAPS  H16S 7684  -0.591   2.691   9.348 -1.7088 -1.6144 -2.0953
   82SAPS  C217 7685  -0.726   2.805   9.236 -0.6145 -0.7259 -0.4757
   82SAPS  H17R 7686  -0.726   2.882   9.156 -1.2847  0.1905  0.3828
   82SAPS  H17S 7687  -0.790   2.843   9.319 -2.3281 -1.6138 -1.3343
   82SAPS  C218 7688  -0.784   2.677   9.166 -0.0283 -0.3232 -0.3327
   82SAPS  H18R 7689  -0.789   2.607   9.252 -2.1643 -1.5449 -1.3682
   82SAPS  H18S 7690  -0.713   2.632   9.094 -0.7049 -3.4439  0.7936
   82SAPS  C219 7691  -0.922   2.697   9.101  0.5266  0.3546  0.0456
   82SAPS  H19R 7692  -0.990   2.733   9.182 -0.0723 -0.2565 -0.1744
   82SAPS  H19S 7693  -0.951   2.595   9.069 -1.0906  0.9022 -0.3486
   82SAPS  C220 7694  -0.919   2.799   8.987  0.3036 -0.0775  0.3482
   82SAPS  H20R 7695  -1.019   2.807   8.938  0.3468 -0.4044  0.2051
   82SAPS  H20S 7696  -0.835   2.774   8.919 -0.6359 -0.7103 -0.6186
   82SAPS  H20T 7697  -0.893   2.898   9.030 -0.3332  0.5339 -0.6380
   82SAPS   C33 7698  -0.118   2.262   9.885 -1.4300 -0.7286 -0.0197
   82SAPS   H3X 7699  -0.068   2.356   9.856 -1.4881 -1.0912 -1.3392
   82SAPS   H3Y 7700  -0.227   2.278   9.901 -1.3654 -0.3609  0.0636
   82SAPS   C34 7701  -0.109   2.154   9.775 -0.5528 -0.3633 -0.6127
   82SAPS   H4X 7702  -0.172   2.071   9.815  1.0060 -0.7606  1.1921
   82SAPS   H4Y 7703  -0.002   2.126   9.772 -0.6773 -0.7455 -2.5533
   82SAPS   C35 7704  -0.147   2.201   9.637  0.8114  0.3809  0.6508
   82SAPS   H5X 7705  -0.074   2.273   9.595  1.2420 -0.2609  0.2891
   82SAPS   H5Y 7706  -0.245   2.252   9.647 -0.1389 -0.5640 -2.6221
   82SAPS   C36 7707  -0.146   2.091   9.531 -0.5333  0.8502  0.3875
   82SAPS   H6X 7708  -0.229   2.021   9.554  0.0718 -0.7616 -1.9541
   82SAPS   H6Y 7709  -0.055   2.029   9.547 -0.4567  1.1560  1.1849
   82SAPS   C37 7710  -0.166   2.146   9.390 -1.0041 -0.4356  0.1753
   82SAPS   H7X 7711  -0.082   2.210   9.357 -0.4156 -0.3981  1.6933
   82SAPS   H7Y 7712  -0.262   2.203   9.393 -0.6316  0.1414  1.7260
   82SAPS   C38 7713  -0.158   2.041   9.280  0.4439  0.0030  0.8637
   82SAPS   H8X 7714  -0.245   1.973   9.294 -0.1332  0.1793 -1.4482
   82SAPS   H8Y 7715  -0.066   1.987   9.308 -0.1009 -0.2351  2.2964
   82SAPS   C39 7716  -0.168   2.103   9.131 -0.2174  0.2760  0.0468
   82SAPS   H9X 7717  -0.076   2.162   9.110  1.8442 -2.1319  1.5787
   82SAPS   H9Y 7718  -0.254   2.171   9.123 -0.2229  0.1341 -1.4099
   82SAPS  C310 7719  -0.149   1.989   9.025 -0.0443  0.1431  0.1732
   82SAPS  H10X 7720  -0.236   1.919   9.023  1.0742 -1.3069  0.3348
   82SAPS  H10Y 7721  -0.057   1.935   9.054 -1.1704 -1.4346  0.9805
   82SAPS  C311 7722  -0.146   2.054   8.886  0.2796 -0.3244  0.3515
   82SAPS  H11X 7723  -0.101   2.156   8.886 -0.3442  0.0063  2.2084
   82SAPS  H11Y 7724  -0.253   2.080   8.873  0.2806  0.3778  1.5803
   82SAPS  C312 7725  -0.090   1.970   8.770  0.6868  0.3495  0.0698
   82SAPS  H12X 7726  -0.163   1.893   8.735  0.3278  2.1952 -3.6605
   82SAPS  H12Y 7727   0.002   1.914   8.799  1.1630  1.1124  0.0462
   82SAPS  C313 7728  -0.059   2.056   8.652 -0.0399  0.0207 -0.4775
   82SAPS  H13X 7729  -0.013   1.988   8.577  0.1694  0.2815 -0.5893
   82SAPS  H13Y 7730   0.005   2.137   8.693 -0.8048  1.7976 -2.6161
   82SAPS  C314 7731  -0.185   2.123   8.593 -0.0236  0.3565 -0.4189
   82SAPS  H14X 7732  -0.243   2.181   8.668 -0.0297  0.9627 -0.8807
   82SAPS  H14Y 7733  -0.249   2.038   8.561  1.2472 -1.6541  1.9891
   82SAPS  C315 7734  -0.149   2.225   8.490 -0.1453  0.1845 -0.6612
   82SAPS  H15X 7735  -0.104   2.187   8.396  4.5424 -0.8876  1.6655
   82SAPS  H15Y 7736  -0.063   2.283   8.532 -0.8448  1.0033 -0.3361
   82SAPS  C316 7737  -0.274   2.313   8.463  0.0003  0.0064  0.5653
   82SAPS  H16X 7738  -0.305   2.371   8.553  1.6179  0.2781  0.9862
   82SAPS  H16Y 7739  -0.344   2.232   8.436  0.3842  0.1015 -0.7761
   82SAPS  C317 7740  -0.255   2.413   8.345 -0.0859 -0.7375  0.7272
   82SAPS  H17X 7741  -0.226   2.362   8.251 -1.0859  1.5909 -0.9491
   82SAPS  H17Y 7742  -0.177   2.480   8.387 -1.8087 -0.1960  3.3463
   82SAPS  C318 7743  -0.375   2.494   8.309  0.2441  0.3763 -0.3062
   82SAPS  H18X 7744  -0.457   2.427   8.278  0.6516  0.2533 -1.1435
   82SAPS  H18Y 7745  -0.361   2.570   8.230  1.3364 -0.2495 -0.7483
   82SAPS  H18Z 7746  -0.400   2.551   8.400 -0.2674 -0.6811  0.2379
   83SAPS     N 7747   6.759   6.188  11.161  0.6625  0.1275  0.2928
   83SAPS   HN1 7748   6.706   6.222  11.078  0.0290  0.0891  0.6815
   83SAPS   HN2 7749   6.759   6.261  11.235 -0.4755  1.8721 -1.3369
   83SAPS   HN3 7750   6.858   6.167  11.135  1.2056  0.2627  2.1040
   83SAPS   C12 7751   6.693   6.068  11.222  0.2076 -0.6637  0.0654
   83SAPS  H12A 7752   6.757   6.031  11.302  1.3396 -0.8641 -0.9073
   83SAPS   C13 7753   6.557   6.102  11.283  0.7534 -0.0229  0.2778
   83SAPS  O13A 7754   6.512   6.218  11.269 -0.2534 -0.5691  0.1479
   83SAPS  O13B 7755   6.499   6.015  11.354  0.5455 -0.8304 -0.0356
   83SAPS   C11 7756   6.668   5.958  11.121  0.1581  0.1219  0.6782
   83SAPS  H11A 7757   6.581   5.988  11.059  0.9478  0.5763 -0.2312
   83SAPS  H11B 7758   6.652   5.868  11.185 -0.5144  1.0022  1.7617
   83SAPS     P 7759   6.805   5.805  10.950  0.1215 -0.1039 -0.0732
   83SAPS   O13 7760   6.945   5.806  10.903  0.0659  0.1831  0.4776
   83SAPS   O14 7761   6.768   5.689  11.030 -0.5352 -0.2548 -0.4768
   83SAPS   O12 7762   6.783   5.938  11.040  0.0823 -0.2995 -0.0308
   83SAPS   O11 7763   6.700   5.828  10.835  0.2094  0.5628 -0.2483
   83SAPS    C1 7764   6.709   5.942  10.759  0.0177  0.1108 -0.6946
   83SAPS    HA 7765   6.632   6.017  10.787  0.1108 -0.0302 -0.0313
   83SAPS    HB 7766   6.812   5.981  10.766  0.7913 -2.0348  1.3313
   83SAPS    C2 7767   6.673   5.914  10.609  0.4558  0.1395 -0.4778
   83SAPS    HS 7768   6.568   5.875  10.609  0.1180  0.6650  3.4600
   83SAPS   O21 7769   6.762   5.829  10.535  0.0310  0.5081  0.2446
   83SAPS   C21 7770   6.732   5.700  10.534  0.4962  0.4571  0.4451
   83SAPS   O22 7771   6.629   5.649  10.572 -0.0879 -0.8879 -0.2921
   83SAPS   C22 7772   6.846   5.613  10.482  0.3127  0.4783 -0.1038
   83SAPS   H2R 7773   6.848   5.619  10.371 -0.9434 -0.3451 -0.1809
   83SAPS   H2S 7774   6.944   5.655  10.516  0.4584 -0.4140  0.6015
   83SAPS    C3 7775   6.659   6.050  10.527  0.3478  0.1428  0.1317
   83SAPS    HX 7776   6.750   6.110  10.549  0.1846  0.1090  0.9111
   83SAPS    HY 7777   6.567   6.100  10.564 -0.1057 -0.5434 -0.0573
   83SAPS   O31 7778   6.631   6.027  10.387  0.2338  0.0163 -0.0919
   83SAPS   C31 7779   6.734   6.027  10.307 -0.1556 -0.2104 -0.3839
   83SAPS   O32 7780   6.850   6.037  10.338  0.4158  0.0241 -0.2658
   83SAPS   C32 7781   6.682   6.016  10.162 -0.1463 -0.1417  0.1904
   83SAPS   H2X 7782   6.739   5.933  10.114 -0.9712 -0.1270 -0.8647
   83SAPS   H2Y 7783   6.712   6.105  10.103  1.0721 -1.0784 -0.6367
   83SAPS   C23 7784   6.832   5.467  10.533 -0.0142 -0.3711 -0.2731
   83SAPS   H3R 7785   6.738   5.414  10.505 -0.4604 -0.1961  0.8479
   83SAPS   H3S 7786   6.840   5.459  10.643  2.6743  0.1257 -0.3746
   83SAPS   C24 7787   6.948   5.382  10.464 -0.0371 -0.4449  0.3222
   83SAPS   H4R 7788   6.934   5.406  10.356 -3.1590  1.8379  1.1002
   83SAPS   H4S 7789   6.914   5.277  10.474 -2.1135 -0.0031 -1.5038
   83SAPS   C25 7790   7.093   5.396  10.503  0.3603  0.5262 -0.3339
   83SAPS   H5R 7791   7.107   5.457  10.594 -0.9922  0.8780 -0.3450
   83SAPS   C26 7792   7.196   5.353  10.430  0.0030 -0.4828 -0.7715
   83SAPS   H6R 7793   7.292   5.376  10.478  0.4364 -0.0915 -1.8022
   83SAPS   C27 7794   7.185   5.289  10.291  0.4515  0.4643 -0.2226
   83SAPS   H7R 7795   7.287   5.281  10.248  1.0280 -3.3071  1.4484
   83SAPS   H7S 7796   7.129   5.356  10.222 -0.2893 -1.5809 -1.6937
   83SAPS   C28 7797   7.097   5.166  10.278  0.3300 -0.3296  0.1001
   83SAPS   H8R 7798   7.071   5.114  10.372 -0.4119  0.1587  0.1728
   83SAPS   C29 7799   7.039   5.114  10.176  0.1999  0.2533  0.2805
   83SAPS   H9R 7800   6.984   5.020  10.194  2.7706 -1.1097  1.5824
   83SAPS  C210 7801   7.052   5.175  10.034 -0.6504 -0.7268 -0.5300
   83SAPS  H10R 7802   7.148   5.228  10.022 -0.3065 -1.2028  0.0517
   83SAPS  H10S 7803   6.973   5.252  10.022  0.2218  0.5051  1.3021
   83SAPS  C211 7804   7.053   5.064   9.935  0.1585 -1.0342  0.1527
   83SAPS  H11R 7805   7.140   4.999   9.950 -1.0220 -2.1455  2.7714
   83SAPS  C212 7806   6.962   5.032   9.848 -0.8906  0.7407  0.2360
   83SAPS  H12R 7807   6.979   4.944   9.784 -1.4631  0.8191 -0.0303
   83SAPS  C213 7808   6.833   5.096   9.824  0.4575  0.1563 -0.5446
   83SAPS  H13R 7809   6.844   5.204   9.797 -1.1317  0.4464 -0.1711
   83SAPS  H13S 7810   6.763   5.090   9.910  1.4742  1.0263  0.3763
   83SAPS  C214 7811   6.754   5.041   9.714  0.4101  0.5430  0.6927
   83SAPS  H14R 7812   6.703   4.946   9.735 -3.0322  2.1178  0.2551
   83SAPS  C215 7813   6.759   5.074   9.587 -1.0227 -0.1509 -0.2494
   83SAPS  H15R 7814   6.703   5.010   9.516 -0.2464 -1.3232  0.1683
   83SAPS  C216 7815   6.841   5.185   9.527  0.7471 -0.5013  0.7545
   83SAPS  H16R 7816   6.904   5.153   9.441  2.6087  1.5370  1.2560
   83SAPS  H16S 7817   6.921   5.214   9.599  1.1063 -0.5477  0.3763
   83SAPS  C217 7818   6.748   5.309   9.499  0.2272  0.0062  0.3029
   83SAPS  H17R 7819   6.691   5.348   9.587 -1.0663  1.4692 -1.1183
   83SAPS  H17S 7820   6.674   5.286   9.419  3.5661 -0.7640 -2.8158
   83SAPS  C218 7821   6.828   5.431   9.439  0.7857  0.1507 -0.4137
   83SAPS  H18R 7822   6.889   5.479   9.519 -0.4528 -0.3820  0.8982
   83SAPS  H18S 7823   6.751   5.502   9.403  0.5572  0.1579  0.0788
   83SAPS  C219 7824   6.915   5.405   9.317  0.7142  0.3150  0.8241
   83SAPS  H19R 7825   7.009   5.347   9.331  1.6739  0.4984 -3.4607
   83SAPS  H19S 7826   6.939   5.509   9.288  0.8529  0.2533  0.7181
   83SAPS  C220 7827   6.850   5.343   9.192  0.0748  1.0212  0.0079
   83SAPS  H20R 7828   6.798   5.249   9.219 -0.2557  1.0825 -0.4077
   83SAPS  H20S 7829   6.937   5.317   9.127  2.4581  1.6848  2.7059
   83SAPS  H20T 7830   6.783   5.408   9.132 -2.0715 -1.7738 -0.8197
   83SAPS   C33 7831   6.528   6.003  10.143 -0.0588  0.0511  0.0778
   83SAPS   H3X 7832   6.476   6.073  10.212  1.3173 -2.6948  4.3219
   83SAPS   H3Y 7833   6.498   5.899  10.170 -0.3538  0.7835  2.8937
   83SAPS   C34 7834   6.477   6.034   9.996 -0.0400 -0.0310  0.0475
   83SAPS   H4X 7835   6.547   5.985   9.925 -0.2893  2.0530 -1.7585
   83SAPS   H4Y 7836   6.480   6.143   9.975 -0.9310  0.0007  0.0840
   83SAPS   C35 7837   6.331   5.999   9.979  0.4338 -0.2819  0.7348
   83SAPS   H5X 7838   6.267   6.058  10.048 -2.8579 -0.6302 -1.7667
   83SAPS   H5Y 7839   6.314   5.894  10.010 -1.3331 -0.8717 -1.8433
   83SAPS   C36 7840   6.275   6.010   9.841 -0.0230 -0.0935 -0.1340
   83SAPS   H6X 7841   6.339   5.943   9.780 -0.0962 -0.0473 -0.2623
   83SAPS   H6Y 7842   6.296   6.112   9.800  0.6153  0.2818  1.0763
   83SAPS   C37 7843   6.126   5.963   9.826  0.0974  0.1557 -0.4973
   83SAPS   H7X 7844   6.072   6.026   9.900 -0.1230  0.1344 -0.6402
   83SAPS   H7Y 7845   6.112   5.859   9.864  1.3249  0.0983 -0.1714
   83SAPS   C38 7846   6.074   5.988   9.683 -0.4995  0.0850  0.1682
   83SAPS   H8X 7847   6.055   6.097   9.671 -3.3162 -0.0018  2.8033
   83SAPS   H8Y 7848   5.975   5.940   9.674  0.4427 -1.6653 -1.4760
   83SAPS   C39 7849   6.173   5.936   9.574 -0.6439 -0.4409 -0.0574
   83SAPS   H9X 7850   6.180   5.826   9.587  0.8817 -0.1867  1.6064
   83SAPS   H9Y 7851   6.276   5.977   9.580  0.1738 -2.2574 -0.7373
   83SAPS  C310 7852   6.117   5.966   9.430 -0.4307  0.0244 -0.7024
   83SAPS  H10X 7853   6.127   6.075   9.412  1.7549 -0.1911 -1.0064
   83SAPS  H10Y 7854   6.012   5.929   9.434 -0.2249 -0.4767  0.1016
   83SAPS  C311 7855   6.196   5.902   9.306  0.5640 -0.2007  0.2853
   83SAPS  H11X 7856   6.173   5.793   9.311 -0.3925  0.0180  0.9489
   83SAPS  H11Y 7857   6.305   5.923   9.314  0.4191  1.0188 -0.6465
   83SAPS  C312 7858   6.150   5.923   9.165  0.3350 -0.4110  0.8380
   83SAPS  H12X 7859   6.168   6.026   9.128  0.4743 -0.5649  0.4732
   83SAPS  H12Y 7860   6.040   5.907   9.161  0.0760  1.4621 -0.6159
   83SAPS  C313 7861   6.200   5.813   9.065 -0.5072 -0.2839 -0.8082
   83SAPS  H13X 7862   6.182   5.710   9.101 -3.1687 -0.1204 -1.4792
   83SAPS  H13Y 7863   6.311   5.814   9.060 -0.3745 -1.5831  0.8813
   83SAPS  C314 7864   6.137   5.827   8.930  0.1002  0.6339  0.3779
   83SAPS  H14X 7865   6.153   5.934   8.904 -0.3136  0.7251  0.4911
   83SAPS  H14Y 7866   6.027   5.818   8.940 -0.1654  0.7243 -2.0288
   83SAPS  C315 7867   6.184   5.736   8.818 -0.4451  0.2528  0.0536
   83SAPS  H15X 7868   6.116   5.748   8.731  0.2935  1.2153 -0.4067
   83SAPS  H15Y 7869   6.172   5.630   8.849 -1.9493 -0.3463 -2.2854
   83SAPS  C316 7870   6.326   5.759   8.781  0.1905  0.9628 -0.1942
   83SAPS  H16X 7871   6.389   5.781   8.870  0.7536  0.6495 -0.5128
   83SAPS  H16Y 7872   6.324   5.850   8.716  0.8820  0.1885 -1.3396
   83SAPS  C317 7873   6.386   5.652   8.695  0.7230  0.1484 -0.1373
   83SAPS  H17X 7874   6.297   5.620   8.635  1.8365 -0.3544 -1.5816
   83SAPS  H17Y 7875   6.435   5.568   8.749  3.0023  2.3515  1.4356
   83SAPS  C318 7876   6.494   5.710   8.601 -0.1953  0.3247  0.2738
   83SAPS  H18X 7877   6.567   5.772   8.658 -0.3899  0.0842  0.7874
   83SAPS  H18Y 7878   6.459   5.778   8.521 -1.1960  0.4150  0.7754
   83SAPS  H18Z 7879   6.552   5.624   8.563 -0.2453  0.5411 -0.2980
   84SAPS     N 7880   1.305   4.630  11.281 -0.3131 -0.1394  0.5842
   84SAPS   HN1 7881   1.219   4.575  11.296  0.0642 -1.2059 -0.8409
   84SAPS   HN2 7882   1.327   4.691  11.362  4.2732 -1.4835  0.6326
   84SAPS   HN3 7883   1.287   4.686  11.195 -0.1506  1.6332  1.6583
   84SAPS   C12 7884   1.418   4.532  11.251  0.5188 -0.0869 -0.2015
   84SAPS  H12A 7885   1.488   4.576  11.182 -0.6824 -0.1934 -1.5346
   84SAPS   C13 7886   1.496   4.474  11.376 -0.0616  0.3254  0.0726
   84SAPS  O13A 7887   1.496   4.535  11.487  0.0329 -0.0540 -0.6384
   84SAPS  O13B 7888   1.572   4.370  11.359 -0.2701 -0.5277 -0.2062
   84SAPS   C11 7889   1.357   4.409  11.175 -0.2609  0.3817 -0.8507
   84SAPS  H11A 7890   1.353   4.320  11.241 -3.4244 -0.5109 -2.0388
   84SAPS  H11B 7891   1.432   4.391  11.095  0.7079 -0.4157  0.2028
   84SAPS     P 7892   1.160   4.336  11.014  0.3950 -0.0151 -0.2859
   84SAPS   O13 7893   1.207   4.200  11.030 -0.2747  0.2624 -0.2234
   84SAPS   O14 7894   1.011   4.351  11.000 -0.0324 -0.2521  0.2526
   84SAPS   O12 7895   1.225   4.430  11.124 -0.1499 -0.2842 -0.1730
   84SAPS   O11 7896   1.229   4.381  10.879  0.0854 -0.4671 -0.1968
   84SAPS    C1 7897   1.197   4.516  10.825 -0.1215  0.8180 -0.4799
   84SAPS    HA 7898   1.130   4.573  10.893 -0.2681  0.6486 -0.4816
   84SAPS    HB 7899   1.289   4.577  10.818  1.1362 -0.4361  3.0600
   84SAPS    C2 7900   1.109   4.502  10.701  0.3125  1.4122  0.3015
   84SAPS    HS 7901   1.024   4.443  10.741 -0.2101  2.9262  1.5600
   84SAPS   O21 7902   1.187   4.433  10.601 -0.0410 -0.1723 -0.7707
   84SAPS   C21 7903   1.131   4.326  10.545  0.0033 -0.0703 -0.2108
   84SAPS   O22 7904   1.014   4.294  10.560  0.0394  0.2702  0.4648
   84SAPS   C22 7905   1.218   4.268  10.434  0.6675  0.5145 -0.0304
   84SAPS   H2R 7906   1.259   4.177  10.483  1.3567  0.6804 -0.2937
   84SAPS   H2S 7907   1.153   4.232  10.351  0.8608 -1.3630  0.5696
   84SAPS    C3 7908   1.054   4.639  10.658 -0.3912 -0.2131  0.7640
   84SAPS    HX 7909   1.134   4.716  10.666 -2.3190  1.7679  2.4090
   84SAPS    HY 7910   0.977   4.662  10.735 -1.4790  0.9845 -0.6358
   84SAPS   O31 7911   1.005   4.644  10.520  0.2214 -0.3729 -0.5871
   84SAPS   C31 7912   0.888   4.603  10.491  0.3943 -0.5057  0.1857
   84SAPS   O32 7913   0.802   4.559  10.561  0.2553  0.3136 -0.2043
   84SAPS   C32 7914   0.881   4.615  10.335 -0.2332 -0.9375  0.1488
   84SAPS   H2X 7915   0.959   4.556  10.281  0.9329  0.2171  0.5198
   84SAPS   H2Y 7916   0.891   4.723  10.310  0.1495 -0.9862  0.0862
   84SAPS   C23 7917   1.317   4.367  10.396 -0.2973  0.9605  0.0748
   84SAPS   H3R 7918   1.393   4.321  10.328  0.6153  3.2692 -0.5745
   84SAPS   H3S 7919   1.383   4.400  10.478  2.2761  1.6581 -2.1223
   84SAPS   C24 7920   1.257   4.492  10.316 -0.8874  0.5088 -0.2850
   84SAPS   H4R 7921   1.203   4.550  10.394  0.4619  1.0231  0.2937
   84SAPS   H4S 7922   1.176   4.456  10.249 -2.5527 -0.0206  1.9019
   84SAPS   C25 7923   1.373   4.566  10.244 -0.3571 -0.0745  0.3239
   84SAPS   H5R 7924   1.453   4.601  10.311  0.4148 -0.1158 -0.5404
   84SAPS   C26 7925   1.390   4.577  10.113 -0.2690  0.4629 -0.0913
   84SAPS   H6R 7926   1.480   4.619  10.066  0.3803 -1.3632 -0.5871
   84SAPS   C27 7927   1.290   4.525  10.003  0.8061  0.1997 -0.0555
   84SAPS   H7R 7928   1.285   4.612   9.934  0.7380 -0.1416 -0.4839
   84SAPS   H7S 7929   1.192   4.517  10.055 -0.5829  2.6804 -2.0474
   84SAPS   C28 7930   1.315   4.393   9.942  0.0134 -0.2950  0.4871
   84SAPS   H8R 7931   1.306   4.310  10.013 -0.8741  0.0784  0.8334
   84SAPS   C29 7932   1.320   4.369   9.812 -0.4317  0.7834  0.5632
   84SAPS   H9R 7933   1.341   4.266   9.778  0.0088  0.9012  0.4733
   84SAPS  C210 7934   1.301   4.466   9.696  0.0692  0.4905 -0.6788
   84SAPS  H10R 7935   1.399   4.497   9.653  0.4137  1.5218  0.7692
   84SAPS  H10S 7936   1.274   4.565   9.738  1.5508  0.6814 -0.1252
   84SAPS  C211 7937   1.208   4.431   9.589  0.7027 -0.1918  0.2254
   84SAPS  H11R 7938   1.110   4.406   9.633  1.3249  1.1134  2.5099
   84SAPS  C212 7939   1.222   4.430   9.457  0.5064 -0.9247 -0.8763
   84SAPS  H12R 7940   1.129   4.421   9.400  0.4334  1.7665 -1.3099
   84SAPS  C213 7941   1.350   4.471   9.386 -1.0425 -0.8107  0.0500
   84SAPS  H13R 7942   1.442   4.479   9.447 -0.8412 -1.1408 -0.2080
   84SAPS  H13S 7943   1.325   4.570   9.341 -1.0259 -1.3994 -1.2974
   84SAPS  C214 7944   1.385   4.371   9.279  0.2985 -0.6772  0.2153
   84SAPS  H14R 7945   1.431   4.280   9.321 -1.4323 -1.7540 -0.1212
   84SAPS  C215 7946   1.391   4.397   9.148 -0.3654  0.0779  0.8857
   84SAPS  H15R 7947   1.410   4.314   9.078 -1.3373 -1.0373  1.8817
   84SAPS  C216 7948   1.354   4.527   9.083 -0.1235  0.1240 -0.0025
   84SAPS  H16R 7949   1.446   4.585   9.059 -1.0884  2.4444  1.5533
   84SAPS  H16S 7950   1.300   4.597   9.151  0.5262 -0.7935  1.4964
   84SAPS  C217 7951   1.283   4.525   8.948  0.7323  0.1521  0.1384
   84SAPS  H17R 7952   1.175   4.503   8.965  0.4954  0.2993 -1.0718
   84SAPS  H17S 7953   1.306   4.436   8.885  0.9469  1.1965 -1.3046
   84SAPS  C218 7954   1.287   4.658   8.864  0.5940 -0.3087 -0.0789
   84SAPS  H18R 7955   1.306   4.742   8.935  0.1370  1.5030 -1.9997
   84SAPS  H18S 7956   1.188   4.677   8.817  0.3063 -1.5899 -0.0161
   84SAPS  C219 7957   1.405   4.655   8.765 -0.5385  0.5464  0.3459
   84SAPS  H19R 7958   1.501   4.642   8.818 -1.4208 -1.6609  1.5195
   84SAPS  H19S 7959   1.407   4.753   8.713  1.0050  0.0787 -0.5212
   84SAPS  C220 7960   1.402   4.545   8.657  0.6419  0.1105  0.1689
   84SAPS  H20R 7961   1.482   4.572   8.584  0.4753 -3.3122 -1.4434
   84SAPS  H20S 7962   1.303   4.545   8.606 -1.4142  0.9174  3.8181
   84SAPS  H20T 7963   1.429   4.442   8.688 -1.6399 -0.4763  0.3445
   84SAPS   C33 7964   0.752   4.554  10.271  0.7932 -0.6693  0.4248
   84SAPS   H3X 7965   0.665   4.597  10.326  1.6079  0.8671  0.5713
   84SAPS   H3Y 7966   0.751   4.443  10.281 -0.0832 -1.0841 -3.0527
   84SAPS   C34 7967   0.747   4.563  10.122  0.3645 -0.3649 -0.6984
   84SAPS   H4X 7968   0.750   4.670  10.091  1.6260 -0.7338 -1.9394
   84SAPS   H4Y 7969   0.646   4.523  10.098  0.7974 -0.7806 -1.8568
   84SAPS   C35 7970   0.851   4.478  10.049  0.1493  0.2892 -0.7889
   84SAPS   H5X 7971   0.834   4.369  10.055  0.0119  0.2930 -1.0916
   84SAPS   H5Y 7972   0.954   4.511  10.075  0.4110 -1.4648  0.5420
   84SAPS   C36 7973   0.848   4.487   9.893  0.4311  0.1944  0.0159
   84SAPS   H6X 7974   0.930   4.421   9.856 -0.9808 -0.7226 -1.6615
   84SAPS   H6Y 7975   0.856   4.592   9.860 -1.6939 -0.2909 -2.3142
   84SAPS   C37 7976   0.718   4.423   9.831  0.6162 -0.4263  0.4186
   84SAPS   H7X 7977   0.641   4.491   9.874  1.7007  0.9883  0.2073
   84SAPS   H7Y 7978   0.703   4.319   9.866  0.8793 -0.1159  1.5193
   84SAPS   C38 7979   0.715   4.431   9.677 -0.0342  0.1603 -0.3715
   84SAPS   H8X 7980   0.811   4.398   9.631  0.2404  1.3338 -0.6718
   84SAPS   H8Y 7981   0.701   4.537   9.645  0.0380  0.9052  1.9120
   84SAPS   C39 7982   0.594   4.363   9.612  0.3860 -0.1302  0.5095
   84SAPS   H9X 7983   0.501   4.387   9.668 -0.4789  1.1156 -1.3806
   84SAPS   H9Y 7984   0.601   4.254   9.634  0.0920 -0.0645  0.9483
   84SAPS  C310 7985   0.556   4.409   9.471  0.2332 -0.1142 -1.0466
   84SAPS  H10X 7986   0.566   4.520   9.468  1.7441 -0.1206  1.3020
   84SAPS  H10Y 7987   0.449   4.381   9.456  0.2239 -0.1636 -0.8858
   84SAPS  C311 7988   0.641   4.340   9.368  0.5116  0.3572 -0.1133
   84SAPS  H11X 7989   0.631   4.231   9.391  1.0635  0.7372  2.0933
   84SAPS  H11Y 7990   0.745   4.367   9.397 -0.2528  0.7509  2.4711
   84SAPS  C312 7991   0.598   4.378   9.224 -0.1053 -1.1977 -1.2312
   84SAPS  H12X 7992   0.487   4.376   9.229 -0.0574 -1.5921  1.2007
   84SAPS  H12Y 7993   0.630   4.297   9.156 -0.3260 -0.4758 -2.2196
   84SAPS  C313 7994   0.650   4.521   9.174 -0.7797  0.2246 -0.0659
   84SAPS  H13X 7995   0.760   4.527   9.186 -0.4484 -3.0312 -0.5943
   84SAPS  H13Y 7996   0.620   4.594   9.253  1.4325  0.2153  0.8401
   84SAPS  C314 7997   0.594   4.560   9.041 -0.1038  0.1822  0.1281
   84SAPS  H14X 7998   0.601   4.670   9.032 -1.2805  0.2361 -0.3680
   84SAPS  H14Y 7999   0.483   4.552   9.044 -0.6004  3.9036 -2.1054
   84SAPS  C315 8000   0.667   4.493   8.922 -0.3834 -0.9170 -0.0761
   84SAPS  H15X 8001   0.600   4.503   8.834 -2.3585  1.8105  1.5702
   84SAPS  H15Y 8002   0.698   4.391   8.951  0.5286  0.0350  2.6773
   84SAPS  C316 8003   0.788   4.577   8.882 -0.4637  0.2215  0.8759
   84SAPS  H16X 8004   0.856   4.496   8.848 -3.4930 -1.8715 -0.6863
   84SAPS  H16Y 8005   0.834   4.634   8.966 -0.8668  1.8353  0.0352
   84SAPS  C317 8006   0.772   4.672   8.755  0.6562 -0.1376 -0.2560
   84SAPS  H17X 8007   0.691   4.744   8.778  0.4136 -0.1570 -1.0130
   84SAPS  H17Y 8008   0.725   4.607   8.678  1.1039 -1.8431  0.8440
   84SAPS  C318 8009   0.897   4.743   8.697  0.0524  0.3617 -0.7419
   84SAPS  H18X 8010   0.982   4.674   8.677  0.4391  0.4118  0.6209
   84SAPS  H18Y 8011   0.935   4.827   8.759 -0.4462  0.2444 -0.2710
   84SAPS  H18Z 8012   0.879   4.784   8.595  0.6517 -0.3754 -1.1568
   85SAPS     N 8013   4.588   0.281  10.658 -0.1327 -0.6006  0.7251
   85SAPS   HN1 8014   4.640   0.278  10.567 -1.4452  1.2538 -0.1462
   85SAPS   HN2 8015   4.487   0.260  10.644 -0.2348 -1.4504  2.4937
   85SAPS   HN3 8016   4.586   0.384  10.669  1.1291 -0.4222 -0.3425
   85SAPS   C12 8017   4.642   0.230  10.781  1.0508 -0.2712  0.3152
   85SAPS  H12A 8018   4.710   0.304  10.819 -2.6642  2.3481  2.5527
   85SAPS   C13 8019   4.536   0.208  10.883  0.8729 -0.3293  1.0348
   85SAPS  O13A 8020   4.411   0.233  10.860  0.0770  0.2495 -0.2163
   85SAPS  O13B 8021   4.580   0.174  10.995  0.1778  0.5029 -0.5319
   85SAPS   C11 8022   4.699   0.092  10.749 -0.1573  0.5694 -0.0152
   85SAPS  H11A 8023   4.735   0.044  10.843  1.3973  2.2880  0.3273
   85SAPS  H11B 8024   4.786   0.098  10.681  0.6627 -0.6959  0.8886
   85SAPS     P 8025   4.572  -0.138  10.723 -0.0553  0.3230  0.0000
   85SAPS   O13 8026   4.631  -0.177  10.856  0.1098 -0.2733  0.2547
   85SAPS   O14 8027   4.426  -0.148  10.711 -0.6040  0.0287 -0.7230
   85SAPS   O12 8028   4.603   0.010  10.675  0.4816  0.2555 -0.0171
   85SAPS   O11 8029   4.629  -0.240  10.616  0.1633  0.6052  0.1032
   85SAPS    C1 8030   4.756  -0.231  10.556  0.2111  0.0489 -0.3241
   85SAPS    HA 8031   4.836  -0.178  10.612  3.4331 -2.2291 -2.4259
   85SAPS    HB 8032   4.798  -0.333  10.548 -1.2191 -0.5500 -0.4759
   85SAPS    C2 8033   4.742  -0.175  10.410  0.0297 -0.0628 -0.9841
   85SAPS    HS 8034   4.708  -0.070  10.418  0.3767  0.0334 -0.7538
   85SAPS   O21 8035   4.635  -0.250  10.346 -0.0718 -0.0070 -0.6574
   85SAPS   C21 8036   4.575  -0.175  10.259  0.0688  0.0525  0.3000
   85SAPS   O22 8037   4.572  -0.054  10.243  0.4349  0.6127 -0.2262
   85SAPS   C22 8038   4.511  -0.275  10.171 -0.3015  0.2934  1.2662
   85SAPS   H2R 8039   4.467  -0.361  10.226 -0.0789 -0.7649 -0.1547
   85SAPS   H2S 8040   4.426  -0.219  10.128  0.7137  2.2693  1.7009
   85SAPS    C3 8041   4.878  -0.182  10.328  0.3005  0.4296 -0.3099
   85SAPS    HX 8042   4.905  -0.290  10.331 -1.1630  0.0647  0.9562
   85SAPS    HY 8043   4.955  -0.121  10.380  2.3470 -0.9669 -1.5633
   85SAPS   O31 8044   4.869  -0.142  10.189  0.2918  0.0150 -0.3548
   85SAPS   C31 8045   4.987  -0.124  10.127  0.9801  0.1181 -0.4779
   85SAPS   O32 8046   5.096  -0.114  10.182  0.0161 -0.2658 -0.7051
   85SAPS   C32 8047   4.952  -0.095   9.976  0.8221  0.6583  0.3240
   85SAPS   H2X 8048   4.893  -0.000   9.975 -0.4286 -0.0830 -1.0148
   85SAPS   H2Y 8049   4.897  -0.181   9.932  0.9091  0.3677  0.7774
   85SAPS   C23 8050   4.607  -0.331  10.059 -0.4445 -0.5222 -0.1362
   85SAPS   H3R 8051   4.681  -0.399  10.107  0.6081  1.3390  0.9872
   85SAPS   H3S 8052   4.670  -0.248  10.019 -1.0583 -0.2109 -0.4672
   85SAPS   C24 8053   4.537  -0.410   9.946 -0.1166  0.1859 -0.5099
   85SAPS   H4R 8054   4.495  -0.322   9.891  1.5983  1.8768  0.7426
   85SAPS   H4S 8055   4.456  -0.463  10.001 -2.1976  2.7818 -0.8247
   85SAPS   C25 8056   4.637  -0.500   9.871 -0.2853 -0.2672 -0.1336
   85SAPS   H5R 8057   4.684  -0.576   9.934 -2.2874 -0.4839  1.1822
   85SAPS   C26 8058   4.684  -0.473   9.750 -0.2244  0.0721 -0.2434
   85SAPS   H6R 8059   4.755  -0.545   9.706  1.0548  0.3444  1.2898
   85SAPS   C27 8060   4.640  -0.356   9.663 -0.0541 -0.6878  0.1254
   85SAPS   H7R 8061   4.596  -0.268   9.715  1.1654 -0.4687  0.8371
   85SAPS   H7S 8062   4.562  -0.388   9.591  0.7580 -1.8684 -0.2529
   85SAPS   C28 8063   4.753  -0.304   9.589 -0.9218 -0.4651  0.2515
   85SAPS   H8R 8064   4.788  -0.209   9.631 -0.5609 -0.1518 -0.7305
   85SAPS   C29 8065   4.814  -0.357   9.479 -0.1309  0.1956 -0.5754
   85SAPS   H9R 8066   4.905  -0.310   9.440  0.8206  0.9490  2.3172
   85SAPS  C210 8067   4.782  -0.490   9.420 -0.2659  0.1582  0.0565
   85SAPS  H10R 8068   4.755  -0.467   9.315 -1.7316  1.8640  0.7532
   85SAPS  H10S 8069   4.687  -0.525   9.466 -0.0266 -1.2260 -0.4570
   85SAPS  C211 8070   4.897  -0.584   9.444 -0.1440  0.5857  0.1781
   85SAPS  H11R 8071   4.940  -0.560   9.542 -1.3765 -0.2700  0.9607
   85SAPS  C212 8072   4.949  -0.678   9.362  0.1990 -0.5796 -0.5053
   85SAPS  H12R 8073   5.031  -0.744   9.396 -1.5328 -1.7575  1.5879
   85SAPS  C213 8074   4.899  -0.704   9.224 -0.0651  0.1463  0.0757
   85SAPS  H13R 8075   4.972  -0.768   9.170  0.4751 -0.0658  1.0373
   85SAPS  H13S 8076   4.883  -0.612   9.164  0.9722 -0.4301 -1.1228
   85SAPS  C214 8077   4.776  -0.790   9.221  1.2024 -0.6818  0.8227
   85SAPS  H14R 8078   4.764  -0.860   9.305 -3.6368  2.0274  2.8420
   85SAPS  C215 8079   4.675  -0.784   9.127  0.0325 -0.1374  0.7692
   85SAPS  H15R 8080   4.581  -0.839   9.141  0.1944 -0.1569  1.8659
   85SAPS  C216 8081   4.666  -0.683   9.020  0.4194  0.4696 -0.0748
   85SAPS  H16R 8082   4.757  -0.627   8.992  0.4743 -0.3506 -1.6555
   85SAPS  H16S 8083   4.586  -0.612   9.049 -1.9056 -0.5898 -3.1826
   85SAPS  C217 8084   4.623  -0.757   8.893 -0.6063  0.0630  0.2591
   85SAPS  H17R 8085   4.525  -0.804   8.915 -1.1277  0.7455 -0.5316
   85SAPS  H17S 8086   4.703  -0.827   8.861 -0.0636  0.3985  0.8745
   85SAPS  C218 8087   4.604  -0.665   8.767 -0.1522 -0.2143 -0.6053
   85SAPS  H18R 8088   4.698  -0.644   8.711  0.2163  2.5629  0.8831
   85SAPS  H18S 8089   4.569  -0.567   8.805 -0.4613 -0.1994 -0.9295
   85SAPS  C219 8090   4.510  -0.721   8.663  0.3586  0.1242 -0.5263
   85SAPS  H19R 8091   4.480  -0.638   8.595 -0.2569  0.6810  0.4041
   85SAPS  H19S 8092   4.415  -0.757   8.708 -0.3603  0.3446 -1.8326
   85SAPS  C220 8093   4.566  -0.829   8.577 -0.7161  0.2195 -0.0145
   85SAPS  H20R 8094   4.638  -0.777   8.510  0.9036  1.7549  2.7567
   85SAPS  H20S 8095   4.489  -0.880   8.516 -0.6612  2.8103 -2.4456
   85SAPS  H20T 8096   4.618  -0.909   8.634  0.0177  1.5740  1.2803
   85SAPS   C33 8097   5.079  -0.071   9.890  0.1604  0.1161 -0.4135
   85SAPS   H3X 8098   5.126  -0.167   9.862  2.3113  0.6767  1.0659
   85SAPS   H3Y 8099   5.154  -0.010   9.945 -0.2648  1.6334 -1.4588
   85SAPS   C34 8100   5.035  -0.016   9.755  0.2058  0.1250 -0.2427
   85SAPS   H4X 8101   5.009   0.090   9.777  0.8697  0.0968  0.7899
   85SAPS   H4Y 8102   4.953  -0.074   9.709  2.9255 -4.5873  0.1886
   85SAPS   C35 8103   5.152  -0.010   9.659  0.5041 -1.0185  0.3067
   85SAPS   H5X 8104   5.174  -0.117   9.639  2.8076 -0.7481  1.0759
   85SAPS   H5Y 8105   5.244   0.025   9.710 -0.1124 -0.7772  1.2803
   85SAPS   C36 8106   5.113   0.063   9.523 -0.3401  0.0851 -0.2269
   85SAPS   H6X 8107   5.098   0.172   9.540 -0.2846 -0.0968  1.0519
   85SAPS   H6Y 8108   5.020   0.010   9.494 -0.7706 -0.0895  1.3813
   85SAPS   C37 8109   5.225   0.049   9.423 -0.4782 -0.2987  0.1773
   85SAPS   H7X 8110   5.232  -0.057   9.389 -1.0259  0.2622 -1.8667
   85SAPS   H7Y 8111   5.314   0.073   9.485  0.5641 -0.6152 -1.1442
   85SAPS   C38 8112   5.232   0.138   9.298 -0.7393 -0.1474 -0.6250
   85SAPS   H8X 8113   5.335   0.152   9.261 -0.1255  0.8939  1.3350
   85SAPS   H8Y 8114   5.194   0.239   9.327  0.8471 -0.6247  3.8330
   85SAPS   C39 8115   5.146   0.080   9.183  0.8506 -0.0719 -0.7600
   85SAPS   H9X 8116   5.046   0.060   9.225  1.2300  2.4275  1.5865
   85SAPS   H9Y 8117   5.181  -0.020   9.148 -0.8301 -1.0651  0.2792
   85SAPS  C310 8118   5.139   0.162   9.054 -0.4310 -0.2753  0.4950
   85SAPS  H10X 8119   5.241   0.193   9.023  0.0093 -2.1697 -0.0993
   85SAPS  H10Y 8120   5.079   0.254   9.072  0.1871  0.2565 -0.1171
   85SAPS  C311 8121   5.074   0.079   8.945  0.4014 -0.2726  0.1508
   85SAPS  H11X 8122   4.978   0.036   8.980  0.7027 -0.3135  0.9588
   85SAPS  H11Y 8123   5.140  -0.008   8.921 -0.8815 -1.1313 -0.3887
   85SAPS  C312 8124   5.063   0.163   8.811 -0.1375  0.5681  0.5682
   85SAPS  H12X 8125   5.158   0.216   8.788  1.0700 -1.7523 -0.1263
   85SAPS  H12Y 8126   4.981   0.236   8.827 -0.5301  0.4033 -0.5661
   85SAPS  C313 8127   5.041   0.069   8.691  0.1578 -0.6739 -0.1106
   85SAPS  H13X 8128   4.960  -0.006   8.705 -1.4181  1.2939  2.3985
   85SAPS  H13Y 8129   5.140   0.020   8.682  0.3719 -0.3459  0.3819
   85SAPS  C314 8130   5.026   0.130   8.546 -0.3445 -0.4319 -0.3229
   85SAPS  H14X 8131   5.128   0.163   8.516 -0.3959  0.0244 -0.0052
   85SAPS  H14Y 8132   4.965   0.223   8.553 -0.1062 -0.3479  0.8407
   85SAPS  C315 8133   4.944   0.037   8.453 -0.2675  0.5903  0.0038
   85SAPS  H15X 8134   4.940   0.092   8.357 -0.5914  0.1129 -0.2558
   85SAPS  H15Y 8135   4.835   0.033   8.474 -0.1068 -1.1807  0.6360
   85SAPS  C316 8136   5.010  -0.102   8.432 -0.2623  0.0096 -0.5486
   85SAPS  H16X 8137   4.970  -0.169   8.511  1.4892  1.4310  1.6446
   85SAPS  H16Y 8138   5.120  -0.097   8.450 -0.2705 -4.2462  2.0577
   85SAPS  C317 8139   4.974  -0.157   8.296  0.6553 -1.0778 -0.2729
   85SAPS  H17X 8140   5.024  -0.089   8.224  1.3370  2.3062  3.1041
   85SAPS  H17Y 8141   4.865  -0.151   8.278  0.6886  0.2483 -0.1423
   85SAPS  C318 8142   5.019  -0.296   8.275 -0.3084  0.4368  0.0698
   85SAPS  H18X 8143   4.986  -0.337   8.177 -0.8464 -1.0034  0.8198
   85SAPS  H18Y 8144   4.974  -0.356   8.357  0.3312 -0.1142  0.0301
   85SAPS  H18Z 8145   5.130  -0.301   8.279 -0.3090  0.5504  0.2151
   86SAPS     N 8146   2.355   6.387  11.051  0.0480 -0.2484 -0.1678
   86SAPS   HN1 8147   2.333   6.393  11.152  0.9857 -2.0955  0.1921
   86SAPS   HN2 8148   2.436   6.324  11.037 -0.8916 -1.8001  1.0957
   86SAPS   HN3 8149   2.380   6.485  11.026  1.6178 -0.3686  0.8449
   86SAPS   C12 8150   2.239   6.337  10.979  0.1578 -0.5028 -0.3672
   86SAPS  H12A 8151   2.193   6.262  11.042 -0.6856  1.2642  1.2280
   86SAPS   C13 8152   2.128   6.443  10.961 -0.4542  0.7148 -0.5441
   86SAPS  O13A 8153   2.135   6.553  11.014 -0.2737 -0.0703 -0.4707
   86SAPS  O13B 8154   2.023   6.402  10.903  0.1562  0.0268  0.7301
   86SAPS   C11 8155   2.292   6.285  10.843 -0.0744  0.3996 -0.1879
   86SAPS  H11A 8156   2.335   6.368  10.783  0.0746  1.3184  1.1285
   86SAPS  H11B 8157   2.208   6.233  10.794 -1.7702  1.0234  1.9186
   86SAPS     P 8158   2.366   6.032  10.889  0.0770  0.0815 -0.1585
   86SAPS   O13 8159   2.471   5.992  10.980 -0.5048  0.0413  0.0717
   86SAPS   O14 8160   2.226   6.000  10.928  0.6200  0.0538 -0.3450
   86SAPS   O12 8161   2.391   6.182  10.855  0.0732 -0.0475 -0.2398
   86SAPS   O11 8162   2.395   5.958  10.748  0.0556 -1.3993  0.2751
   86SAPS    C1 8163   2.474   6.013  10.644  0.1907  0.0372  0.4659
   86SAPS    HA 8164   2.575   6.051  10.673  0.3508  0.8734 -1.0811
   86SAPS    HB 8165   2.496   5.932  10.571 -2.4142 -2.6465  2.4215
   86SAPS    C2 8166   2.410   6.132  10.565 -0.3018 -0.1828  0.5438
   86SAPS    HS 8167   2.430   6.221  10.629  1.9814  0.8609 -1.4695
   86SAPS   O21 8168   2.270   6.105  10.554 -0.2228  0.2779  0.5482
   86SAPS   C21 8169   2.201   6.205  10.500 -0.6454  0.3056  0.1109
   86SAPS   O22 8170   2.246   6.312  10.469 -0.1147 -0.3497  0.3217
   86SAPS   C22 8171   2.061   6.161  10.454 -0.7208 -0.2197 -0.6094
   86SAPS   H2R 8172   2.034   6.070  10.513 -1.2465  0.1643 -0.2525
   86SAPS   H2S 8173   2.000   6.242  10.498  2.3138  2.2051 -0.5707
   86SAPS    C3 8174   2.489   6.174  10.440 -0.3071 -0.1765  0.2473
   86SAPS    HX 8175   2.597   6.152  10.458 -0.3521 -1.0218 -0.4377
   86SAPS    HY 8176   2.475   6.284  10.431 -0.9874 -0.0391  2.5221
   86SAPS   O31 8177   2.455   6.091  10.325  0.7732  0.2400  0.1954
   86SAPS   C31 8178   2.448   6.159  10.208 -0.2261 -0.3755 -0.8943
   86SAPS   O32 8179   2.489   6.272  10.196  0.1907  0.5073  0.3986
   86SAPS   C32 8180   2.379   6.069  10.106 -0.6211 -0.2382  0.6520
   86SAPS   H2X 8181   2.275   6.047  10.140 -1.1231  0.4907 -0.3621
   86SAPS   H2Y 8182   2.437   5.974  10.100 -1.9740 -1.0365 -0.5734
   86SAPS   C23 8183   2.051   6.139  10.303  0.2512 -0.5395 -0.3104
   86SAPS   H3R 8184   2.118   6.054  10.277 -0.0487 -0.7225 -0.5082
   86SAPS   H3S 8185   2.091   6.225  10.244  3.5811 -1.7817 -0.0853
   86SAPS   C24 8186   1.915   6.097  10.249 -0.2095 -0.3573 -0.5500
   86SAPS   H4R 8187   1.842   6.176  10.278  1.8660  2.0582 -1.4502
   86SAPS   H4S 8188   1.880   6.003  10.296 -1.6671  1.1230  1.4953
   86SAPS   C25 8189   1.915   6.092  10.099 -0.2359  0.1506  0.1859
   86SAPS   H5R 8190   1.948   5.991  10.070 -0.3607  0.1212  0.1438
   86SAPS   C26 8191   1.890   6.188  10.008 -0.4618 -0.1473 -0.4459
   86SAPS   H6R 8192   1.899   6.165   9.901 -1.6649  0.1527 -0.6319
   86SAPS   C27 8193   1.853   6.323  10.044 -0.1682  0.1185  0.4187
   86SAPS   H7R 8194   1.937   6.394  10.028 -1.4988  1.3137 -1.8450
   86SAPS   H7S 8195   1.828   6.335  10.152  1.4101 -0.9136  0.9266
   86SAPS   C28 8196   1.736   6.370   9.962 -0.4301  0.4525  0.3522
   86SAPS   H8R 8197   1.641   6.320   9.986 -0.6128 -0.0788 -1.3449
   86SAPS   C29 8198   1.738   6.459   9.862 -0.1722 -0.3432 -0.0838
   86SAPS   H9R 8199   1.647   6.496   9.810 -0.9319 -0.2513  1.2740
   86SAPS  C210 8200   1.864   6.522   9.808 -0.7316  0.1496 -1.0263
   86SAPS  H10R 8201   1.848   6.552   9.702 -1.4526 -0.6616 -1.1525
   86SAPS  H10S 8202   1.949   6.451   9.805 -0.0994  0.5855  2.0607
   86SAPS  C211 8203   1.886   6.646   9.889 -0.2748  0.3080  0.1462
   86SAPS  H11R 8204   1.800   6.685   9.945 -2.0655  0.0053 -2.2249
   86SAPS  C212 8205   2.004   6.707   9.896 -0.5638 -0.0573 -0.5492
   86SAPS  H12R 8206   2.010   6.803   9.949 -2.3626  0.0985 -0.5721
   86SAPS  C213 8207   2.130   6.661   9.822  0.3696  0.4317 -0.0483
   86SAPS  H13R 8208   2.102   6.579   9.752  0.7938  0.2873 -0.0583
   86SAPS  H13S 8209   2.192   6.615   9.903 -0.5068  2.0763  1.6222
   86SAPS  C214 8210   2.200   6.780   9.764 -0.2994 -0.0683  0.9412
   86SAPS  H14R 8211   2.182   6.881   9.804  0.4430  0.3955  0.1564
   86SAPS  C215 8212   2.265   6.768   9.644 -0.1570 -0.3028  0.0379
   86SAPS  H15R 8213   2.317   6.853   9.597 -0.8103 -1.1362 -2.2986
   86SAPS  C216 8214   2.283   6.635   9.577 -0.6027 -0.0700  0.4268
   86SAPS  H16R 8215   2.297   6.548   9.645  0.6545  1.3452  2.0705
   86SAPS  H16S 8216   2.370   6.637   9.509 -0.1172  0.2967  1.0388
   86SAPS  C217 8217   2.179   6.607   9.469  0.8436 -0.2715  0.2681
   86SAPS  H17R 8218   2.086   6.566   9.514  1.0396 -0.2001  0.7425
   86SAPS  H17S 8219   2.209   6.514   9.416 -0.3053 -1.2989  1.3518
   86SAPS  C218 8220   2.142   6.720   9.370 -0.6483  0.2601 -0.1537
   86SAPS  H18R 8221   2.228   6.790   9.368 -1.0906  0.9093  1.5003
   86SAPS  H18S 8222   2.047   6.759   9.414  0.1405  1.7184  0.3290
   86SAPS  C219 8223   2.097   6.677   9.231 -0.3514  0.0387  0.2814
   86SAPS  H19R 8224   2.034   6.587   9.250  0.7426 -0.6129  0.9452
   86SAPS  H19S 8225   2.184   6.639   9.173  0.4356  1.6340  0.3863
   86SAPS  C220 8226   2.032   6.782   9.147  1.0467  0.1127 -0.7783
   86SAPS  H20R 8227   1.948   6.831   9.202  1.3138  0.0486 -0.3088
   86SAPS  H20S 8228   1.989   6.748   9.050 -3.7159 -1.9352  1.7054
   86SAPS  H20T 8229   2.098   6.868   9.124  2.3000  0.4682  3.3742
   86SAPS   C33 8230   2.365   6.127   9.962 -0.4866  0.2118  0.2957
   86SAPS   H3X 8231   2.377   6.049   9.884  0.7388  1.5628 -0.9266
   86SAPS   H3Y 8232   2.455   6.192   9.948  0.0280 -0.6988 -0.7486
   86SAPS   C34 8233   2.244   6.223   9.942 -0.1570 -0.8631  0.7325
   86SAPS   H4X 8234   2.260   6.299  10.022 -0.6532  1.2341 -1.0536
   86SAPS   H4Y 8235   2.157   6.158   9.962 -0.2341 -0.3699  2.1191
   86SAPS   C35 8236   2.227   6.287   9.803 -0.5580  0.1791 -0.0104
   86SAPS   H5X 8237   2.295   6.374   9.797  0.8019 -0.8195  0.5051
   86SAPS   H5Y 8238   2.124   6.328   9.797 -0.6193 -0.0749 -0.7947
   86SAPS   C36 8239   2.238   6.202   9.675 -0.4985 -0.6522  0.3066
   86SAPS   H6X 8240   2.336   6.151   9.660  0.8639  1.9911 -0.3915
   86SAPS   H6Y 8241   2.227   6.266   9.584  0.9939  0.8001  1.0767
   86SAPS   C37 8242   2.133   6.093   9.665  0.3257  0.1353  0.0530
   86SAPS   H7X 8243   2.127   6.031   9.757  1.0411 -2.1557 -1.3620
   86SAPS   H7Y 8244   2.160   6.023   9.583 -0.4987  1.3383 -1.2981
   86SAPS   C38 8245   1.987   6.141   9.618 -0.3087 -0.6396  0.2231
   86SAPS   H8X 8246   1.936   6.208   9.690 -0.7761  0.2822 -0.9516
   86SAPS   H8Y 8247   1.931   6.046   9.601 -1.1280 -0.4824  1.8068
   86SAPS   C39 8248   1.993   6.220   9.478 -0.2586  0.7215 -0.3306
   86SAPS   H9X 8249   2.057   6.310   9.486 -0.5384  0.8841  0.1753
   86SAPS   H9Y 8250   1.891   6.255   9.452 -0.9026 -0.5165  0.4335
   86SAPS  C310 8251   2.035   6.128   9.365  0.0543 -0.1225  0.6789
   86SAPS  H10X 8252   1.991   6.027   9.365  2.5693 -1.3068 -0.9217
   86SAPS  H10Y 8253   2.146   6.122   9.356 -0.1411 -0.6705 -2.4589
   86SAPS  C311 8254   1.999   6.187   9.223 -0.0617  0.4285 -0.7571
   86SAPS  H11X 8255   2.056   6.282   9.212  1.4105 -0.4496 -0.8553
   86SAPS  H11Y 8256   1.890   6.194   9.198 -0.0078 -1.0645 -1.4936
   86SAPS  C312 8257   2.043   6.091   9.111 -0.1494  0.1961  0.8085
   86SAPS  H12X 8258   1.966   6.011   9.115 -1.4550  1.3866  0.1410
   86SAPS  H12Y 8259   2.139   6.045   9.144 -0.4412 -0.6153  0.5387
   86SAPS  C313 8260   2.046   6.151   8.972  0.5599 -0.1173 -0.1504
   86SAPS  H13X 8261   2.125   6.227   8.955  0.0755  0.7266  1.1936
   86SAPS  H13Y 8262   1.948   6.203   8.968  0.5761 -0.0407  0.3646
   86SAPS  C314 8263   2.049   6.042   8.870 -0.2224  0.0050  0.0995
   86SAPS  H14X 8264   1.985   5.959   8.906  2.6764 -2.1833  0.6409
   86SAPS  H14Y 8265   2.155   6.006   8.871 -0.7394 -1.5736  0.5378
   86SAPS  C315 8266   2.028   6.092   8.724  1.0702  0.2796  0.0940
   86SAPS  H15X 8267   2.094   6.180   8.709  1.8195 -0.3077 -0.1594
   86SAPS  H15Y 8268   1.926   6.135   8.721  1.4601  1.2420  0.3802
   86SAPS  C316 8269   2.066   5.996   8.618 -0.2803  0.7338 -1.0743
   86SAPS  H16X 8270   2.000   5.907   8.619 -0.2364  0.6815 -1.9025
   86SAPS  H16Y 8271   2.166   5.964   8.655 -1.0619  0.7124  1.1406
   86SAPS  C317 8272   2.066   6.066   8.485 -0.0734  0.3560  0.4075
   86SAPS  H17X 8273   2.140   6.148   8.476 -0.8510  0.9814 -0.5026
   86SAPS  H17Y 8274   1.965   6.110   8.471 -0.4678 -0.3007  1.1105
   86SAPS  C318 8275   2.092   5.962   8.374 -0.0749 -0.0970 -0.2258
   86SAPS  H18X 8276   2.079   6.013   8.276 -0.3043  0.7296  0.2230
   86SAPS  H18Y 8277   2.017   5.880   8.365  0.1723 -0.0586 -3.9836
   86SAPS  H18Z 8278   2.198   5.932   8.377  0.2138  0.9320  1.6102
   87SAPS     N 8279   0.317   6.039  10.925  0.3597  0.1433  0.6297
   87SAPS   HN1 8280   0.372   5.986  10.855  0.3275  0.1276  0.6168
   87SAPS   HN2 8281   0.295   5.968  10.998  1.0886 -1.0063 -0.2354
   87SAPS   HN3 8282   0.226   6.077  10.892  0.2983  0.0016  0.6338
   87SAPS   C12 8283   0.399   6.148  10.988 -0.0453  1.1863  0.0805
   87SAPS  H12A 8284   0.420   6.229  10.920  1.6654 -0.4638 -1.4792
   87SAPS   C13 8285   0.326   6.211  11.114  0.3380 -0.3991  0.2029
   87SAPS  O13A 8286   0.215   6.167  11.150  0.0165 -0.1825 -0.7437
   87SAPS  O13B 8287   0.362   6.333  11.147  0.6868 -0.1808  0.1493
   87SAPS   C11 8288   0.541   6.095  11.043 -0.0520 -0.8306  0.3564
   87SAPS  H11A 8289   0.522   6.045  11.141  0.8743  0.2361  1.1040
   87SAPS  H11B 8290   0.604   6.185  11.056 -1.7788  0.3636  0.8589
   87SAPS     P 8291   0.677   5.885  10.965 -0.1321 -0.0717  0.3093
   87SAPS   O13 8292   0.768   5.907  11.083  0.2860 -0.3686 -0.0902
   87SAPS   O14 8293   0.573   5.783  10.968  0.2986  0.1277  0.5827
   87SAPS   O12 8294   0.597   6.020  10.940  0.4408 -0.2036 -0.0198
   87SAPS   O11 8295   0.757   5.878  10.827 -0.2548 -0.1141  0.3638
   87SAPS    C1 8296   0.852   5.979  10.782 -0.2422 -0.8937 -0.2004
   87SAPS    HA 8297   0.834   6.076  10.833  0.1091 -0.4076 -0.9649
   87SAPS    HB 8298   0.960   5.956  10.797  0.0913  1.8423  2.3898
   87SAPS    C2 8299   0.827   6.010  10.635  0.4148 -0.1968  0.1075
   87SAPS    HS 8300   0.722   6.047  10.629  0.4491 -0.0210  0.5415
   87SAPS   O21 8301   0.847   5.886  10.569 -0.2971  0.5562 -0.5368
   87SAPS   C21 8302   0.744   5.836  10.504  0.0761  0.4699  0.1332
   87SAPS   O22 8303   0.633   5.893  10.497  0.7149  0.6609 -0.1413
   87SAPS   C22 8304   0.786   5.693  10.448  0.6549 -0.2218  0.0594
   87SAPS   H2R 8305   0.896   5.694  10.433  0.7509 -2.0595  0.4106
   87SAPS   H2S 8306   0.777   5.625  10.535  2.3136 -0.1835  0.2878
   87SAPS    C3 8307   0.925   6.110  10.571  0.0349 -0.2999  0.6566
   87SAPS    HX 8308   1.028   6.067  10.569  0.5725  0.9811 -0.2049
   87SAPS    HY 8309   0.943   6.197  10.637 -1.2652  0.1540  0.4303
   87SAPS   O31 8310   0.897   6.144  10.430  0.1140  0.0266 -0.5015
   87SAPS   C31 8311   0.849   6.264  10.407  0.2025  0.0597 -0.3539
   87SAPS   O32 8312   0.834   6.352  10.491  0.6590  0.4384  0.0177
   87SAPS   C32 8313   0.815   6.278  10.258 -0.5540  0.2045 -0.2324
   87SAPS   H2X 8314   0.719   6.223  10.249 -1.4213  1.5709  0.3326
   87SAPS   H2Y 8315   0.876   6.214  10.190 -0.9562  0.8076 -1.1717
   87SAPS   C23 8316   0.698   5.655  10.318  0.3032 -0.0628 -0.0638
   87SAPS   H3R 8317   0.718   5.728  10.237 -0.4736 -0.3106 -0.4881
   87SAPS   H3S 8318   0.589   5.667  10.336  0.2849  1.7009 -1.0988
   87SAPS   C24 8319   0.715   5.511  10.263 -0.1147 -0.1101 -0.2933
   87SAPS   H4R 8320   0.630   5.488  10.196 -1.4562  1.0116  0.9765
   87SAPS   H4S 8321   0.716   5.450  10.356 -0.4042 -0.3031 -0.4161
   87SAPS   C25 8322   0.855   5.497  10.197  0.6294  0.0300  0.3567
   87SAPS   H5R 8323   0.942   5.502  10.264 -0.5890  2.0505  1.8782
   87SAPS   C26 8324   0.866   5.513  10.063 -0.2156 -0.5302 -0.2895
   87SAPS   H6R 8325   0.967   5.513  10.018  0.8057  0.6975  1.8428
   87SAPS   C27 8326   0.758   5.542   9.962 -0.1932 -0.0156  0.1990
   87SAPS   H7R 8327   0.799   5.618   9.892 -0.0846 -1.5678 -1.4933
   87SAPS   H7S 8328   0.674   5.597  10.010 -1.0262 -1.0111 -0.0814
   87SAPS   C28 8329   0.703   5.427   9.883 -0.1739  0.1148  0.0029
   87SAPS   H8R 8330   0.605   5.388   9.914 -0.2393  0.2717 -0.0054
   87SAPS   C29 8331   0.762   5.373   9.780  0.0437  0.0010  0.1358
   87SAPS   H9R 8332   0.705   5.305   9.715  0.5876 -1.0025  0.6973
   87SAPS  C210 8333   0.895   5.419   9.722  0.2134  1.2906  0.0288
   87SAPS  H10R 8334   0.932   5.324   9.679 -1.1020  0.4960  0.6011
   87SAPS  H10S 8335   0.962   5.457   9.802 -0.1388 -0.7974  1.3835
   87SAPS  C211 8336   0.881   5.519   9.609  0.0443  0.6236  0.2642
   87SAPS  H11R 8337   0.889   5.623   9.642  3.2813  0.7696 -0.6650
   87SAPS  C212 8338   0.886   5.481   9.480  0.1880  0.2887 -0.0063
   87SAPS  H12R 8339   0.850   5.549   9.402  0.9151  0.2231 -0.4134
   87SAPS  C213 8340   0.884   5.340   9.427 -0.3095 -0.2283 -0.2664
   87SAPS  H13R 8341   0.799   5.289   9.476  2.1138 -1.7544  2.6696
   87SAPS  H13S 8342   0.979   5.294   9.462 -0.2470  0.1386  0.0547
   87SAPS  C214 8343   0.892   5.327   9.277 -0.6314  0.0408 -0.4209
   87SAPS  H14R 8344   0.997   5.317   9.245 -0.0959 -2.4451  1.7312
   87SAPS  C215 8345   0.791   5.323   9.198  0.8552  0.3966  0.1636
   87SAPS  H15R 8346   0.814   5.316   9.091  0.6810 -0.8050  0.1884
   87SAPS  C216 8347   0.642   5.330   9.245 -0.0067  0.4112 -0.1541
   87SAPS  H16R 8348   0.625   5.382   9.342  1.6874 -0.1951  0.5060
   87SAPS  H16S 8349   0.602   5.227   9.259 -1.7594  1.2603  1.4814
   87SAPS  C217 8350   0.555   5.405   9.144  0.4078 -0.2577  0.2063
   87SAPS  H17R 8351   0.448   5.389   9.171  0.1573  0.8411 -0.0979
   87SAPS  H17S 8352   0.581   5.359   9.046 -0.3691  1.4251 -0.8286
   87SAPS  C218 8353   0.576   5.554   9.133 -0.1440 -0.1900 -0.6587
   87SAPS  H18R 8354   0.568   5.592   9.236 -1.1620 -1.8010 -0.1002
   87SAPS  H18S 8355   0.496   5.595   9.067 -1.2576 -0.1395  0.6837
   87SAPS  C219 8356   0.716   5.617   9.091  0.3002  0.0695 -0.3974
   87SAPS  H19R 8357   0.788   5.577   9.165 -0.4394  0.0657  0.3243
   87SAPS  H19S 8358   0.712   5.728   9.100  2.5666  0.3780 -2.2004
   87SAPS  C220 8359   0.762   5.584   8.949 -0.4413  0.0448 -0.7418
   87SAPS  H20R 8360   0.794   5.478   8.943 -1.6772 -0.3475 -0.6264
   87SAPS  H20S 8361   0.849   5.648   8.923  0.8911 -1.6440 -0.6293
   87SAPS  H20T 8362   0.678   5.591   8.877 -0.2726  1.1611 -0.8527
   87SAPS   C33 8363   0.802   6.424  10.219 -0.0295  0.1671  0.4128
   87SAPS   H3X 8364   0.898   6.479  10.226  0.5232 -0.7746  0.4287
   87SAPS   H3Y 8365   0.723   6.475  10.277 -0.4360  0.1929 -0.1541
   87SAPS   C34 8366   0.748   6.450  10.068 -0.3895  0.4725  0.0024
   87SAPS   H4X 8367   0.709   6.553  10.049 -0.7117  0.2113 -0.7940
   87SAPS   H4Y 8368   0.665   6.380  10.045  0.1944 -0.8699  1.7495
   87SAPS   C35 8369   0.868   6.427   9.970 -0.0295 -1.1362  0.1374
   87SAPS   H5X 8370   0.904   6.323   9.973  0.0170 -1.1139  0.3757
   87SAPS   H5Y 8371   0.948   6.493  10.011 -1.0141  2.2386 -2.8220
   87SAPS   C36 8372   0.832   6.464   9.826  1.0546 -0.4547 -0.4230
   87SAPS   H6X 8373   0.815   6.574   9.820 -0.6249 -0.6958 -0.7262
   87SAPS   H6Y 8374   0.736   6.418   9.795  0.8317 -0.9157  0.8681
   87SAPS   C37 8375   0.936   6.440   9.714  0.1273 -0.0117 -0.0984
   87SAPS   H7X 8376   0.968   6.334   9.712  3.1866  0.8268 -1.3447
   87SAPS   H7Y 8377   1.037   6.482   9.736  1.2796 -1.3028 -2.6207
   87SAPS   C38 8378   0.891   6.481   9.574  0.4981  0.2531 -0.3046
   87SAPS   H8X 8379   0.859   6.588   9.570  1.8818  0.6505 -1.4754
   87SAPS   H8Y 8380   0.797   6.429   9.547  0.1215  0.0843  1.2252
   87SAPS   C39 8381   1.004   6.459   9.473  0.0410  0.2451  0.6190
   87SAPS   H9X 8382   1.045   6.360   9.502  0.4406 -0.0002 -0.6993
   87SAPS   H9Y 8383   1.089   6.530   9.479 -0.7328  1.2288  0.3020
   87SAPS  C310 8384   0.969   6.452   9.328 -0.2514 -0.5412 -0.1024
   87SAPS  H10X 8385   0.929   6.548   9.288 -0.0669 -0.9874 -1.4214
   87SAPS  H10Y 8386   0.884   6.379   9.324 -0.0944 -0.7754  0.6500
   87SAPS  C311 8387   1.084   6.417   9.226 -0.3016  1.4318 -0.2845
   87SAPS  H11X 8388   1.134   6.325   9.264 -1.0886  1.6122  1.2580
   87SAPS  H11Y 8389   1.153   6.503   9.215  1.0003  0.2489 -2.0463
   87SAPS  C312 8390   1.029   6.384   9.081 -0.4030 -0.2045 -0.3505
   87SAPS  H12X 8391   1.116   6.397   9.013  1.0197 -3.4608  0.6355
   87SAPS  H12Y 8392   0.949   6.458   9.064 -0.8436 -0.1161  1.8427
   87SAPS  C313 8393   0.976   6.245   9.066 -0.1652 -1.0276  0.3705
   87SAPS  H13X 8394   0.882   6.240   9.124  0.6320 -0.3663  1.7767
   87SAPS  H13Y 8395   1.032   6.159   9.109  0.4717 -0.5271  0.5679
   87SAPS  C314 8396   0.956   6.215   8.916  0.0077  0.3977 -0.6437
   87SAPS  H14X 8397   1.041   6.249   8.855 -1.1816  2.5239 -1.2080
   87SAPS  H14Y 8398   0.873   6.283   8.886 -0.9214 -0.5035 -0.1933
   87SAPS  C315 8399   0.919   6.072   8.885 -0.0582  0.2261  0.6240
   87SAPS  H15X 8400   0.912   6.009   8.976  0.5194 -0.8866 -0.0688
   87SAPS  H15Y 8401   1.003   6.031   8.825 -0.6389  0.0768 -0.1241
   87SAPS  C316 8402   0.798   6.057   8.793  0.1156 -0.2744 -0.0997
   87SAPS  H16X 8403   0.706   6.087   8.847 -0.3139  0.1950 -1.0656
   87SAPS  H16Y 8404   0.790   5.947   8.777 -1.7876 -0.3256  0.9975
   87SAPS  C317 8405   0.788   6.130   8.656  0.0258  0.4543  0.2828
   87SAPS  H17X 8406   0.873   6.091   8.594 -1.0559 -2.1154  0.2959
   87SAPS  H17Y 8407   0.809   6.238   8.667  4.1574  0.0107 -1.2020
   87SAPS  C318 8408   0.649   6.126   8.574 -0.7073  0.3044 -0.4098
   87SAPS  H18X 8409   0.561   6.135   8.642 -2.9203 -1.7797 -2.8044
   87SAPS  H18Y 8410   0.632   6.030   8.520  0.8242  0.5188 -1.3113
   87SAPS  H18Z 8411   0.650   6.208   8.500  1.1550  0.4901 -0.2245
   88SAPS     N 8412   2.543   5.681  10.937  0.4498 -0.1832  0.4558
   88SAPS   HN1 8413   2.629   5.715  10.889 -0.2589  1.8798  0.5562
   88SAPS   HN2 8414   2.488   5.621  10.872 -1.4210  2.0619 -0.1645
   88SAPS   HN3 8415   2.484   5.763  10.959  0.9946  0.9022 -1.7898
   88SAPS   C12 8416   2.579   5.613  11.063 -0.7766  0.0150  0.1962
   88SAPS  H12A 8417   2.649   5.681  11.109 -0.2034 -1.3727  1.4821
   88SAPS   C13 8418   2.459   5.588  11.155 -0.6069 -0.5373 -0.0297
   88SAPS  O13A 8419   2.344   5.641  11.134 -0.4395 -0.5393 -0.5164
   88SAPS  O13B 8420   2.480   5.547  11.270 -0.4618  0.7343 -0.0996
   88SAPS   C11 8421   2.656   5.481  11.024 -0.3782  0.0647  0.0695
   88SAPS  H11A 8422   2.587   5.413  10.970  0.8430  0.0013 -1.4574
   88SAPS  H11B 8423   2.691   5.423  11.112  0.2246 -1.3599 -1.0675
   88SAPS     P 8424   2.885   5.423  10.900  0.2835 -0.1617  0.0353
   88SAPS   O13 8425   3.014   5.494  10.911  0.7636  0.2970  0.0626
   88SAPS   O14 8426   2.882   5.303  10.984 -0.1957  0.5462 -0.1309
   88SAPS   O12 8427   2.762   5.515  10.934  0.1580 -0.4639 -0.5483
   88SAPS   O11 8428   2.857   5.376  10.750 -0.5450  0.3062 -0.1862
   88SAPS    C1 8429   2.727   5.314  10.722 -0.0797  0.6083  0.0244
   88SAPS    HA 8430   2.688   5.256  10.809 -1.9386  1.2745 -0.3131
   88SAPS    HB 8431   2.654   5.396  10.706  0.3969  1.2237  0.9568
   88SAPS    C2 8432   2.737   5.209  10.602  0.5673  0.4245 -0.2632
   88SAPS    HS 8433   2.808   5.130  10.637  1.6103  0.9545 -1.1435
   88SAPS   O21 8434   2.786   5.281  10.492 -0.2260 -0.1301 -0.4654
   88SAPS   C21 8435   2.853   5.206  10.411  0.2480 -0.4566 -0.1512
   88SAPS   O22 8436   2.894   5.089  10.423  0.0721  0.5249  0.3593
   88SAPS   C22 8437   2.894   5.284  10.286  0.0886  0.3648 -0.3986
   88SAPS   H2R 8438   2.813   5.350  10.248 -3.1685 -1.0685  3.3967
   88SAPS   H2S 8439   2.971   5.353  10.326 -0.5592  0.1812  1.2181
   88SAPS    C3 8440   2.600   5.135  10.575 -0.8911 -0.3040 -0.0808
   88SAPS    HX 8441   2.532   5.206  10.524 -0.2514  0.8553  0.6440
   88SAPS    HY 8442   2.548   5.126  10.673 -3.1954 -0.0915 -1.2162
   88SAPS   O31 8443   2.610   5.013  10.502  0.3703  0.1759 -0.3590
   88SAPS   C31 8444   2.678   4.917  10.562  0.4576  0.3492  0.2387
   88SAPS   O32 8445   2.712   4.922  10.677 -0.5724 -0.6094  0.1928
   88SAPS   C32 8446   2.738   4.821  10.461  0.1572  0.2160  0.5516
   88SAPS   H2X 8447   2.765   4.876  10.368  0.0671  1.5091  1.2762
   88SAPS   H2Y 8448   2.666   4.739  10.439 -1.6328  1.7525  0.4598
   88SAPS   C23 8449   2.959   5.198  10.169 -0.1082  0.0886  0.5631
   88SAPS   H3R 8450   3.022   5.115  10.207  0.6334 -0.4718 -1.7167
   88SAPS   H3S 8451   3.026   5.272  10.120 -0.5686  0.5715  0.6610
   88SAPS   C24 8452   2.852   5.134  10.073  0.6822  0.2715 -0.2522
   88SAPS   H4R 8453   2.820   5.221  10.012  1.5090  0.8969  0.1837
   88SAPS   H4S 8454   2.770   5.099  10.139  0.4151  0.8050 -0.2955
   88SAPS   C25 8455   2.913   5.028   9.981 -0.7346  0.7386 -0.6078
   88SAPS   H5R 8456   2.909   4.924  10.017 -1.1606  1.3070  1.0827
   88SAPS   C26 8457   2.968   5.042   9.860  0.1331 -0.3111  0.2921
   88SAPS   H6R 8458   3.001   4.949   9.812 -0.1262  0.2532 -1.0185
   88SAPS   C27 8459   2.988   5.172   9.785 -0.3561  0.1315 -0.1231
   88SAPS   H7R 8460   2.949   5.252   9.851  0.0108 -1.3333  1.9779
   88SAPS   H7S 8461   2.919   5.174   9.698  0.3965  1.9446 -0.7338
   88SAPS   C28 8462   3.134   5.189   9.747 -0.1860  0.2497 -0.1801
   88SAPS   H8R 8463   3.199   5.224   9.828 -0.4680  0.9116 -0.2312
   88SAPS   C29 8464   3.178   5.161   9.624 -0.6474  0.2136  0.3476
   88SAPS   H9R 8465   3.284   5.176   9.602 -0.8134 -1.1035 -1.7145
   88SAPS  C210 8466   3.100   5.100   9.513 -0.0368 -0.6063 -0.4252
   88SAPS  H10R 8467   3.022   5.035   9.558 -1.1424  0.9166 -0.0575
   88SAPS  H10S 8468   3.161   5.028   9.454 -0.4917 -2.5110  1.3313
   88SAPS  C211 8469   3.030   5.202   9.427  1.2078 -0.4332  0.7934
   88SAPS  H11R 8470   2.991   5.289   9.482  0.6521 -0.6622  0.7665
   88SAPS  C212 8471   3.010   5.192   9.291  0.6322 -0.0854  0.0279
   88SAPS  H12R 8472   2.947   5.262   9.235  1.2517 -0.9236 -1.7888
   88SAPS  C213 8473   3.051   5.079   9.199 -0.3789  0.4736  0.0303
   88SAPS  H13R 8474   3.025   4.982   9.246 -1.0801 -0.1760 -1.6165
   88SAPS  H13S 8475   3.156   5.088   9.166 -0.1341 -0.0053  0.6629
   88SAPS  C214 8476   2.971   5.071   9.072 -0.0954  0.1881  0.0465
   88SAPS  H14R 8477   2.871   5.028   9.089  0.2365 -0.1333  1.3486
   88SAPS  C215 8478   2.989   5.131   8.959 -0.3895 -0.2148 -0.0281
   88SAPS  H15R 8479   2.905   5.138   8.890 -2.8790  1.3204  2.9180
   88SAPS  C216 8480   3.114   5.214   8.922  0.3539 -0.2077  0.1606
   88SAPS  H16R 8481   3.163   5.255   9.013 -0.0107 -0.7224  0.5919
   88SAPS  H16S 8482   3.088   5.312   8.875 -2.8536 -0.0527  1.9739
   88SAPS  C217 8483   3.217   5.140   8.837 -0.2982  0.6520 -0.3430
   88SAPS  H17R 8484   3.167   5.079   8.759  0.5210 -0.6450  0.1237
   88SAPS  H17S 8485   3.273   5.073   8.905 -0.5206  3.0012  2.3269
   88SAPS  C218 8486   3.325   5.237   8.778  0.6000  0.1461 -0.0866
   88SAPS  H18R 8487   3.371   5.291   8.863 -0.6260  2.6868 -0.9251
   88SAPS  H18S 8488   3.290   5.319   8.713 -1.3063 -1.5578 -1.3504
   88SAPS  C219 8489   3.431   5.152   8.712 -0.0952  0.5717 -0.0951
   88SAPS  H19R 8490   3.380   5.107   8.624 -1.8376  2.1025  0.0661
   88SAPS  H19S 8491   3.478   5.075   8.777  0.7536  0.7749 -0.4596
   88SAPS  C220 8492   3.541   5.250   8.665  0.0339 -0.0453 -0.2391
   88SAPS  H20R 8493   3.556   5.322   8.748 -0.8055 -0.9216  0.7141
   88SAPS  H20S 8494   3.512   5.315   8.580 -2.1869 -0.1974  0.3239
   88SAPS  H20T 8495   3.640   5.207   8.640  0.7616 -0.1356  2.4305
   88SAPS   C33 8496   2.860   4.747  10.514 -0.5724  0.2100 -0.2848
   88SAPS   H3X 8497   2.833   4.681  10.600 -0.8121 -1.3905 -1.5431
   88SAPS   H3Y 8498   2.930   4.826  10.549  0.4560 -1.1584  0.8359
   88SAPS   C34 8499   2.946   4.682  10.407 -0.4404 -0.5649 -0.3894
   88SAPS   H4X 8500   3.030   4.638  10.465 -0.9704 -0.8132  0.1994
   88SAPS   H4Y 8501   2.973   4.769  10.343 -0.5725  0.6713  1.1670
   88SAPS   C35 8502   2.872   4.584  10.314 -0.8968  0.4703  0.3970
   88SAPS   H5X 8503   2.798   4.631  10.245  0.5159  1.3355 -0.5953
   88SAPS   H5Y 8504   2.832   4.506  10.382 -2.0829 -2.4280 -3.3470
   88SAPS   C36 8505   2.976   4.512  10.219 -0.4395 -0.5655  0.4218
   88SAPS   H6X 8506   2.922   4.431  10.165  1.8709 -0.0596 -2.9647
   88SAPS   H6Y 8507   3.066   4.489  10.280  0.2732  3.0970  0.9334
   88SAPS   C37 8508   3.018   4.611  10.104  0.2741  0.4236  0.4587
   88SAPS   H7X 8509   3.091   4.681  10.149  1.2076  0.4792 -1.0655
   88SAPS   H7Y 8510   2.933   4.674  10.071 -1.5497 -0.9625  2.2575
   88SAPS   C38 8511   3.072   4.547   9.982 -0.1965 -0.4317  0.4159
   88SAPS   H8X 8512   3.004   4.468   9.943  1.3719 -1.2670 -0.7633
   88SAPS   H8Y 8513   3.166   4.500  10.019 -1.0071 -0.9110  1.9735
   88SAPS   C39 8514   3.096   4.653   9.881 -0.3228 -0.2863  0.0955
   88SAPS   H9X 8515   3.166   4.733   9.915  0.7586 -1.3586  0.4673
   88SAPS   H9Y 8516   3.006   4.705   9.844  1.1650  1.4068 -1.3591
   88SAPS  C310 8517   3.169   4.609   9.753 -0.0314  0.2032  0.6300
   88SAPS  H10X 8518   3.111   4.533   9.697 -1.1776  0.6808  1.1210
   88SAPS  H10Y 8519   3.262   4.561   9.790  0.4985  0.3659 -0.4659
   88SAPS  C311 8520   3.203   4.716   9.648 -0.0707 -0.7126  0.1008
   88SAPS  H11X 8521   3.281   4.777   9.699 -0.5140  1.4468 -1.6616
   88SAPS  H11Y 8522   3.112   4.772   9.617 -0.0977 -1.0606 -0.4656
   88SAPS  C312 8523   3.259   4.657   9.518 -0.3529 -0.5376  0.2478
   88SAPS  H12X 8524   3.183   4.587   9.476 -0.1527  0.5360 -2.0746
   88SAPS  H12Y 8525   3.352   4.597   9.533  0.4912  0.4323 -0.9065
   88SAPS  C313 8526   3.288   4.755   9.411  0.1373 -0.3966  0.8419
   88SAPS  H13X 8527   3.356   4.837   9.442 -0.3942 -0.0094  0.9890
   88SAPS  H13Y 8528   3.189   4.794   9.379  0.6693  0.6341  0.4377
   88SAPS  C314 8529   3.358   4.693   9.286  0.4604 -0.2868 -0.0897
   88SAPS  H14X 8530   3.304   4.607   9.240  0.3516 -0.0760 -0.3608
   88SAPS  H14Y 8531   3.456   4.655   9.320  1.3560  0.9128 -1.2299
   88SAPS  C315 8532   3.394   4.801   9.175  0.2193  1.8231  0.2196
   88SAPS  H15X 8533   3.471   4.868   9.221  0.5542 -0.4457  3.3201
   88SAPS  H15Y 8534   3.304   4.860   9.150 -0.6093  0.5262  0.0953
   88SAPS  C316 8535   3.455   4.742   9.049  0.8648  0.2474 -0.1406
   88SAPS  H16X 8536   3.380   4.677   8.998  0.5942  0.7300 -0.3684
   88SAPS  H16Y 8537   3.533   4.672   9.086 -0.5152 -0.2510  1.9713
   88SAPS  C317 8538   3.499   4.837   8.928 -0.7713 -0.3983 -0.1236
   88SAPS  H17X 8539   3.434   4.926   8.928 -3.0839 -2.0091 -0.2509
   88SAPS  H17Y 8540   3.488   4.796   8.826  0.0705  0.8330 -0.7276
   88SAPS  C318 8541   3.648   4.877   8.940 -0.0453  0.2603  0.3911
   88SAPS  H18X 8542   3.679   4.908   9.041  2.1336  3.2955 -1.0469
   88SAPS  H18Y 8543   3.672   4.963   8.874  0.5854 -0.3722 -0.2262
   88SAPS  H18Z 8544   3.725   4.803   8.910  0.2575  1.0821 -0.9742
   89SAPS     N 8545   2.771   0.954  10.635  0.3605  0.0707  0.5729
   89SAPS   HN1 8546   2.802   0.868  10.586  0.6689  0.2486  0.4554
   89SAPS   HN2 8547   2.722   1.007  10.560  0.0412  0.7235  1.2218
   89SAPS   HN3 8548   2.842   1.017  10.678 -2.2504  3.3344  0.4810
   89SAPS   C12 8549   2.658   0.909  10.731 -0.0541 -0.2918  0.1647
   89SAPS  H12A 8550   2.714   0.882  10.819 -1.2627  0.3380  1.1623
   89SAPS   C13 8551   2.559   1.019  10.778 -0.3275  0.1313  1.0938
   89SAPS  O13A 8552   2.575   1.136  10.742  0.2442 -0.1639 -0.1272
   89SAPS  O13B 8553   2.471   0.987  10.865  0.1331  0.0236 -0.5126
   89SAPS   C11 8554   2.580   0.795  10.658 -0.6489  1.1400  0.9910
   89SAPS  H11A 8555   2.546   0.834  10.559 -1.0249 -0.3938  0.4767
   89SAPS  H11B 8556   2.494   0.776  10.725 -0.1109 -0.1556  1.3515
   89SAPS     P 8557   2.624   0.575  10.519  0.6513  0.0098 -0.1375
   89SAPS   O13 8558   2.723   0.465  10.510  0.5337 -0.1160  0.3317
   89SAPS   O14 8559   2.485   0.536  10.563 -0.1089 -0.0038 -0.0778
   89SAPS   O12 8560   2.658   0.680  10.631  0.5818  0.0921 -0.1031
   89SAPS   O11 8561   2.612   0.662  10.390 -0.0614  0.0426 -0.3454
   89SAPS    C1 8562   2.688   0.625  10.271 -0.3325  0.5444 -0.0204
   89SAPS    HA 8563   2.663   0.521  10.242 -1.0732  0.7756 -0.2481
   89SAPS    HB 8564   2.657   0.676  10.177  1.0002 -1.2436 -1.5260
   89SAPS    C2 8565   2.847   0.639  10.283  0.6359  0.9448  0.2118
   89SAPS    HS 8566   2.888   0.641  10.386  0.6972  2.2759  0.1741
   89SAPS   O21 8567   2.884   0.761  10.215  0.0411  0.1683 -0.0181
   89SAPS   C21 8568   2.927   0.858  10.290  1.0147 -0.3903 -0.5188
   89SAPS   O22 8569   2.941   0.864  10.411  0.0161  0.2770 -0.4291
   89SAPS   C22 8570   2.972   0.965  10.191  0.3695 -0.0726 -0.0578
   89SAPS   H2R 8571   2.953   1.065  10.236 -1.5522 -0.1637 -0.5581
   89SAPS   H2S 8572   3.082   0.960  10.180  0.3203 -0.0780 -0.5529
   89SAPS    C3 8573   2.914   0.507  10.219  0.0758  0.0036 -0.3504
   89SAPS    HX 8574   2.888   0.418  10.280  1.5064 -1.1130 -1.3020
   89SAPS    HY 8575   3.025   0.512  10.210  0.0861 -0.3075 -0.4135
   89SAPS   O31 8576   2.864   0.491  10.087  0.1280 -0.2766  0.0128
   89SAPS   C31 8577   2.930   0.537   9.978  1.1507  0.3939  0.1323
   89SAPS   O32 8578   3.047   0.565   9.975  0.0712 -0.0657  0.0429
   89SAPS   C32 8579   2.830   0.529   9.857 -0.9799 -0.2295 -0.0945
   89SAPS   H2X 8580   2.745   0.600   9.870 -1.8520 -1.2782  0.0650
   89SAPS   H2Y 8581   2.793   0.424   9.850  1.5871 -1.2873  0.9313
   89SAPS   C23 8582   2.888   0.969  10.058 -0.1442  0.2424 -0.4525
   89SAPS   H3R 8583   2.786   0.993  10.093 -0.1668  0.2193 -0.5039
   89SAPS   H3S 8584   2.882   0.871  10.006 -1.1924  1.3256 -2.4960
   89SAPS   C24 8585   2.933   1.070   9.950 -0.8156 -0.5478  0.2037
   89SAPS   H4R 8586   3.024   1.032   9.898 -1.7514 -2.1461 -0.3214
   89SAPS   H4S 8587   2.960   1.161  10.008  1.5562 -1.3490  0.4608
   89SAPS   C25 8588   2.824   1.094   9.853  0.6463 -0.2496  0.6674
   89SAPS   H5R 8589   2.742   1.138   9.912  0.8011 -1.2525  1.6709
   89SAPS   C26 8590   2.807   1.056   9.722 -0.3769  0.3772 -0.0044
   89SAPS   H6R 8591   2.711   1.078   9.672  0.2316  0.6115 -1.0927
   89SAPS   C27 8592   2.915   0.978   9.648  0.0055 -0.0402  0.0136
   89SAPS   H7R 8593   2.866   0.910   9.575  2.2413 -1.6995 -0.0405
   89SAPS   H7S 8594   2.965   0.906   9.716 -1.2466 -2.6654 -1.6820
   89SAPS   C28 8595   3.016   1.066   9.589 -0.1427 -0.0447  0.2890
   89SAPS   H8R 8596   3.071   1.119   9.668 -0.7886 -2.1931  2.3205
   89SAPS   C29 8597   3.051   1.091   9.459  0.0221  0.4367  0.1094
   89SAPS   H9R 8598   3.130   1.166   9.445  1.3639 -0.7541  1.0060
   89SAPS  C210 8599   2.998   1.028   9.327 -0.3646 -0.1639  0.0491
   89SAPS  H10R 8600   2.973   0.924   9.357 -0.8398 -0.3481 -0.9671
   89SAPS  H10S 8601   3.080   1.020   9.252 -1.1834 -3.9857 -0.5930
   89SAPS  C211 8602   2.893   1.122   9.283 -0.6250  0.2559 -0.4900
   89SAPS  H11R 8603   2.849   1.186   9.360 -1.3936  0.5995 -1.2042
   89SAPS  C212 8604   2.836   1.123   9.164 -0.2561  0.3995 -0.0459
   89SAPS  H12R 8605   2.757   1.197   9.144 -0.9798 -0.5186 -0.7424
   89SAPS  C213 8606   2.870   1.030   9.050  0.2221  0.0271  0.1979
   89SAPS  H13R 8607   2.792   0.951   9.048 -0.5250  0.6584  2.1602
   89SAPS  H13S 8608   2.966   0.975   9.064  0.3297 -0.0100 -0.6292
   89SAPS  C214 8609   2.868   1.089   8.907 -0.6878 -0.1518  0.2441
   89SAPS  H14R 8610   2.771   1.133   8.880 -0.0080  0.7052 -0.8514
   89SAPS  C215 8611   2.970   1.094   8.819 -0.1802 -0.5304 -0.3261
   89SAPS  H15R 8612   2.955   1.158   8.730 -0.1551  0.4043  0.3331
   89SAPS  C216 8613   3.109   1.047   8.847  0.0210 -0.1080  0.5253
   89SAPS  H16R 8614   3.162   1.019   8.754 -0.5471  0.9797 -0.1555
   89SAPS  H16S 8615   3.106   0.966   8.923 -2.0309  1.4907  2.2928
   89SAPS  C217 8616   3.209   1.154   8.894 -0.0233 -0.3841  0.1133
   89SAPS  H17R 8617   3.303   1.103   8.922 -0.2020 -1.1833 -0.6740
   89SAPS  H17S 8618   3.171   1.188   8.992 -2.7060 -0.3336 -0.8431
   89SAPS  C218 8619   3.239   1.273   8.797  0.5657 -0.1412 -0.2229
   89SAPS  H18R 8620   3.144   1.330   8.793 -0.1384 -0.9448  2.6815
   89SAPS  H18S 8621   3.260   1.232   8.695 -1.2835 -2.2621  0.1723
   89SAPS  C219 8622   3.351   1.361   8.852  0.7158 -0.1948 -0.6384
   89SAPS  H19R 8623   3.435   1.290   8.869 -0.2116 -1.0865  0.3785
   89SAPS  H19S 8624   3.323   1.422   8.940  3.1047  1.0058 -0.6290
   89SAPS  C220 8625   3.390   1.462   8.739  0.1068  0.9851  0.4472
   89SAPS  H20R 8626   3.492   1.503   8.750  1.0282 -0.6624 -1.3663
   89SAPS  H20S 8627   3.313   1.541   8.722 -0.0857  0.2439 -2.7657
   89SAPS  H20T 8628   3.378   1.417   8.638 -0.3274  3.8292 -0.8905
   89SAPS   C33 8629   2.895   0.550   9.721  0.0064 -0.2893 -0.7381
   89SAPS   H3X 8630   2.930   0.452   9.682 -1.5626 -1.2490  0.1232
   89SAPS   H3Y 8631   2.984   0.615   9.721  0.1096 -0.4292 -0.4458
   89SAPS   C34 8632   2.795   0.604   9.621  0.1081 -0.1890 -0.1681
   89SAPS   H4X 8633   2.769   0.709   9.647 -0.3836  0.2115 -2.1374
   89SAPS   H4Y 8634   2.706   0.538   9.626 -1.4355  1.6978 -1.3500
   89SAPS   C35 8635   2.864   0.612   9.482 -0.2207  0.7869 -0.4691
   89SAPS   H5X 8636   2.895   0.509   9.456  0.2544  0.4188  1.3825
   89SAPS   H5Y 8637   2.945   0.688   9.492 -2.0347  2.9825 -1.4729
   89SAPS   C36 8638   2.766   0.673   9.380  0.0269 -0.2877  0.3147
   89SAPS   H6X 8639   2.744   0.774   9.420 -0.1648 -0.3256  0.3095
   89SAPS   H6Y 8640   2.673   0.612   9.377  0.8347 -1.5263 -1.2309
   89SAPS   C37 8641   2.827   0.676   9.242  0.4230 -0.4998 -0.0337
   89SAPS   H7X 8642   2.932   0.707   9.262  0.2337  0.5148 -0.5373
   89SAPS   H7Y 8643   2.783   0.746   9.168  1.9238 -1.7643 -2.2228
   89SAPS   C38 8644   2.847   0.545   9.166  0.4578 -0.1221 -0.3080
   89SAPS   H8X 8645   2.746   0.499   9.170  0.0811  0.7520  1.3697
   89SAPS   H8Y 8646   2.911   0.484   9.233 -0.8932 -0.0505  1.1092
   89SAPS   C39 8647   2.929   0.564   9.035 -0.0164 -0.1715 -0.1150
   89SAPS   H9X 8648   2.992   0.476   9.010 -0.1765 -0.5627  0.8323
   89SAPS   H9Y 8649   3.002   0.647   9.045  0.1784 -0.5417  2.1270
   89SAPS  C310 8650   2.829   0.592   8.924  0.1177  0.4131  0.2011
   89SAPS  H10X 8651   2.744   0.653   8.960  0.5607  0.3465  1.4062
   89SAPS  H10Y 8652   2.787   0.495   8.887  1.6467 -0.1977 -0.0270
   89SAPS  C311 8653   2.891   0.656   8.803 -0.4588 -0.2838  0.2826
   89SAPS  H11X 8654   2.957   0.586   8.749 -2.1476  0.1213 -2.4622
   89SAPS  H11Y 8655   2.941   0.751   8.833 -1.7933  0.1968  1.0816
   89SAPS  C312 8656   2.793   0.697   8.693  0.1265 -0.3672 -0.0350
   89SAPS  H12X 8657   2.819   0.801   8.661 -0.0289 -1.0825 -2.7058
   89SAPS  H12Y 8658   2.690   0.703   8.733  0.2020 -0.4908  0.1785
   89SAPS  C313 8659   2.793   0.610   8.577 -0.2046 -0.6190  0.2933
   89SAPS  H13X 8660   2.796   0.509   8.623 -0.0378  0.0779  1.8789
   89SAPS  H13Y 8661   2.883   0.623   8.514  0.1161  0.5293  0.9636
   89SAPS  C314 8662   2.682   0.624   8.477  0.6688 -0.4596  0.0601
   89SAPS  H14X 8663   2.680   0.721   8.423 -0.1932  0.5835  1.8685
   89SAPS  H14Y 8664   2.584   0.617   8.528  0.9302 -0.4214  0.5758
   89SAPS  C315 8665   2.686   0.514   8.366 -0.3763 -0.0790  0.1677
   89SAPS  H15X 8666   2.684   0.419   8.423 -2.8229  0.9642  2.0318
   89SAPS  H15Y 8667   2.784   0.524   8.313 -1.4513 -0.1434 -1.9256
   89SAPS  C316 8668   2.568   0.512   8.273  0.6181 -0.4486  0.9538
   89SAPS  H16X 8669   2.573   0.610   8.220 -0.5766 -0.8796  0.0020
   89SAPS  H16Y 8670   2.476   0.514   8.334 -0.7014 -0.9753 -0.9407
   89SAPS  C317 8671   2.560   0.377   8.196 -0.1321  0.3950 -0.6093
   89SAPS  H17X 8672   2.540   0.301   8.273 -0.8613  1.5604  0.3972
   89SAPS  H17Y 8673   2.659   0.347   8.156  0.6408  0.9695  0.8293
   89SAPS  C318 8674   2.460   0.375   8.079 -0.3152 -0.4398 -0.1298
   89SAPS  H18X 8675   2.472   0.287   8.013 -0.5183 -0.2660 -0.3956
   89SAPS  H18Y 8676   2.479   0.464   8.015  2.0318 -0.2325  0.7381
   89SAPS  H18Z 8677   2.364   0.372   8.134 -0.0373 -1.1944  0.3410
   90SAPS     N 8678   5.022   0.306  10.966  0.5418  0.1868 -0.6242
   90SAPS   HN1 8679   4.940   0.329  11.025  0.7153  1.4324 -0.8526
   90SAPS   HN2 8680   5.000   0.250  10.882 -0.7381  0.5960 -0.5812
   90SAPS   HN3 8681   5.090   0.249  11.020 -0.4776 -0.6795 -0.2126
   90SAPS   C12 8682   5.107   0.424  10.926 -0.3641  0.7080 -0.7581
   90SAPS  H12A 8683   5.106   0.491  11.011 -0.5438  0.3383 -0.4607
   90SAPS   C13 8684   5.257   0.387  10.924 -0.0535  1.2299 -0.0358
   90SAPS  O13A 8685   5.296   0.273  10.961  0.2430  0.0992  0.2069
   90SAPS  O13B 8686   5.338   0.484  10.916  0.4534  0.2126  0.2139
   90SAPS   C11 8687   5.065   0.471  10.778 -0.3488 -0.1677 -0.3196
   90SAPS  H11A 8688   5.104   0.400  10.702  0.2860 -0.0372 -0.1238
   90SAPS  H11B 8689   5.125   0.565  10.769  0.6458 -0.4357  2.5079
   90SAPS     P 8690   4.850   0.601  10.677  0.3421  0.1128 -0.2234
   90SAPS   O13 8691   4.742   0.541  10.598 -0.0016 -0.4538  0.5756
   90SAPS   O14 8692   4.812   0.707  10.769  0.6440  0.3548 -0.5670
   90SAPS   O12 8693   4.922   0.492  10.759 -0.8020 -0.1354 -0.3396
   90SAPS   O11 8694   4.958   0.662  10.580  0.0522  0.0549 -0.0346
   90SAPS    C1 8695   4.929   0.795  10.534  0.4193 -0.6229  0.1762
   90SAPS    HA 8696   4.821   0.813  10.510  0.4106  1.1695  1.3364
   90SAPS    HB 8697   4.967   0.868  10.609  2.0950 -0.5957 -0.6659
   90SAPS    C2 8698   4.998   0.838  10.402  0.0652  0.5210 -1.0568
   90SAPS    HS 8699   4.994   0.949  10.395 -0.3594  0.5536 -0.4358
   90SAPS   O21 8700   4.939   0.772  10.293 -0.2469 -0.1182  0.2234
   90SAPS   C21 8701   4.827   0.823  10.240  0.3222  0.1360  0.4463
   90SAPS   O22 8702   4.781   0.933  10.268  0.8837  0.0198 -0.1911
   90SAPS   C22 8703   4.772   0.711  10.149  0.8223 -0.1231  0.3242
   90SAPS   H2R 8704   4.845   0.629  10.139  1.8166  0.7759  0.0315
   90SAPS   H2S 8705   4.689   0.679  10.216 -0.0487 -2.3889 -1.6788
   90SAPS    C3 8706   5.145   0.787  10.404  0.2022  0.1661  0.1943
   90SAPS    HX 8707   5.139   0.676  10.411  2.3003  0.0892  1.7760
   90SAPS    HY 8708   5.198   0.818  10.497  0.0050 -1.6337  0.9551
   90SAPS   O31 8709   5.217   0.816  10.280 -0.0684 -0.4645  0.0115
   90SAPS   C31 8710   5.322   0.901  10.288 -0.0800  0.6263  0.2052
   90SAPS   O32 8711   5.362   0.964  10.380  0.2612 -0.0395  0.0299
   90SAPS   C32 8712   5.401   0.912  10.150  0.3918  0.3955 -0.1360
   90SAPS   H2X 8713   5.511   0.907  10.166  0.5375  1.1133 -0.8407
   90SAPS   H2Y 8714   5.378   1.012  10.108  2.3727  0.3390 -1.4797
   90SAPS   C23 8715   4.720   0.761  10.015  0.5487 -0.4953  0.1137
   90SAPS   H3R 8716   4.651   0.843  10.045  0.0226 -0.5830 -0.8433
   90SAPS   H3S 8717   4.658   0.696   9.950 -1.6066  2.2118 -0.7253
   90SAPS   C24 8718   4.832   0.825   9.938 -0.3902  0.3914 -0.3656
   90SAPS   H4R 8719   4.857   0.907  10.009 -0.9508 -0.3502  0.6997
   90SAPS   H4S 8720   4.775   0.878   9.858 -2.4041  0.4378  1.0427
   90SAPS   C25 8721   4.946   0.738   9.893 -0.2279 -0.6863 -0.2787
   90SAPS   H5R 8722   5.016   0.706   9.972  1.7963  0.0473 -1.6812
   90SAPS   C26 8723   4.976   0.709   9.767 -0.5252  0.1791  0.0880
   90SAPS   H6R 8724   5.066   0.647   9.758 -0.4521  0.2177  0.5121
   90SAPS   C27 8725   4.895   0.745   9.636 -0.2896 -0.0804 -0.8461
   90SAPS   H7R 8726   4.953   0.819   9.575  0.5547 -0.0936 -0.0852
   90SAPS   H7S 8727   4.795   0.783   9.664  0.0351 -0.7210  1.4004
   90SAPS   C28 8728   4.858   0.626   9.549 -0.5873  0.2692 -0.1931
   90SAPS   H8R 8729   4.902   0.528   9.574  1.2701 -0.0634 -4.0656
   90SAPS   C29 8730   4.783   0.641   9.438 -0.1442  0.4243  0.1976
   90SAPS   H9R 8731   4.767   0.560   9.365 -0.2557  0.3957  0.2527
   90SAPS  C210 8732   4.747   0.778   9.390  0.1130 -0.3376  0.5564
   90SAPS  H10R 8733   4.799   0.810   9.296  2.8591  1.1065  2.4142
   90SAPS  H10S 8734   4.768   0.864   9.458 -2.5893 -0.4752  1.6824
   90SAPS  C211 8735   4.597   0.771   9.376 -0.3394  0.1950  0.0421
   90SAPS  H11R 8736   4.548   0.799   9.470 -0.1710 -2.0518  0.8647
   90SAPS  C212 8737   4.525   0.737   9.264  0.0370 -0.3232 -0.5442
   90SAPS  H12R 8738   4.420   0.710   9.279  0.3150 -1.0081  0.3527
   90SAPS  C213 8739   4.569   0.702   9.125 -0.1440 -0.2346 -0.5938
   90SAPS  H13R 8740   4.503   0.617   9.098 -0.6436  0.1012 -0.4615
   90SAPS  H13S 8741   4.676   0.673   9.119  0.0987  0.6296 -0.6425
   90SAPS  C214 8742   4.549   0.820   9.032 -0.6740 -0.0355  0.4374
   90SAPS  H14R 8743   4.554   0.920   9.076  1.0560 -0.4326  1.2322
   90SAPS  C215 8744   4.534   0.809   8.899  0.0903 -0.6275  0.1197
   90SAPS  H15R 8745   4.526   0.894   8.830 -1.8113  0.9185  2.1335
   90SAPS  C216 8746   4.528   0.680   8.831 -0.3235  0.5401  0.8621
   90SAPS  H16R 8747   4.476   0.608   8.898  2.3551  0.2839  2.8560
   90SAPS  H16S 8748   4.629   0.638   8.814 -1.2498 -2.4211  1.9466
   90SAPS  C217 8749   4.454   0.691   8.693  0.5715  0.3823 -0.6323
   90SAPS  H17R 8750   4.356   0.742   8.703  0.4540 -0.0732  0.7789
   90SAPS  H17S 8751   4.439   0.587   8.656  1.1954  0.8933 -2.4186
   90SAPS  C218 8752   4.535   0.769   8.591  0.0258 -0.1258 -0.4400
   90SAPS  H18R 8753   4.620   0.706   8.555  1.3318 -0.1572  2.4109
   90SAPS  H18S 8754   4.582   0.856   8.642 -3.1933  0.2593  2.1915
   90SAPS  C219 8755   4.449   0.813   8.471  0.3903 -0.7369 -0.0240
   90SAPS  H19R 8756   4.352   0.849   8.511 -0.0694  0.1669 -1.8397
   90SAPS  H19S 8757   4.425   0.716   8.423 -1.5616 -0.6992  0.7866
   90SAPS  C220 8758   4.510   0.910   8.370  0.0421 -0.6433 -1.0085
   90SAPS  H20R 8759   4.596   0.864   8.315  1.1104  0.4641 -0.3246
   90SAPS  H20S 8760   4.550   0.999   8.423 -0.8247 -0.5905 -0.4229
   90SAPS  H20T 8761   4.428   0.944   8.304  0.5946  1.3263 -0.7373
   90SAPS   C33 8762   5.372   0.805  10.043  0.4328 -0.3689 -0.3923
   90SAPS   H3X 8763   5.262   0.791  10.041  0.1954  1.0420  0.9280
   90SAPS   H3Y 8764   5.417   0.712  10.084 -0.1703 -0.0557  1.0221
   90SAPS   C34 8765   5.430   0.842   9.908 -0.1601 -0.0235 -0.5387
   90SAPS   H4X 8766   5.541   0.847   9.914 -0.1346 -0.7764 -0.2963
   90SAPS   H4Y 8767   5.405   0.948   9.886  1.2197 -0.0315 -2.3538
   90SAPS   C35 8768   5.376   0.762   9.786 -0.4899 -0.6657 -0.5124
   90SAPS   H5X 8769   5.267   0.778   9.779 -0.2041  0.7044 -3.2758
   90SAPS   H5Y 8770   5.409   0.656   9.797 -1.6617 -0.9355  0.5756
   90SAPS   C36 8771   5.425   0.819   9.650 -0.1042 -0.0868  1.1417
   90SAPS   H6X 8772   5.531   0.805   9.620 -0.1870  1.2277  0.1891
   90SAPS   H6Y 8773   5.411   0.929   9.652 -1.4432 -0.1727 -1.1508
   90SAPS   C37 8774   5.336   0.757   9.534  0.0160 -0.4730  0.5518
   90SAPS   H7X 8775   5.238   0.807   9.552  0.3449  0.9114 -1.1398
   90SAPS   H7Y 8776   5.322   0.647   9.532 -0.9127 -0.3611  0.0762
   90SAPS   C38 8777   5.383   0.791   9.395  0.2460 -0.7076  0.0713
   90SAPS   H8X 8778   5.476   0.734   9.375  0.1187 -0.6794 -0.6327
   90SAPS   H8Y 8779   5.398   0.901   9.390 -4.1943  0.0530 -1.3714
   90SAPS   C39 8780   5.294   0.755   9.280  0.2434 -0.0007 -0.7602
   90SAPS   H9X 8781   5.197   0.807   9.294 -0.3127 -1.4358  1.3807
   90SAPS   H9Y 8782   5.289   0.644   9.288  0.5318  0.0645  0.6299
   90SAPS  C310 8783   5.343   0.796   9.149  0.0590  0.1474  0.5033
   90SAPS  H10X 8784   5.444   0.752   9.136  0.5769  1.4509 -0.1308
   90SAPS  H10Y 8785   5.360   0.906   9.157 -2.8455  0.6486  0.9222
   90SAPS  C311 8786   5.259   0.778   9.020  0.3911 -0.1946 -0.5291
   90SAPS  H11X 8787   5.179   0.854   9.027  1.3554  0.9285 -1.2859
   90SAPS  H11Y 8788   5.207   0.680   9.019 -1.5655  0.8017 -1.6090
   90SAPS  C312 8789   5.348   0.809   8.907 -0.1761 -0.2611  0.0528
   90SAPS  H12X 8790   5.399   0.713   8.886  1.1096 -0.0263  1.9253
   90SAPS  H12Y 8791   5.424   0.883   8.938 -1.0477  1.9213 -2.6222
   90SAPS  C313 8792   5.261   0.840   8.776 -0.4993 -0.6056 -0.4164
   90SAPS  H13X 8793   5.195   0.752   8.765 -2.1697  0.3273  1.5015
   90SAPS  H13Y 8794   5.330   0.831   8.689 -2.1006 -2.0704 -1.5852
   90SAPS  C314 8795   5.179   0.975   8.777 -0.3427  0.1888  0.9037
   90SAPS  H14X 8796   5.241   1.063   8.804  0.5143  0.4274 -1.5772
   90SAPS  H14Y 8797   5.100   0.962   8.855  0.3246  1.1675  1.7635
   90SAPS  C315 8798   5.120   1.013   8.638 -0.4559  0.0903  0.0772
   90SAPS  H15X 8799   5.011   1.026   8.657 -0.4023 -0.2890  0.6443
   90SAPS  H15Y 8800   5.136   0.928   8.569 -0.9678 -0.3815  0.5378
   90SAPS  C316 8801   5.178   1.144   8.575 -0.1003  0.8076 -0.2635
   90SAPS  H16X 8802   5.287   1.124   8.566 -0.2288 -0.4654  0.7447
   90SAPS  H16Y 8803   5.162   1.222   8.652 -1.8701 -0.5395  0.8075
   90SAPS  C317 8804   5.119   1.161   8.436  0.2400 -0.0651 -0.7168
   90SAPS  H17X 8805   5.009   1.175   8.435 -0.0588 -1.5782  1.7911
   90SAPS  H17Y 8806   5.122   1.068   8.374 -1.4445 -0.7562  0.1962
   90SAPS  C318 8807   5.192   1.273   8.364 -1.1090  0.1206  0.2211
   90SAPS  H18X 8808   5.167   1.374   8.402 -1.2954  1.0142 -2.0878
   90SAPS  H18Y 8809   5.171   1.266   8.255  1.2790 -1.4676 -0.2122
   90SAPS  H18Z 8810   5.302   1.255   8.372 -0.6480  2.3522 -0.2105
   91SAPS     N 8811   3.476   6.183   6.281  0.3898  0.2056 -0.4722
   91SAPS   HN1 8812   3.553   6.114   6.287  0.3593  0.2826  3.5628
   91SAPS   HN2 8813   3.509   6.281   6.275  0.8691  0.0571 -0.2697
   91SAPS   HN3 8814   3.404   6.174   6.356  0.4661  0.7415 -0.3341
   91SAPS   C12 8815   3.400   6.163   6.158 -0.3857  0.3762  0.1536
   91SAPS  H12A 8816   3.478   6.173   6.084 -0.9806 -0.2315 -0.5620
   91SAPS   C13 8817   3.332   6.031   6.147  0.3208 -0.0095 -0.0233
   91SAPS  O13A 8818   3.337   5.946   6.232 -0.7649  0.3047  0.3998
   91SAPS  O13B 8819   3.280   6.011   6.031  0.4570  0.0318 -0.4067
   91SAPS   C11 8820   3.300   6.287   6.139 -0.7047 -0.2600  0.5146
   91SAPS  H11A 8821   3.222   6.283   6.218 -1.5744  1.5452 -0.1995
   91SAPS  H11B 8822   3.245   6.289   6.043 -3.1860 -0.2664  1.8682
   91SAPS     P 8823   3.301   6.552   6.155  0.0464  0.0308 -0.2802
   91SAPS   O13 8824   3.397   6.658   6.098  0.8809  0.1137 -0.7544
   91SAPS   O14 8825   3.177   6.537   6.080 -0.2273 -0.2322 -0.1449
   91SAPS   O12 8826   3.371   6.411   6.157  0.3934  0.2781 -0.8650
   91SAPS   O11 8827   3.281   6.586   6.308  0.1020  0.2115 -0.2892
   91SAPS    C1 8828   3.388   6.592   6.398 -0.4825  0.5565  0.5582
   91SAPS    HA 8829   3.463   6.511   6.383 -1.1269 -0.0305  0.4467
   91SAPS    HB 8830   3.440   6.690   6.388  0.4692  0.4997  3.8634
   91SAPS    C2 8831   3.341   6.571   6.542  0.7127 -0.1139  0.1285
   91SAPS    HS 8832   3.270   6.486   6.531  0.5078  0.2706 -1.8253
   91SAPS   O21 8833   3.276   6.688   6.592  0.1996  1.2816 -0.0906
   91SAPS   C21 8834   3.142   6.701   6.573 -0.2704  0.2093 -0.4034
   91SAPS   O22 8835   3.077   6.614   6.523 -0.6246  0.7829 -0.6070
   91SAPS   C22 8836   3.098   6.834   6.636  0.3471  0.1911  0.1150
   91SAPS   H2R 8837   3.126   6.827   6.744  0.8729 -1.3124 -0.0842
   91SAPS   H2S 8838   3.159   6.911   6.585 -1.4420  0.0497 -2.3630
   91SAPS    C3 8839   3.461   6.548   6.636 -0.4898  0.2175  0.6686
   91SAPS    HX 8840   3.536   6.631   6.634 -0.0067 -0.1519  2.0600
   91SAPS    HY 8841   3.503   6.451   6.602 -0.9882  0.6763 -1.3521
   91SAPS   O31 8842   3.427   6.531   6.776  0.1430  0.3655 -0.0396
   91SAPS   C31 8843   3.387   6.414   6.830 -0.6158 -0.2366  0.2230
   91SAPS   O32 8844   3.359   6.314   6.761 -0.6899  0.4013 -0.6407
   91SAPS   C32 8845   3.347   6.447   6.979 -1.1345  0.6384 -0.3021
   91SAPS   H2X 8846   3.277   6.369   7.016 -0.2477  0.3451  0.8387
   91SAPS   H2Y 8847   3.305   6.550   6.982  0.2728  1.3196 -1.8186
   91SAPS   C23 8848   2.944   6.846   6.622 -0.4169 -0.0565  0.1943
   91SAPS   H3R 8849   2.887   6.757   6.656 -0.5286  0.1071  0.4348
   91SAPS   H3S 8850   2.920   6.850   6.513  0.1159  0.0607  0.0774
   91SAPS   C24 8851   2.899   6.976   6.687 -0.2751 -0.2624 -0.3268
   91SAPS   H4R 8852   2.920   6.973   6.796 -0.2989 -1.8568 -0.3440
   91SAPS   H4S 8853   2.787   6.980   6.684 -0.2418  1.1157 -0.7690
   91SAPS   C25 8854   2.956   7.103   6.627  0.1950 -0.1109 -0.2140
   91SAPS   H5R 8855   3.057   7.091   6.585  0.3356 -0.7521  0.2821
   91SAPS   C26 8856   2.886   7.219   6.618  0.4060  0.5693  1.0106
   91SAPS   H6R 8857   2.922   7.305   6.560 -1.2695  1.0041  0.5742
   91SAPS   C27 8858   2.747   7.243   6.670  0.2315  0.3710 -0.5550
   91SAPS   H7R 8859   2.729   7.171   6.753  0.0778 -0.5363 -1.3567
   91SAPS   H7S 8860   2.677   7.196   6.598 -1.7127  0.4932  1.1549
   91SAPS   C28 8861   2.727   7.386   6.703 -0.1294 -0.4543 -0.3658
   91SAPS   H8R 8862   2.740   7.456   6.619 -2.2813  2.5788  1.6171
   91SAPS   C29 8863   2.680   7.433   6.816  0.1689 -0.6559 -0.5453
   91SAPS   H9R 8864   2.683   7.543   6.826  2.6791 -0.7944  1.1616
   91SAPS  C210 8865   2.642   7.347   6.931 -0.9854  0.1344  0.0039
   91SAPS  H10R 8866   2.716   7.265   6.935  0.4148  1.3082 -0.6768
   91SAPS  H10S 8867   2.546   7.293   6.915 -1.1882  0.0800  1.3437
   91SAPS  C211 8868   2.668   7.416   7.065 -0.3737 -0.5363  0.0948
   91SAPS  H11R 8869   2.772   7.440   7.088  0.1245  0.3116 -2.6633
   91SAPS  C212 8870   2.578   7.450   7.158 -0.2602  0.4387  0.5161
   91SAPS  H12R 8871   2.602   7.506   7.249  0.7719  2.2557 -0.7982
   91SAPS  C213 8872   2.429   7.420   7.138 -0.3307 -0.5437 -0.2756
   91SAPS  H13R 8873   2.404   7.403   7.031  2.0816 -0.7178 -0.8771
   91SAPS  H13S 8874   2.370   7.508   7.172  0.9362 -0.0936  0.8834
   91SAPS  C214 8875   2.387   7.296   7.209  0.4185 -0.6685 -0.4301
   91SAPS  H14R 8876   2.418   7.204   7.158  1.4928 -0.3523 -0.3701
   91SAPS  C215 8877   2.308   7.284   7.320  0.1709 -0.5887  0.3901
   91SAPS  H15R 8878   2.285   7.186   7.365  0.3255  0.4307  2.8417
   91SAPS  C216 8879   2.245   7.389   7.406  0.0319 -0.1490  0.5533
   91SAPS  H16R 8880   2.137   7.396   7.385  0.3084  2.7174 -0.3110
   91SAPS  H16S 8881   2.282   7.491   7.384  0.9410 -0.6571 -0.3456
   91SAPS  C217 8882   2.259   7.334   7.554 -0.4344 -0.0436 -0.1351
   91SAPS  H17R 8883   2.359   7.292   7.576  0.3316  2.3418  1.2437
   91SAPS  H17S 8884   2.185   7.251   7.559  0.3044 -0.7107 -0.2485
   91SAPS  C218 8885   2.230   7.442   7.668  0.1633  0.5296 -0.2415
   91SAPS  H18R 8886   2.125   7.477   7.665 -0.2329 -0.6392 -0.7574
   91SAPS  H18S 8887   2.291   7.533   7.652 -1.2091  1.9126  1.8689
   91SAPS  C219 8888   2.260   7.389   7.806  0.4576 -0.2363 -0.4510
   91SAPS  H19R 8889   2.360   7.428   7.834  0.3023 -0.9907  1.2793
   91SAPS  H19S 8890   2.267   7.278   7.807  0.2974 -0.2460 -0.2792
   91SAPS  C220 8891   2.159   7.436   7.908  0.1324 -0.0561 -0.1601
   91SAPS  H20R 8892   2.204   7.438   8.009 -0.9113  1.1547  0.3164
   91SAPS  H20S 8893   2.081   7.356   7.913 -0.0156  0.1389  2.8976
   91SAPS  H20T 8894   2.120   7.538   7.889 -1.4423 -0.4355  0.7735
   91SAPS   C33 8895   3.471   6.459   7.076  0.1246  0.6369 -0.7051
   91SAPS   H3X 8896   3.536   6.527   7.017 -1.7855  4.2515  0.9509
   91SAPS   H3Y 8897   3.513   6.361   7.104 -0.8018  0.2341 -0.6795
   91SAPS   C34 8898   3.434   6.517   7.213 -0.2090 -0.4430 -0.1326
   91SAPS   H4X 8899   3.373   6.446   7.272  0.5687 -0.0640  1.1804
   91SAPS   H4Y 8900   3.379   6.611   7.193  1.3994  0.1385 -2.2883
   91SAPS   C35 8901   3.567   6.548   7.288  0.4897  0.0233  0.3222
   91SAPS   H5X 8902   3.624   6.619   7.223  0.4919 -1.1932 -1.0601
   91SAPS   H5Y 8903   3.603   6.443   7.291 -1.8422 -0.8106  1.5795
   91SAPS   C36 8904   3.551   6.612   7.427  0.9632  0.5385  0.2128
   91SAPS   H6X 8905   3.463   6.560   7.468 -0.3325  0.1234 -2.8431
   91SAPS   H6Y 8906   3.532   6.722   7.429 -0.3870  0.3113  1.8180
   91SAPS   C37 8907   3.671   6.581   7.521  0.4902  0.1327  0.2795
   91SAPS   H7X 8908   3.736   6.670   7.518 -1.6356  1.9938  3.2690
   91SAPS   H7Y 8909   3.719   6.488   7.484  1.6335  0.6823  0.3605
   91SAPS   C38 8910   3.634   6.562   7.667  1.0054  0.4768 -0.0837
   91SAPS   H8X 8911   3.547   6.495   7.654  1.8054 -0.5247 -0.4503
   91SAPS   H8Y 8912   3.608   6.656   7.721 -0.3021 -0.8501  1.6994
   91SAPS   C39 8913   3.733   6.469   7.755  0.2885 -0.0946  0.2376
   91SAPS   H9X 8914   3.835   6.513   7.748  0.4604 -0.6039 -0.5252
   91SAPS   H9Y 8915   3.744   6.379   7.691  0.4914 -1.3307  1.9403
   91SAPS  C310 8916   3.690   6.428   7.897  0.6376  0.3641  0.1379
   91SAPS  H10X 8917   3.757   6.348   7.936  0.8694 -0.1448 -1.2410
   91SAPS  H10Y 8918   3.589   6.381   7.891  0.9245 -0.2793  0.2393
   91SAPS  C311 8919   3.699   6.539   8.003  0.4325 -0.1104  0.3192
   91SAPS  H11X 8920   3.634   6.619   7.962 -0.4823  1.1107  3.8479
   91SAPS  H11Y 8921   3.801   6.583   7.992  0.3529  0.1849  0.7674
   91SAPS  C312 8922   3.672   6.509   8.149  0.0207  0.7006 -0.4677
   91SAPS  H12X 8923   3.579   6.448   8.149  0.4829 -0.1489 -2.9193
   91SAPS  H12Y 8924   3.647   6.604   8.199 -0.9037  0.1088  0.2318
   91SAPS  C313 8925   3.797   6.436   8.220  0.2249 -0.1374 -0.2459
   91SAPS  H13X 8926   3.830   6.348   8.161 -0.2093 -1.9318  2.0632
   91SAPS  H13Y 8927   3.766   6.398   8.320 -0.6728  1.7602  0.2554
   91SAPS  C314 8928   3.917   6.528   8.239  0.5586  1.0059 -0.0210
   91SAPS  H14X 8929   3.880   6.632   8.248  0.2085  0.8937 -0.1747
   91SAPS  H14Y 8930   3.984   6.540   8.151 -0.8064  1.5043 -1.0102
   91SAPS  C315 8931   4.006   6.474   8.342  0.1494  0.5238 -0.8018
   91SAPS  H15X 8932   4.033   6.368   8.322 -1.7407 -0.6900  2.2134
   91SAPS  H15Y 8933   3.951   6.462   8.438 -1.4340 -0.1381 -1.7572
   91SAPS  C316 8934   4.135   6.562   8.366 -0.0561 -0.2286  0.3036
   91SAPS  H16X 8935   4.180   6.548   8.265  0.6434  1.9248  0.2722
   91SAPS  H16Y 8936   4.205   6.506   8.433  2.1650 -2.0972 -3.2525
   91SAPS  C317 8937   4.127   6.708   8.395 -0.3946  0.0654  0.7416
   91SAPS  H17X 8938   4.080   6.754   8.305 -1.4702  1.4118  1.9559
   91SAPS  H17Y 8939   4.230   6.747   8.409  0.3715 -1.4323 -0.3770
   91SAPS  C318 8940   4.039   6.744   8.516 -0.9826  0.3188  0.5382
   91SAPS  H18X 8941   4.071   6.698   8.612 -2.7005 -0.3132  0.8437
   91SAPS  H18Y 8942   3.932   6.724   8.495 -0.9604 -0.8088  1.4157
   91SAPS  H18Z 8943   4.030   6.853   8.538 -1.6320  0.0581  1.6417
   92SAPS     N 8944   3.698   3.446   6.029  0.0998 -0.2361 -0.1401
   92SAPS   HN1 8945   3.733   3.387   6.108  0.1531 -1.4057 -1.0156
   92SAPS   HN2 8946   3.767   3.445   5.951  2.5274  0.3163  1.8611
   92SAPS   HN3 8947   3.698   3.542   6.069 -0.4724 -0.4455  0.3843
   92SAPS   C12 8948   3.562   3.417   5.991 -0.0031  0.0591  0.0259
   92SAPS  H12A 8949   3.526   3.492   5.921  0.6339 -0.3877 -0.7889
   92SAPS   C13 8950   3.541   3.281   5.920  0.0540 -0.7458  0.6570
   92SAPS  O13A 8951   3.645   3.209   5.898 -0.0546 -0.3944 -0.1311
   92SAPS  O13B 8952   3.432   3.246   5.862  0.2760 -0.1086 -0.1451
   92SAPS   C11 8953   3.475   3.412   6.119  0.0950 -0.2018 -0.3186
   92SAPS  H11A 8954   3.511   3.494   6.186 -2.5189 -0.5998  1.7439
   92SAPS  H11B 8955   3.480   3.314   6.171 -0.4348  0.2612  0.6313
   92SAPS     P 8956   3.229   3.449   6.198 -0.1040  0.1177 -0.4233
   92SAPS   O13 8957   3.213   3.590   6.237  0.1632 -0.0720  0.0378
   92SAPS   O14 8958   3.117   3.372   6.149  0.0387  0.0376  0.1114
   92SAPS   O12 8959   3.337   3.445   6.082  0.0915 -0.0150  0.0737
   92SAPS   O11 8960   3.296   3.360   6.301  0.4877 -0.7842  0.0183
   92SAPS    C1 8961   3.283   3.220   6.317 -0.5820  0.1908  0.4293
   92SAPS    HA 8962   3.179   3.182   6.306 -0.0205 -1.2756 -0.0200
   92SAPS    HB 8963   3.330   3.166   6.232 -1.6150  0.2775 -0.2134
   92SAPS    C2 8964   3.345   3.164   6.443 -0.0015 -0.3243 -0.4244
   92SAPS    HS 8965   3.299   3.066   6.466  1.0828 -0.7636 -0.0667
   92SAPS   O21 8966   3.329   3.252   6.557 -0.9043  0.4351 -0.1505
   92SAPS   C21 8967   3.203   3.263   6.590  0.0186 -0.2122  0.4551
   92SAPS   O22 8968   3.115   3.188   6.547  0.1661  0.1422 -0.1978
   92SAPS   C22 8969   3.167   3.392   6.669  0.6287 -0.0315 -0.9449
   92SAPS   H2R 8970   3.231   3.393   6.760 -0.4877  2.1222 -0.1137
   92SAPS   H2S 8971   3.192   3.479   6.603 -0.4279  0.2399 -1.0045
   92SAPS    C3 8972   3.495   3.133   6.419  0.0296 -0.3471 -0.1866
   92SAPS    HX 8973   3.548   3.231   6.422 -1.5495  0.5282  1.2821
   92SAPS    HY 8974   3.507   3.083   6.321 -0.9136 -0.3369 -0.3142
   92SAPS   O31 8975   3.534   3.047   6.523 -0.3840 -0.0800 -0.1190
   92SAPS   C31 8976   3.659   2.996   6.522  0.4941  0.0793 -0.6526
   92SAPS   O32 8977   3.752   3.030   6.457  0.0478  0.1558 -0.4287
   92SAPS   C32 8978   3.655   2.867   6.605  0.1659 -0.1081 -0.0186
   92SAPS   H2X 8979   3.756   2.829   6.631  1.6669  2.8190 -1.0533
   92SAPS   H2Y 8980   3.636   2.789   6.529  0.6263  0.8653 -1.1652
   92SAPS   C23 8981   3.018   3.403   6.725 -0.7308  0.7639 -0.1697
   92SAPS   H3R 8982   2.935   3.372   6.657 -1.0276  2.9630 -0.8633
   92SAPS   H3S 8983   2.999   3.511   6.737 -0.3315  0.5912  2.8991
   92SAPS   C24 8984   3.011   3.336   6.871 -0.2834  0.5132 -0.2538
   92SAPS   H4R 8985   2.913   3.367   6.912 -0.7804 -1.0977 -0.1633
   92SAPS   H4S 8986   3.087   3.379   6.940  1.2650  0.5791 -1.9205
   92SAPS   C25 8987   3.015   3.178   6.864 -0.0915  0.0750 -0.8072
   92SAPS   H5R 8988   2.982   3.132   6.770  0.9700  0.4214 -1.3741
   92SAPS   C26 8989   3.063   3.097   6.961 -0.0523  0.0483 -0.2542
   92SAPS   H6R 8990   3.067   2.989   6.938  1.6001  0.3482 -1.5976
   92SAPS   C27 8991   3.126   3.143   7.091  0.3266 -0.0074  0.4971
   92SAPS   H7R 8992   3.111   3.253   7.103  0.5056  0.0149  0.5244
   92SAPS   H7S 8993   3.235   3.125   7.078  0.0059 -0.5199 -1.8406
   92SAPS   C28 8994   3.071   3.065   7.211 -0.5260  0.3383 -0.3942
   92SAPS   H8R 8995   2.961   3.066   7.210 -0.5468 -0.7120 -1.2457
   92SAPS   C29 8996   3.138   3.017   7.324 -0.2988 -1.3774  0.4061
   92SAPS   H9R 8997   3.088   2.954   7.398  0.7474 -1.5017  1.0238
   92SAPS  C210 8998   3.284   3.034   7.356  0.9747  0.0647  0.3277
   92SAPS  H10R 8999   3.336   3.022   7.258  0.0698 -0.1344 -0.1348
   92SAPS  H10S 9000   3.318   2.949   7.419  1.7926 -0.0749 -0.2718
   92SAPS  C211 9001   3.317   3.164   7.420 -0.5328 -0.5261 -0.0516
   92SAPS  H11R 9002   3.362   3.233   7.347 -2.4928  3.8288  2.4910
   92SAPS  C212 9003   3.289   3.210   7.541 -0.1477  0.1117  0.2187
   92SAPS  H12R 9004   3.322   3.310   7.574  2.1851 -0.7759  0.7607
   92SAPS  C213 9005   3.219   3.131   7.648  0.1919  0.2084  0.2215
   92SAPS  H13R 9006   3.234   3.021   7.646 -2.4130 -0.2322  0.9205
   92SAPS  H13S 9007   3.110   3.138   7.624 -0.1430  0.1003  1.6184
   92SAPS  C214 9008   3.264   3.172   7.787 -0.1579 -0.3043  0.5104
   92SAPS  H14R 9009   3.281   3.279   7.809 -1.5986 -0.1762  1.1071
   92SAPS  C215 9010   3.275   3.088   7.894 -0.8599  0.9291  0.1882
   92SAPS  H15R 9011   3.294   3.128   7.995  0.5616  3.3776 -0.9604
   92SAPS  C216 9012   3.246   2.941   7.893  0.7403  0.6072  0.0472
   92SAPS  H16R 9013   3.306   2.898   7.809  0.4275  2.0982 -0.9807
   92SAPS  H16S 9014   3.141   2.933   7.858  0.6790  2.1382 -0.1709
   92SAPS  C217 9015   3.284   2.857   8.017 -0.3522  0.0380 -0.3936
   92SAPS  H17R 9016   3.393   2.833   8.017 -0.8039 -2.2725  0.6897
   92SAPS  H17S 9017   3.219   2.769   7.999  0.1629  0.0887 -2.7792
   92SAPS  C218 9018   3.237   2.919   8.147  1.2181  0.4255  0.4826
   92SAPS  H18R 9019   3.136   2.963   8.131  1.3623  1.1682  1.5303
   92SAPS  H18S 9020   3.303   2.999   8.185 -0.0290  1.8485 -0.2469
   92SAPS  C219 9021   3.210   2.813   8.248  0.1311 -0.2934  0.1225
   92SAPS  H19R 9022   3.311   2.777   8.278  1.6382  0.9938 -2.9531
   92SAPS  H19S 9023   3.164   2.719   8.212 -1.5961  0.4096  0.4189
   92SAPS  C220 9024   3.143   2.856   8.377  1.0263  0.6962 -0.1420
   92SAPS  H20R 9025   3.184   2.951   8.418  1.2761 -0.3312  2.1569
   92SAPS  H20S 9026   3.145   2.775   8.453 -1.4726  2.0664  1.5400
   92SAPS  H20T 9027   3.035   2.865   8.351  1.2654  0.4169 -1.3055
   92SAPS   C33 9028   3.554   2.863   6.714  0.7475 -0.6044  0.4977
   92SAPS   H3X 9029   3.547   2.755   6.737  0.4588 -0.5369  0.7393
   92SAPS   H3Y 9030   3.448   2.887   6.692  0.0402 -2.6098  1.4334
   92SAPS   C34 9031   3.596   2.940   6.840 -0.5500 -0.5587 -0.3302
   92SAPS   H4X 9032   3.574   3.047   6.821  0.5747  0.1498  1.9286
   92SAPS   H4Y 9033   3.707   2.941   6.839 -0.4530  3.2837 -0.9510
   92SAPS   C35 9034   3.538   2.880   6.971 -0.0601 -0.4231  0.2606
   92SAPS   H5X 9035   3.582   2.778   6.975  0.7723 -0.2177 -2.1065
   92SAPS   H5Y 9036   3.428   2.874   6.975 -0.1275  0.2563 -0.3906
   92SAPS   C36 9037   3.586   2.950   7.095 -0.1249 -0.4161  0.3993
   92SAPS   H6X 9038   3.535   3.049   7.092  2.2142  0.8464 -1.0543
   92SAPS   H6Y 9039   3.693   2.978   7.094 -0.1547 -0.3040 -0.1288
   92SAPS   C37 9040   3.555   2.861   7.214 -0.1159  0.1981  0.4882
   92SAPS   H7X 9041   3.613   2.767   7.205  2.0372  1.3672  1.3742
   92SAPS   H7Y 9042   3.447   2.839   7.225 -0.5359  1.2803 -1.1684
   92SAPS   C38 9043   3.611   2.921   7.341  0.2273 -0.3155  0.4650
   92SAPS   H8X 9044   3.538   2.976   7.403  1.4659  0.3003  1.4112
   92SAPS   H8Y 9045   3.678   3.008   7.325  0.1697 -0.1243  1.2298
   92SAPS   C39 9046   3.660   2.811   7.447 -1.0481  0.1227 -0.1156
   92SAPS   H9X 9047   3.752   2.773   7.398 -0.6156 -0.7631  1.3221
   92SAPS   H9Y 9048   3.583   2.731   7.455 -2.5586  1.5791  0.5142
   92SAPS  C310 9049   3.698   2.875   7.579 -0.2428 -0.0751 -0.5792
   92SAPS  H10X 9050   3.619   2.948   7.608  0.9455  0.7916  0.5979
   92SAPS  H10Y 9051   3.791   2.936   7.575 -0.5176  0.6130  1.8179
   92SAPS  C311 9052   3.713   2.770   7.691 -1.0637  0.7334 -0.3850
   92SAPS  H11X 9053   3.808   2.716   7.672 -0.4210  1.3836  0.8491
   92SAPS  H11Y 9054   3.640   2.687   7.706 -1.6208  1.1430 -0.7733
   92SAPS  C312 9055   3.733   2.833   7.829  0.0287 -0.0859  0.2851
   92SAPS  H12X 9056   3.662   2.918   7.840  2.6927  2.4950 -0.9551
   92SAPS  H12Y 9057   3.819   2.902   7.818 -0.9797  1.6693  2.5226
   92SAPS  C313 9058   3.761   2.739   7.952 -0.3568 -0.2170 -0.1942
   92SAPS  H13X 9059   3.845   2.677   7.915 -0.6358  0.7447 -2.6409
   92SAPS  H13Y 9060   3.667   2.681   7.967  0.5235 -2.5512 -2.8086
   92SAPS  C314 9061   3.803   2.826   8.070  0.0945 -0.6966  0.3457
   92SAPS  H14X 9062   3.717   2.890   8.098  1.5965  1.7427 -0.2428
   92SAPS  H14Y 9063   3.877   2.900   8.031  0.3052 -0.5214  1.0726
   92SAPS  C315 9064   3.872   2.744   8.180  0.0110 -0.1912 -0.1128
   92SAPS  H15X 9065   3.960   2.700   8.128  1.2638  0.9109  0.9881
   92SAPS  H15Y 9066   3.806   2.671   8.232  0.7810 -1.0734 -0.3336
   92SAPS  C316 9067   3.922   2.845   8.288 -0.5579  0.5940  0.7624
   92SAPS  H16X 9068   3.835   2.913   8.291 -0.5756  0.8297 -2.1933
   92SAPS  H16Y 9069   4.005   2.906   8.247 -0.3513 -1.5071 -2.3356
   92SAPS  C317 9070   3.976   2.776   8.406 -0.4200 -0.3508 -0.0183
   92SAPS  H17X 9071   4.070   2.723   8.380  0.1595  0.6393  0.0065
   92SAPS  H17Y 9072   3.905   2.700   8.444  1.1916 -1.5248  0.7651
   92SAPS  C318 9073   4.005   2.868   8.523 -1.0027 -0.5789  0.3818
   92SAPS  H18X 9074   3.912   2.923   8.551 -0.8727 -0.7241  1.1280
   92SAPS  H18Y 9075   4.079   2.947   8.497 -0.2134 -0.7851  1.8589
   92SAPS  H18Z 9076   4.060   2.818   8.605 -0.0202  0.5347  0.4308
   93SAPS     N 9077   2.841   3.797   6.470  0.4679  0.3352  0.3988
   93SAPS   HN1 9078   2.769   3.775   6.398  1.7379  1.1821 -1.1972
   93SAPS   HN2 9079   2.918   3.728   6.456  0.5775  0.3487  0.9231
   93SAPS   HN3 9080   2.812   3.796   6.570  1.2206 -0.7274  0.6294
   93SAPS   C12 9081   2.883   3.935   6.432 -0.1051  0.0060  0.2149
   93SAPS  H12A 9082   2.964   3.968   6.496 -0.9086 -0.8549  1.7346
   93SAPS   C13 9083   2.928   3.937   6.281 -0.0783  0.0027  0.8257
   93SAPS  O13A 9084   2.952   3.830   6.216  0.4906 -0.1351 -0.3749
   93SAPS  O13B 9085   2.961   4.047   6.234 -0.1081 -0.0967 -0.0046
   93SAPS   C11 9086   2.758   4.029   6.449  0.1935  0.6081 -0.6679
   93SAPS  H11A 9087   2.681   3.993   6.378  0.2869 -2.4960  0.6672
   93SAPS  H11B 9088   2.798   4.131   6.431  0.4085  0.6042 -0.2257
   93SAPS     P 9089   2.624   4.134   6.643 -0.0153 -0.3638  0.1451
   93SAPS   O13 9090   2.514   4.189   6.556  0.2137 -0.3677  0.0649
   93SAPS   O14 9091   2.582   4.089   6.779 -0.5484 -0.0309  0.0819
   93SAPS   O12 9092   2.692   4.014   6.574  0.7285  0.6489 -0.1735
   93SAPS   O11 9093   2.738   4.242   6.658 -0.5451  0.2196  0.1452
   93SAPS    C1 9094   2.841   4.208   6.752  0.2686  0.7473  0.1486
   93SAPS    HA 9095   2.815   4.157   6.847 -0.6833 -0.9249 -0.9795
   93SAPS    HB 9096   2.923   4.155   6.700  1.0206  3.3523 -1.5453
   93SAPS    C2 9097   2.898   4.341   6.806  0.2870  0.3066 -0.1692
   93SAPS    HS 9098   2.924   4.408   6.722 -1.8502  0.6243 -0.6511
   93SAPS   O21 9099   3.008   4.305   6.892 -0.2205 -0.1268  0.2939
   93SAPS   C21 9100   3.073   4.407   6.946 -0.5148 -0.4111  0.5600
   93SAPS   O22 9101   3.069   4.524   6.912 -0.0120  0.3453 -0.0048
   93SAPS   C22 9102   3.158   4.348   7.063 -0.4671 -0.2550  0.6055
   93SAPS   H2R 9103   3.154   4.237   7.063  3.3503 -0.5229  0.4849
   93SAPS   H2S 9104   3.260   4.383   7.037 -0.1896 -1.8697 -0.6296
   93SAPS    C3 9105   2.781   4.420   6.875  0.0401 -0.0934  0.5735
   93SAPS    HX 9106   2.693   4.430   6.808 -1.3900  1.2528  2.5594
   93SAPS    HY 9107   2.816   4.525   6.879  0.4035 -0.2406  1.4134
   93SAPS   O31 9108   2.747   4.367   7.000  0.3036 -0.4288 -0.0203
   93SAPS   C31 9109   2.640   4.431   7.065 -0.4057 -0.2383 -0.8093
   93SAPS   O32 9110   2.587   4.531   7.022 -0.8844 -0.0677  0.3946
   93SAPS   C32 9111   2.635   4.367   7.207 -0.0004  0.1633  0.4277
   93SAPS   H2X 9112   2.705   4.424   7.272  0.2132 -1.3250  1.5435
   93SAPS   H2Y 9113   2.672   4.263   7.196  0.5138  0.3680  0.2206
   93SAPS   C23 9114   3.119   4.416   7.206  0.1826 -0.1469  0.6134
   93SAPS   H3R 9115   3.090   4.518   7.174 -1.2869 -0.8597 -0.4270
   93SAPS   H3S 9116   3.207   4.413   7.274 -0.3450 -3.5147  1.3355
   93SAPS   C24 9117   2.991   4.348   7.254 -0.2224  0.3081  0.4212
   93SAPS   H4R 9118   2.932   4.340   7.161 -1.4313  0.9720  1.0985
   93SAPS   H4S 9119   2.938   4.412   7.327  0.4478  1.7057 -0.2817
   93SAPS   C25 9120   3.026   4.218   7.309  0.4065  1.0540  0.1603
   93SAPS   H5R 9121   3.045   4.140   7.233  1.0077  0.3223  1.0359
   93SAPS   C26 9122   3.049   4.188   7.439 -0.3869 -0.2406  0.0770
   93SAPS   H6R 9123   3.075   4.085   7.465 -0.2951 -0.0466  0.7733
   93SAPS   C27 9124   3.056   4.281   7.559  0.1789 -0.1799 -0.0855
   93SAPS   H7R 9125   3.047   4.387   7.529 -0.0855 -0.8215 -2.4915
   93SAPS   H7S 9126   3.163   4.274   7.588  0.4130 -0.8021 -1.0509
   93SAPS   C28 9127   2.956   4.243   7.666  0.3581  0.4133 -0.4747
   93SAPS   H8R 9128   2.862   4.192   7.641 -0.0016 -0.1183  1.7503
   93SAPS   C29 9129   2.964   4.269   7.797  0.8742 -0.2968  0.2327
   93SAPS   H9R 9130   2.883   4.234   7.864  1.6252 -0.8402  0.8894
   93SAPS  C210 9131   3.079   4.340   7.865 -0.7585  0.0945  0.0063
   93SAPS  H10R 9132   3.118   4.426   7.806  0.0682 -0.4958 -0.3127
   93SAPS  H10S 9133   3.166   4.274   7.884 -1.9823 -1.0163  2.1462
   93SAPS  C211 9134   3.032   4.399   7.993  0.6379  0.0916 -0.7644
   93SAPS  H11R 9135   2.953   4.474   7.981  0.3045 -0.1297 -0.0177
   93SAPS  C212 9136   3.061   4.367   8.121 -0.2228  0.5736  0.7131
   93SAPS  H12R 9137   3.037   4.436   8.203 -1.0733  1.8531 -0.5647
   93SAPS  C213 9138   3.160   4.261   8.179  1.0677  0.1002 -0.0113
   93SAPS  H13R 9139   3.169   4.169   8.116  0.1459 -1.0319  1.4398
   93SAPS  H13S 9140   3.104   4.221   8.266 -1.3178  0.8301 -1.1302
   93SAPS  C214 9141   3.303   4.312   8.216  0.7818  0.4984 -0.0117
   93SAPS  H14R 9142   3.373   4.316   8.131 -0.3620 -2.9520 -1.3184
   93SAPS  C215 9143   3.340   4.368   8.335  0.4500  0.2683  0.4888
   93SAPS  H15R 9144   3.445   4.388   8.364  0.0324 -0.8866  3.0765
   93SAPS  C216 9145   3.247   4.387   8.460 -0.2186  0.2821  0.1797
   93SAPS  H16R 9146   3.147   4.340   8.450  0.1936 -1.0302  1.7828
   93SAPS  H16S 9147   3.215   4.494   8.463  0.4265  0.7111 -3.5770
   93SAPS  C217 9148   3.299   4.350   8.599 -0.0788  0.1897  0.7778
   93SAPS  H17R 9149   3.346   4.250   8.594 -3.1704 -1.3189 -2.4113
   93SAPS  H17S 9150   3.206   4.332   8.658  1.0999 -0.0537  2.6138
   93SAPS  C218 9151   3.384   4.446   8.682 -0.2336 -0.1577  0.2641
   93SAPS  H18R 9152   3.372   4.420   8.789  2.6161 -2.3541  0.1715
   93SAPS  H18S 9153   3.336   4.547   8.680 -0.6883 -0.3759 -0.0336
   93SAPS  C219 9154   3.529   4.455   8.644  0.0829  0.4131  0.1552
   93SAPS  H19R 9155   3.535   4.518   8.553 -1.0805 -0.1679 -0.3562
   93SAPS  H19S 9156   3.559   4.351   8.620  0.2906  0.6948 -0.8540
   93SAPS  C220 9157   3.615   4.513   8.760 -0.4291 -0.0092  0.3524
   93SAPS  H20R 9158   3.577   4.612   8.794 -1.7792 -0.5987  0.6517
   93SAPS  H20S 9159   3.722   4.526   8.734  0.2457 -3.4068  0.9486
   93SAPS  H20T 9160   3.607   4.448   8.850 -0.0669  1.9688  1.8806
   93SAPS   C33 9161   2.491   4.365   7.257  0.1880 -0.5020 -0.1763
   93SAPS   H3X 9162   2.433   4.309   7.181 -0.2528  1.7773 -1.6091
   93SAPS   H3Y 9163   2.455   4.470   7.263 -1.0431 -0.7160 -2.7341
   93SAPS   C34 9164   2.467   4.302   7.391  0.3596 -0.0747 -0.1057
   93SAPS   H4X 9165   2.506   4.198   7.398  1.5503  0.4317  1.2921
   93SAPS   H4Y 9166   2.358   4.308   7.409  0.3233  0.6052 -0.4868
   93SAPS   C35 9167   2.545   4.368   7.506  0.0248 -1.0529 -0.6310
   93SAPS   H5X 9168   2.517   4.475   7.507 -0.4125 -1.1493 -1.7111
   93SAPS   H5Y 9169   2.652   4.362   7.477 -0.0487 -0.1640 -1.1120
   93SAPS   C36 9170   2.499   4.319   7.641  0.3405 -0.5960 -0.4059
   93SAPS   H6X 9171   2.532   4.213   7.652  0.7726 -0.2313  2.2770
   93SAPS   H6Y 9172   2.390   4.328   7.663  0.5798 -2.5041  1.9058
   93SAPS   C37 9173   2.571   4.404   7.747  0.1139  0.3556 -0.2274
   93SAPS   H7X 9174   2.549   4.512   7.735 -0.9934  0.3018  1.1043
   93SAPS   H7Y 9175   2.682   4.392   7.741  0.5850  3.9813 -0.6533
   93SAPS   C38 9176   2.511   4.353   7.882 -0.2284 -0.1615 -0.2334
   93SAPS   H8X 9177   2.518   4.243   7.868  4.2844  0.0656 -1.7253
   93SAPS   H8Y 9178   2.405   4.385   7.888 -0.0818  0.4813 -0.8977
   93SAPS   C39 9179   2.584   4.392   8.005  0.1221 -0.4713  0.5551
   93SAPS   H9X 9180   2.689   4.366   7.978 -0.3530  0.6709 -2.9516
   93SAPS   H9Y 9181   2.555   4.324   8.088 -0.1926  0.0626  0.8878
   93SAPS  C310 9182   2.568   4.533   8.056 -0.1159 -0.6468  0.3601
   93SAPS  H10X 9183   2.461   4.564   8.066 -0.2911 -1.1014 -0.0549
   93SAPS  H10Y 9184   2.618   4.612   7.995  0.1347  0.7919  2.3190
   93SAPS  C311 9185   2.631   4.543   8.192  0.4219 -0.7481 -0.3679
   93SAPS  H11X 9186   2.730   4.494   8.176 -0.0517 -1.7387 -0.3392
   93SAPS  H11Y 9187   2.571   4.486   8.267  0.1485 -1.2066 -0.9272
   93SAPS  C312 9188   2.658   4.691   8.223  0.4078 -0.0730  0.2164
   93SAPS  H12X 9189   2.556   4.733   8.213  1.1179  1.5518 -0.5883
   93SAPS  H12Y 9190   2.713   4.727   8.134 -0.0190 -0.1953 -0.0986
   93SAPS  C313 9191   2.743   4.720   8.353  0.2861  0.7326 -0.2248
   93SAPS  H13X 9192   2.845   4.679   8.334 -0.4817 -0.6485 -1.5839
   93SAPS  H13Y 9193   2.724   4.661   8.445 -1.8263 -1.6650 -2.0660
   93SAPS  C314 9194   2.744   4.866   8.391  0.6236 -0.3280 -0.1655
   93SAPS  H14X 9195   2.641   4.889   8.426 -0.5469 -0.6291 -3.1383
   93SAPS  H14Y 9196   2.764   4.925   8.300  2.2203 -0.0925  0.3058
   93SAPS  C315 9197   2.841   4.906   8.509 -0.6173 -0.0338 -0.5314
   93SAPS  H15X 9198   2.935   4.855   8.480 -1.0635 -1.7093  0.8193
   93SAPS  H15Y 9199   2.803   4.862   8.604 -1.6853  0.3870 -0.7476
   93SAPS  C316 9200   2.867   5.062   8.527 -0.2039  0.8821 -0.1756
   93SAPS  H16X 9201   2.899   5.082   8.632  0.4828 -0.0378 -0.1972
   93SAPS  H16Y 9202   2.771   5.117   8.522 -0.5301  0.3794  0.3966
   93SAPS  C317 9203   2.962   5.119   8.417  0.0859  0.4402  0.3888
   93SAPS  H17X 9204   2.903   5.092   8.327  0.3115 -0.8613  0.6008
   93SAPS  H17Y 9205   3.055   5.058   8.419 -1.2655 -1.7437  1.0040
   93SAPS  C318 9206   2.977   5.269   8.452 -0.0413  0.0239 -0.2742
   93SAPS  H18X 9207   3.022   5.319   8.364  0.4942  0.7028  0.3837
   93SAPS  H18Y 9208   3.041   5.291   8.539 -2.0022 -0.2985  1.3237
   93SAPS  H18Z 9209   2.877   5.318   8.454 -1.1398 -2.1163  0.5005
   94SAPS     N 9210   3.179   1.039   5.825 -0.0994 -0.1676 -0.3869
   94SAPS   HN1 9211   3.123   1.071   5.744  1.3090  3.1467 -0.2013
   94SAPS   HN2 9212   3.127   0.968   5.880  1.3567 -0.8228  0.2145
   94SAPS   HN3 9213   3.192   1.129   5.876  3.2145 -0.5984 -0.2451
   94SAPS   C12 9214   3.312   0.987   5.792 -0.0379 -0.3144 -0.0587
   94SAPS  H12A 9215   3.351   0.971   5.892 -1.1148  0.2190  0.4719
   94SAPS   C13 9216   3.299   0.861   5.706  0.2285  0.3375  0.2925
   94SAPS  O13A 9217   3.192   0.814   5.668 -0.4248 -0.2120 -0.4133
   94SAPS  O13B 9218   3.408   0.824   5.654 -0.1469  0.1575 -0.3299
   94SAPS   C11 9219   3.392   1.094   5.727 -0.4735 -0.3433  0.3696
   94SAPS  H11A 9220   3.339   1.113   5.632 -1.6362 -0.8256  0.9067
   94SAPS  H11B 9221   3.491   1.059   5.692 -0.5106  0.0200 -0.1101
   94SAPS     P 9222   3.529   1.261   5.879 -0.0435 -0.3067  0.5702
   94SAPS   O13 9223   3.642   1.243   5.782 -0.0065 -0.3905 -0.1441
   94SAPS   O14 9224   3.499   1.403   5.918 -0.4265 -0.2522 -0.0383
   94SAPS   O12 9225   3.400   1.219   5.799  0.4747 -0.4430  0.0348
   94SAPS   O11 9226   3.541   1.153   5.995  0.2058  0.2530  0.3138
   94SAPS    C1 9227   3.444   1.132   6.099 -0.5520  0.4828  0.3050
   94SAPS    HA 9228   3.345   1.176   6.075 -0.5001  0.9593  0.9538
   94SAPS    HB 9229   3.420   1.024   6.108 -1.7287  0.6614 -0.4338
   94SAPS    C2 9230   3.494   1.178   6.240 -0.7201 -0.1544  0.5238
   94SAPS    HS 9231   3.406   1.155   6.304 -0.1826  0.9890  1.7143
   94SAPS   O21 9232   3.522   1.314   6.233  0.1337 -0.8232  0.4735
   94SAPS   C21 9233   3.424   1.394   6.214  0.5366 -0.3326  0.6000
   94SAPS   O22 9234   3.302   1.365   6.205 -0.7546  0.1054  0.1623
   94SAPS   C22 9235   3.480   1.539   6.238  0.8682  0.6498  0.5399
   94SAPS   H2R 9236   3.560   1.537   6.314 -0.9892 -0.5061  2.5706
   94SAPS   H2S 9237   3.512   1.579   6.139 -3.2317 -0.5013 -1.4958
   94SAPS    C3 9238   3.615   1.096   6.283  0.4918 -0.0250  0.1453
   94SAPS    HX 9239   3.690   1.090   6.201 -0.0514  0.9873 -0.4439
   94SAPS    HY 9240   3.587   0.990   6.296  3.7753 -1.0474 -0.2373
   94SAPS   O31 9241   3.689   1.140   6.407  0.3044  0.4649  0.1148
   94SAPS   C31 9242   3.631   1.111   6.518 -1.0481 -0.1032  0.2962
   94SAPS   O32 9243   3.533   1.042   6.528  0.2747  0.5434  1.0827
   94SAPS   C32 9244   3.721   1.160   6.622 -0.9057  0.3851  0.2674
   94SAPS   H2X 9245   3.747   1.268   6.616  0.0460  0.1471 -0.0397
   94SAPS   H2Y 9246   3.816   1.103   6.607 -0.7527  0.4707  0.8477
   94SAPS   C23 9247   3.371   1.639   6.284 -0.1480  0.2558 -0.3686
   94SAPS   H3R 9248   3.274   1.629   6.230  0.0043 -0.7328 -0.4628
   94SAPS   H3S 9249   3.397   1.743   6.255 -1.1412  1.0485  1.3624
   94SAPS   C24 9250   3.353   1.656   6.442  0.0014 -0.5581  0.3083
   94SAPS   H4R 9251   3.290   1.747   6.453  1.0622  0.2019  0.1572
   94SAPS   H4S 9252   3.456   1.666   6.482  2.2711 -2.5033 -4.3180
   94SAPS   C25 9253   3.274   1.546   6.504 -0.4235  0.3633 -0.0111
   94SAPS   H5R 9254   3.197   1.512   6.433  1.3810 -1.0067 -1.4153
   94SAPS   C26 9255   3.295   1.487   6.627  0.4135 -0.3898 -0.0601
   94SAPS   H6R 9256   3.221   1.410   6.653 -0.6543  0.9411  1.0063
   94SAPS   C27 9257   3.395   1.529   6.727 -0.4517 -0.4976 -0.1688
   94SAPS   H7R 9258   3.480   1.575   6.672 -0.7516  2.9895  1.9726
   94SAPS   H7S 9259   3.437   1.441   6.780  1.9670  1.8085  1.9857
   94SAPS   C28 9260   3.334   1.623   6.826  0.2611  0.5745  0.7201
   94SAPS   H8R 9261   3.260   1.694   6.784 -0.8356  0.5014  2.4587
   94SAPS   C29 9262   3.358   1.622   6.961 -1.1640 -0.4168  0.6825
   94SAPS   H9R 9263   3.313   1.706   7.016 -1.6500  0.4424 -0.9722
   94SAPS  C210 9264   3.452   1.541   7.039  0.2356 -0.5185 -0.0225
   94SAPS  H10R 9265   3.524   1.491   6.970 -0.4395 -0.1466 -1.0207
   94SAPS  H10S 9266   3.400   1.458   7.091  2.5498 -3.0600 -1.4915
   94SAPS  C211 9267   3.541   1.623   7.120 -0.1906  1.0955 -1.0234
   94SAPS  H11R 9268   3.632   1.649   7.064  0.8745 -1.2439 -0.5260
   94SAPS  C212 9269   3.541   1.653   7.247  0.7606  0.2960 -0.0626
   94SAPS  H12R 9270   3.612   1.726   7.287 -1.3362  2.8973 -0.7940
   94SAPS  C213 9271   3.424   1.620   7.343 -0.3963  0.0609  0.7243
   94SAPS  H13R 9272   3.463   1.539   7.409 -0.6767 -0.8398 -0.1810
   94SAPS  H13S 9273   3.343   1.570   7.285  1.9234 -1.7373 -1.1298
   94SAPS  C214 9274   3.367   1.737   7.425 -0.0184  0.4337 -0.1292
   94SAPS  H14R 9275   3.302   1.808   7.372  0.3302  0.6022 -0.3319
   94SAPS  C215 9276   3.388   1.751   7.561 -0.1260  0.1361  0.2629
   94SAPS  H15R 9277   3.338   1.838   7.608 -2.1935 -1.2892  0.8409
   94SAPS  C216 9278   3.470   1.669   7.657 -0.6164  0.3298 -0.1433
   94SAPS  H16R 9279   3.549   1.726   7.710  1.8445 -2.2910 -0.7469
   94SAPS  H16S 9280   3.529   1.590   7.606 -2.8479 -0.6428 -1.3957
   94SAPS  C217 9281   3.371   1.598   7.753  0.2084  0.6896  0.5297
   94SAPS  H17R 9282   3.431   1.519   7.802  1.0740  0.7040 -0.4673
   94SAPS  H17S 9283   3.299   1.547   7.685  1.3898  0.6959 -0.7812
   94SAPS  C218 9284   3.298   1.686   7.855 -0.1316  0.3794  0.4494
   94SAPS  H18R 9285   3.235   1.618   7.918 -1.0060  0.0989 -0.6918
   94SAPS  H18S 9286   3.230   1.745   7.791 -2.4564 -1.4935  1.0256
   94SAPS  C219 9287   3.384   1.781   7.949  0.0540  0.1209 -0.0101
   94SAPS  H19R 9288   3.413   1.868   7.887  0.6160  0.6410  0.9729
   94SAPS  H19S 9289   3.471   1.725   7.990 -0.8665  0.3985  2.5012
   94SAPS  C220 9290   3.294   1.832   8.071  0.3841  0.8080  0.7110
   94SAPS  H20R 9291   3.258   1.744   8.129  0.5871 -1.2436 -2.0810
   94SAPS  H20S 9292   3.199   1.871   8.031  0.6913 -1.5115 -2.7492
   94SAPS  H20T 9293   3.341   1.910   8.135  1.9799  1.9340 -1.6668
   94SAPS   C33 9294   3.669   1.126   6.766 -0.2445 -0.2023  0.7939
   94SAPS   H3X 9295   3.637   1.021   6.779  1.0653 -0.7776 -0.3460
   94SAPS   H3Y 9296   3.582   1.193   6.786  1.2731  1.4235  2.4509
   94SAPS   C34 9297   3.779   1.165   6.862 -0.6471  0.1012 -0.6673
   94SAPS   H4X 9298   3.823   1.266   6.842 -0.3631  0.0501 -0.3007
   94SAPS   H4Y 9299   3.867   1.098   6.851 -1.4757 -1.0172 -0.6015
   94SAPS   C35 9300   3.735   1.169   7.010 -1.0570  0.5488  0.0844
   94SAPS   H5X 9301   3.732   1.063   7.043  0.7699 -0.8948 -3.7714
   94SAPS   H5Y 9302   3.639   1.218   7.037 -0.8440  1.4361 -0.7172
   94SAPS   C36 9303   3.833   1.245   7.097 -0.0411  0.2787 -0.6670
   94SAPS   H6X 9304   3.827   1.352   7.067 -1.5048  1.1117  2.1827
   94SAPS   H6Y 9305   3.935   1.206   7.078  1.4477  2.1167  2.6744
   94SAPS   C37 9306   3.812   1.227   7.249  0.3961  0.3367 -0.3544
   94SAPS   H7X 9307   3.883   1.283   7.314  0.3796  0.5550 -0.5220
   94SAPS   H7Y 9308   3.828   1.122   7.280 -1.2188  0.7953  2.3053
   94SAPS   C38 9309   3.669   1.254   7.296 -0.1369 -0.3275  0.2576
   94SAPS   H8X 9310   3.604   1.176   7.251  1.6736 -0.1627 -2.9506
   94SAPS   H8Y 9311   3.642   1.356   7.261  0.7765  0.2709  1.2197
   94SAPS   C39 9312   3.654   1.241   7.446 -0.4679  0.1030  0.1632
   94SAPS   H9X 9313   3.714   1.153   7.478  0.3521  0.5138 -0.2011
   94SAPS   H9Y 9314   3.550   1.217   7.475 -0.8731 -0.3456 -1.5223
   94SAPS  C310 9315   3.709   1.361   7.527  0.3846  0.0900 -0.4645
   94SAPS  H10X 9316   3.642   1.448   7.507  1.0493  0.3985 -1.4448
   94SAPS  H10Y 9317   3.810   1.387   7.488  1.7634 -0.9675  2.1831
   94SAPS  C311 9318   3.697   1.331   7.680  1.3786  0.3006  0.1746
   94SAPS  H11X 9319   3.764   1.244   7.696 -0.8017 -1.3442  0.7470
   94SAPS  H11Y 9320   3.592   1.299   7.693  1.8268 -0.2406  3.3461
   94SAPS  C312 9321   3.745   1.435   7.776 -0.3326  0.2280  0.0853
   94SAPS  H12X 9322   3.688   1.531   7.772  1.0451  1.0368 -1.8426
   94SAPS  H12Y 9323   3.851   1.448   7.746  0.0711  0.5368  1.5706
   94SAPS  C313 9324   3.749   1.388   7.921 -0.5437 -0.1657  0.6076
   94SAPS  H13X 9325   3.811   1.296   7.925 -1.3572 -0.8373 -1.4188
   94SAPS  H13Y 9326   3.653   1.349   7.958 -0.1869 -0.3526  1.3677
   94SAPS  C314 9327   3.803   1.497   8.018 -0.1506  0.2808 -0.1020
   94SAPS  H14X 9328   3.724   1.575   8.028  1.4422  1.6421  3.6037
   94SAPS  H14Y 9329   3.886   1.549   7.965 -1.0005  2.1396  0.3187
   94SAPS  C315 9330   3.843   1.429   8.146 -0.1976 -0.3919 -0.3581
   94SAPS  H15X 9331   3.916   1.347   8.131 -0.9945 -1.3058  0.5989
   94SAPS  H15Y 9332   3.756   1.376   8.190  0.1103 -1.6315 -1.1885
   94SAPS  C316 9333   3.893   1.527   8.249  0.0250  0.2230 -0.2230
   94SAPS  H16X 9334   3.842   1.623   8.228  1.2227  0.9487  0.1115
   94SAPS  H16Y 9335   3.998   1.562   8.239 -0.2663  1.3216  0.3982
   94SAPS  C317 9336   3.854   1.488   8.396  0.0735 -0.1385  0.4083
   94SAPS  H17X 9337   3.903   1.389   8.409 -0.2934 -0.6269 -1.6306
   94SAPS  H17Y 9338   3.744   1.470   8.396  0.1100 -0.4158  1.1781
   94SAPS  C318 9339   3.895   1.596   8.496 -0.6973  0.2490  0.7049
   94SAPS  H18X 9340   3.882   1.558   8.599 -2.9406  1.4311  0.9398
   94SAPS  H18Y 9341   3.825   1.681   8.481 -2.4145 -1.3998 -1.2680
   94SAPS  H18Z 9342   4.000   1.628   8.482 -0.8055  0.9853  1.4505
   95SAPS     N 9343   0.360   3.931   6.258 -0.8587 -0.8462 -0.1243
   95SAPS   HN1 9344   0.400   3.836   6.263 -2.3040 -1.5132 -0.6850
   95SAPS   HN2 9345   0.390   3.999   6.331 -2.4488 -0.9462  0.6557
   95SAPS   HN3 9346   0.262   3.905   6.281 -1.3685  1.4188  0.6136
   95SAPS   C12 9347   0.390   3.988   6.124 -0.3399 -0.4500  0.3567
   95SAPS  H12A 9348   0.495   4.005   6.106 -0.7394  1.9788 -0.0873
   95SAPS   C13 9349   0.332   3.904   6.010  0.3489 -0.1890 -0.6135
   95SAPS  O13A 9350   0.284   3.795   6.030  0.3570 -0.2422  0.5024
   95SAPS  O13B 9351   0.360   3.935   5.892  0.3836 -0.3677 -0.1688
   95SAPS   C11 9352   0.322   4.131   6.117  0.2444 -0.0754  0.1436
   95SAPS  H11A 9353   0.212   4.121   6.110 -0.3410  1.2034  4.5733
   95SAPS  H11B 9354   0.345   4.185   6.022 -1.4989  2.8140  1.2475
   95SAPS     P 9355   0.278   4.346   6.267 -0.3082  0.1808 -0.0589
   95SAPS   O13 9356   0.348   4.414   6.381  0.0385  0.0171 -0.5660
   95SAPS   O14 9357   0.242   4.419   6.141  0.0571 -0.3425  0.6889
   95SAPS   O12 9358   0.365   4.222   6.217  0.3968  0.5933  0.7426
   95SAPS   O11 9359   0.143   4.292   6.315  1.1262  0.2696 -0.2701
   95SAPS    C1 9360   0.128   4.209   6.432  0.5300  0.3856 -0.8294
   95SAPS    HA 9361   0.047   4.135   6.412  0.0931  0.4404  0.5788
   95SAPS    HB 9362   0.220   4.154   6.459  0.2817  0.5893  0.5244
   95SAPS    C2 9363   0.063   4.281   6.556 -0.0779 -0.1218  0.5830
   95SAPS    HS 9364  -0.007   4.354   6.511 -2.0018 -2.2565 -0.0827
   95SAPS   O21 9365   0.182   4.334   6.626 -0.0780  0.5734  0.1042
   95SAPS   C21 9366   0.159   4.443   6.698 -0.6385  0.3754 -0.7985
   95SAPS   O22 9367   0.056   4.510   6.708  0.1252 -0.0842 -0.1142
   95SAPS   C22 9368   0.292   4.477   6.763  0.2661 -0.0786 -0.0474
   95SAPS   H2R 9369   0.373   4.442   6.696 -0.2910  3.0314 -2.5804
   95SAPS   H2S 9370   0.311   4.587   6.769  0.7430 -0.2037  1.0048
   95SAPS    C3 9371  -0.021   4.184   6.647 -0.4070  0.3626  0.1278
   95SAPS    HX 9372   0.053   4.105   6.672  1.1053  1.3246 -1.1831
   95SAPS    HY 9373  -0.104   4.142   6.587 -0.3508  0.9192 -0.3447
   95SAPS   O31 9374  -0.064   4.250   6.767 -0.2319  0.2118  0.3692
   95SAPS   C31 9375  -0.184   4.303   6.765 -0.2741  0.6773 -0.4681
   95SAPS   O32 9376  -0.271   4.276   6.686 -0.2937  0.6062  0.0733
   95SAPS   C32 9377  -0.199   4.406   6.872 -0.4837 -0.0167 -0.0912
   95SAPS   H2X 9378  -0.262   4.485   6.828  0.1039 -1.0272 -2.9196
   95SAPS   H2Y 9379  -0.099   4.453   6.884 -0.6222  0.7878 -1.8511
   95SAPS   C23 9380   0.313   4.421   6.906  0.3978  0.2630  0.7405
   95SAPS   H3R 9381   0.340   4.314   6.897  0.6795  0.5038 -2.7285
   95SAPS   H3S 9382   0.215   4.420   6.959  0.3805 -1.4581  0.7411
   95SAPS   C24 9383   0.426   4.490   6.982  0.4340  0.1370  0.5524
   95SAPS   H4R 9384   0.513   4.492   6.913  0.0471 -0.1387  0.0481
   95SAPS   H4S 9385   0.456   4.413   7.056  1.7845  0.2890  0.1873
   95SAPS   C25 9386   0.408   4.629   7.042  0.3562  0.0966  0.0341
   95SAPS   H5R 9387   0.414   4.716   6.975 -0.1213 -1.3420 -1.9724
   95SAPS   C26 9388   0.388   4.654   7.173  0.0132 -0.8149  0.2577
   95SAPS   H6R 9389   0.387   4.757   7.211  2.5230 -1.1443  1.4837
   95SAPS   C27 9390   0.366   4.560   7.284  0.2233  0.0024  0.6817
   95SAPS   H7R 9391   0.438   4.586   7.364  0.9155  0.9563 -0.2164
   95SAPS   H7S 9392   0.384   4.457   7.246 -0.2093  0.7199 -1.6718
   95SAPS   C28 9393   0.219   4.551   7.331 -0.2840 -0.3833  0.4372
   95SAPS   H8R 9394   0.148   4.565   7.248  0.9629  0.3872 -0.5479
   95SAPS   C29 9395   0.171   4.529   7.455 -0.0364 -0.8725 -0.0151
   95SAPS   H9R 9396   0.062   4.537   7.466 -0.2023 -1.5361 -0.9801
   95SAPS  C210 9397   0.256   4.506   7.581 -0.2787 -0.0166  0.4353
   95SAPS  H10R 9398   0.280   4.604   7.627 -0.9951  0.4105 -0.0681
   95SAPS  H10S 9399   0.356   4.467   7.556 -1.2118 -1.0808 -1.9749
   95SAPS  C211 9400   0.183   4.422   7.688 -0.3134 -0.2971 -0.0570
   95SAPS  H11R 9401   0.145   4.326   7.650 -0.2135  0.3714 -1.9211
   95SAPS  C212 9402   0.173   4.446   7.815 -0.2599  0.1275 -0.7406
   95SAPS  H12R 9403   0.114   4.377   7.878  1.0491 -0.4463 -0.1089
   95SAPS  C213 9404   0.226   4.567   7.888 -0.2181  0.4865  0.6174
   95SAPS  H13R 9405   0.160   4.652   7.859 -1.5424 -0.7012  0.0238
   95SAPS  H13S 9406   0.328   4.588   7.849  0.3544 -0.9682  1.2871
   95SAPS  C214 9407   0.235   4.551   8.040  0.6948 -0.2927 -0.2061
   95SAPS  H14R 9408   0.291   4.462   8.071  1.1047  0.0399  0.0240
   95SAPS  C215 9409   0.199   4.643   8.130  0.0832 -0.8301 -0.2453
   95SAPS  H15R 9410   0.219   4.625   8.237 -0.3700 -2.4068 -0.3939
   95SAPS  C216 9411   0.135   4.782   8.103 -0.4150 -0.1121 -0.1649
   95SAPS  H16R 9412   0.035   4.783   8.054 -0.3802 -0.5230 -0.2440
   95SAPS  H16S 9413   0.198   4.821   8.021 -0.4297  0.7548  0.2214
   95SAPS  C217 9414   0.141   4.875   8.231 -0.9742  0.6047  0.0173
   95SAPS  H17R 9415   0.251   4.882   8.245 -0.7052 -3.1175  0.8446
   95SAPS  H17S 9416   0.108   4.816   8.319  1.3661 -2.6216 -1.0870
   95SAPS  C218 9417   0.080   5.016   8.223  0.8665  0.0770  0.1484
   95SAPS  H18R 9418  -0.021   5.001   8.179  1.2129  2.6186 -1.7765
   95SAPS  H18S 9419   0.129   5.062   8.135  0.4310 -0.6571 -0.4890
   95SAPS  C219 9420   0.106   5.097   8.349  0.2732 -0.0462 -0.3892
   95SAPS  H19R 9421   0.215   5.109   8.367 -0.2466  3.1313  1.4421
   95SAPS  H19S 9422   0.061   5.040   8.434 -0.0750 -0.3536 -0.7787
   95SAPS  C220 9423   0.050   5.239   8.359  0.2008 -0.5424  0.2006
   95SAPS  H20R 9424   0.079   5.282   8.457  4.0798  0.1848 -1.0699
   95SAPS  H20S 9425  -0.054   5.256   8.323  0.1640 -0.6723  0.2461
   95SAPS  H20T 9426   0.111   5.297   8.286 -1.1995 -0.2217 -0.7608
   95SAPS   C33 9427  -0.243   4.348   7.007  0.6702 -0.4110 -0.2898
   95SAPS   H3X 9428  -0.177   4.262   7.030  0.0699 -1.6650 -2.8272
   95SAPS   H3Y 9429  -0.347   4.309   7.004  1.2574 -2.3399  1.7613
   95SAPS   C34 9430  -0.232   4.444   7.125 -0.1694  0.3258 -0.2650
   95SAPS   H4X 9431  -0.299   4.532   7.108  2.5535  2.4507 -0.7004
   95SAPS   H4Y 9432  -0.135   4.499   7.127  0.0049  0.0027  0.8658
   95SAPS   C35 9433  -0.257   4.387   7.265 -0.3339 -0.0661  0.9915
   95SAPS   H5X 9434  -0.190   4.300   7.278 -0.4735 -0.1876  0.9090
   95SAPS   H5Y 9435  -0.357   4.338   7.259  0.3356 -1.4182  0.4280
   95SAPS   C36 9436  -0.225   4.477   7.377 -0.3826 -0.9049  0.0221
   95SAPS   H6X 9437  -0.283   4.570   7.361  1.3132  0.1111 -0.4952
   95SAPS   H6Y 9438  -0.117   4.501   7.389 -1.1521  2.0975  2.1631
   95SAPS   C37 9439  -0.265   4.422   7.513 -0.4343 -0.2920  0.5544
   95SAPS   H7X 9440  -0.243   4.313   7.515 -0.8013 -0.3598  0.9810
   95SAPS   H7Y 9441  -0.376   4.429   7.523 -0.6936 -0.2231 -1.6898
   95SAPS   C38 9442  -0.202   4.483   7.641 -0.6107 -0.2009  0.0588
   95SAPS   H8X 9443  -0.197   4.593   7.632  1.2312 -0.2421  0.1859
   95SAPS   H8Y 9444  -0.093   4.461   7.651 -0.7096 -0.1565  1.3814
   95SAPS   C39 9445  -0.279   4.456   7.772 -0.0234  0.5295  0.7450
   95SAPS   H9X 9446  -0.270   4.346   7.787 -1.1464  0.4893  1.2798
   95SAPS   H9Y 9447  -0.387   4.483   7.762 -0.1669 -0.6045 -1.3237
   95SAPS  C310 9448  -0.205   4.515   7.901 -0.1545 -0.0719 -0.1509
   95SAPS  H10X 9449  -0.191   4.625   7.891  0.2578 -0.0957  0.1424
   95SAPS  H10Y 9450  -0.100   4.480   7.896 -0.0796  0.1197  0.0515
   95SAPS  C311 9451  -0.274   4.472   8.036 -0.1122 -0.4303  0.2685
   95SAPS  H11X 9452  -0.273   4.360   8.034 -1.9810 -0.4877 -1.8129
   95SAPS  H11Y 9453  -0.385   4.482   8.042 -0.0246  0.1179  1.0385
   95SAPS  C312 9454  -0.208   4.533   8.165 -0.1474 -0.0385  0.1873
   95SAPS  H12X 9455  -0.098   4.519   8.153 -0.5678 -2.9054 -1.2917
   95SAPS  H12Y 9456  -0.235   4.480   8.259 -1.4052  2.0230  1.0486
   95SAPS  C313 9457  -0.255   4.678   8.181  0.6088  0.1900 -0.4558
   95SAPS  H13X 9458  -0.361   4.696   8.153  0.5883  0.8903  0.0339
   95SAPS  H13Y 9459  -0.205   4.751   8.113  1.2335 -0.0922 -0.3003
   95SAPS  C314 9460  -0.231   4.742   8.319  0.4759  0.2381 -0.7106
   95SAPS  H14X 9461  -0.121   4.741   8.337  0.4919 -0.9047 -0.7991
   95SAPS  H14Y 9462  -0.286   4.673   8.385  0.2179  0.0155 -1.1565
   95SAPS  C315 9463  -0.287   4.887   8.337  0.3933 -0.3722  0.1766
   95SAPS  H15X 9464  -0.394   4.872   8.311  0.2319  0.0539  0.5695
   95SAPS  H15Y 9465  -0.249   4.949   8.253 -1.0670  0.3138 -0.0256
   95SAPS  C316 9466  -0.260   4.947   8.478 -0.1644 -0.2226  0.9728
   95SAPS  H16X 9467  -0.319   5.040   8.493 -1.3100 -0.9223  0.9540
   95SAPS  H16Y 9468  -0.153   4.974   8.486 -0.6197  1.5261  1.5037
   95SAPS  C317 9469  -0.295   4.847   8.595  0.4675 -0.4846  0.2822
   95SAPS  H17X 9470  -0.266   4.904   8.686  1.4164  0.6554 -0.6901
   95SAPS  H17Y 9471  -0.240   4.751   8.588  0.9109 -0.1409 -1.2290
   95SAPS  C318 9472  -0.443   4.802   8.609 -0.1038  0.1202 -0.4401
   95SAPS  H18X 9473  -0.469   4.759   8.509  1.2168 -0.8558 -0.3858
   95SAPS  H18Y 9474  -0.502   4.888   8.646  1.2897  0.5539  0.8245
   95SAPS  H18Z 9475  -0.460   4.728   8.690  0.9689 -1.4507 -1.6044
   96SAPS     N 9476   0.783   6.532   6.246 -0.4601  0.2266 -0.5450
   96SAPS   HN1 9477   0.822   6.450   6.297 -0.3104  1.6398  1.7627
   96SAPS   HN2 9478   0.849   6.613   6.249 -0.3120  0.0952 -0.1390
   96SAPS   HN3 9479   0.697   6.555   6.301 -0.7358 -3.9374  1.1127
   96SAPS   C12 9480   0.737   6.491   6.111 -0.0906 -0.2510 -0.2623
   96SAPS  H12A 9481   0.682   6.572   6.065  0.4316  0.1843 -0.1219
   96SAPS   C13 9482   0.848   6.439   6.020  0.1211  0.3645  0.3533
   96SAPS  O13A 9483   0.971   6.451   6.048 -0.0272 -0.0861 -0.0164
   96SAPS  O13B 9484   0.808   6.387   5.910  0.0273 -0.1172 -0.4602
   96SAPS   C11 9485   0.641   6.371   6.130  0.0720 -0.5971  0.7147
   96SAPS  H11A 9486   0.699   6.279   6.149  0.1408 -0.9839 -1.2090
   96SAPS  H11B 9487   0.592   6.363   6.031  1.2705  2.3876 -0.2308
   96SAPS     P 9488   0.395   6.355   6.247  0.1077  0.3792 -0.1435
   96SAPS   O13 9489   0.320   6.455   6.330 -0.4813 -0.5386 -0.3007
   96SAPS   O14 9490   0.336   6.339   6.114 -1.0294  0.0504 -0.1986
   96SAPS   O12 9491   0.541   6.405   6.227 -0.3419 -0.0468 -0.6437
   96SAPS   O11 9492   0.409   6.213   6.319  0.3972 -0.4732  0.6834
   96SAPS    C1 9493   0.522   6.184   6.397 -0.0102 -1.1165  0.1506
   96SAPS    HA 9494   0.597   6.148   6.323 -0.3655  1.5740 -1.6482
   96SAPS    HB 9495   0.559   6.274   6.449 -0.5292 -0.0915 -1.2034
   96SAPS    C2 9496   0.494   6.095   6.517  0.1634  0.3019  0.2794
   96SAPS    HS 9497   0.446   6.000   6.486  1.0793  0.4049 -1.6519
   96SAPS   O21 9498   0.420   6.166   6.617 -0.1774  0.0044  0.4095
   96SAPS   C21 9499   0.315   6.115   6.680  0.8659 -1.0870 -0.3864
   96SAPS   O22 9500   0.275   6.002   6.658 -0.2096  0.3725  0.2172
   96SAPS   C22 9501   0.256   6.229   6.774  0.0197  0.4236 -0.1428
   96SAPS   H2R 9502   0.337   6.305   6.769 -0.4124  0.9697  0.8331
   96SAPS   H2S 9503   0.167   6.275   6.728 -0.6835 -1.3027 -0.5907
   96SAPS    C3 9504   0.631   6.051   6.584  0.0026 -0.3920 -0.7225
   96SAPS    HX 9505   0.671   6.146   6.626  1.3669 -1.3168  0.1232
   96SAPS    HY 9506   0.702   5.999   6.517  0.2395 -0.5776 -0.3332
   96SAPS   O31 9507   0.595   5.962   6.691 -0.1091  0.2342 -0.8318
   96SAPS   C31 9508   0.592   5.831   6.655 -0.0013 -0.0372  0.6078
   96SAPS   O32 9509   0.606   5.792   6.539 -0.4320  0.1019  0.4139
   96SAPS   C32 9510   0.571   5.745   6.773  0.3604 -0.1088  0.2342
   96SAPS   H2X 9511   0.568   5.638   6.740  0.7197 -0.1347  0.2835
   96SAPS   H2Y 9512   0.470   5.769   6.812 -0.2422 -0.7297 -0.8741
   96SAPS   C23 9513   0.234   6.172   6.921 -0.1369 -0.0849 -0.7201
   96SAPS   H3R 9514   0.335   6.158   6.965  0.1926  3.0745 -0.2411
   96SAPS   H3S 9515   0.183   6.075   6.903 -1.5369  0.0833  1.8572
   96SAPS   C24 9516   0.143   6.265   7.001  0.5337  0.3560 -0.3376
   96SAPS   H4R 9517   0.102   6.213   7.090 -0.0079 -0.4956 -1.0721
   96SAPS   H4S 9518   0.055   6.297   6.942 -1.2184  0.2917  2.0955
   96SAPS   C25 9519   0.226   6.388   7.043  0.3572  0.3839 -0.2400
   96SAPS   H5R 9520   0.293   6.428   6.966  1.5174 -0.4440  0.3064
   96SAPS   C26 9521   0.227   6.435   7.168 -0.0320 -0.3521 -0.4263
   96SAPS   H6R 9522   0.285   6.527   7.186 -2.5118  0.8995  1.8709
   96SAPS   C27 9523   0.162   6.385   7.294 -0.9189  0.3806  0.0601
   96SAPS   H7R 9524   0.243   6.398   7.369 -1.5128 -0.0712  0.8004
   96SAPS   H7S 9525   0.146   6.275   7.285  1.3315 -0.1639  1.8155
   96SAPS   C28 9526   0.036   6.449   7.340 -0.5218 -0.5009  0.3142
   96SAPS   H8R 9527  -0.033   6.484   7.262 -0.6465  1.3677  1.2123
   96SAPS   C29 9528   0.000   6.476   7.469  0.0179  0.0872 -0.0819
   96SAPS   H9R 9529  -0.095   6.530   7.480  0.6510  1.2623 -0.2654
   96SAPS  C210 9530   0.072   6.435   7.604  0.4671  1.0174 -0.0959
   96SAPS  H10R 9531   0.035   6.493   7.692 -1.0369 -0.2844  0.1843
   96SAPS  H10S 9532   0.179   6.465   7.607  0.4500  0.9910  1.4657
   96SAPS  C211 9533   0.043   6.292   7.649  0.6308  0.4782  0.0562
   96SAPS  H11R 9534  -0.014   6.240   7.570  1.2007  0.0881 -0.1067
   96SAPS  C212 9535   0.082   6.224   7.757  0.4857  0.2776  0.0745
   96SAPS  H12R 9536   0.048   6.121   7.774  0.4043  0.2568 -0.2048
   96SAPS  C213 9537   0.176   6.284   7.864 -0.0310  0.2822  0.2109
   96SAPS  H13R 9538   0.200   6.389   7.835  2.7505 -0.3645 -0.1312
   96SAPS  H13S 9539   0.277   6.241   7.850  0.5914  1.9250 -0.6189
   96SAPS  C214 9540   0.128   6.260   8.007  1.2790 -0.7909  0.1865
   96SAPS  H14R 9541   0.018   6.261   8.005  1.2479 -1.6945  0.9076
   96SAPS  C215 9542   0.189   6.252   8.122  0.5840 -0.7267  0.6919
   96SAPS  H15R 9543   0.135   6.233   8.216  0.4111  1.7014  1.1285
   96SAPS  C216 9544   0.334   6.276   8.138 -0.2982 -0.1234  0.0703
   96SAPS  H16R 9545   0.381   6.335   8.056  1.8667 -2.2507 -0.3240
   96SAPS  H16S 9546   0.384   6.178   8.152  0.6206  0.6210  2.4217
   96SAPS  C217 9547   0.374   6.361   8.262 -0.5560  0.4452 -0.2692
   96SAPS  H17R 9548   0.484   6.369   8.256 -0.3049 -1.8905  0.0121
   96SAPS  H17S 9549   0.357   6.298   8.353 -0.2414  1.4381  0.4980
   96SAPS  C218 9550   0.303   6.492   8.297 -0.3845 -0.6333 -0.1203
   96SAPS  H18R 9551   0.199   6.470   8.328 -1.0436 -0.1636 -1.8766
   96SAPS  H18S 9552   0.300   6.565   8.213  2.8582 -0.1285  0.0769
   96SAPS  C219 9553   0.382   6.569   8.407 -0.0161 -0.0779 -0.0723
   96SAPS  H19R 9554   0.468   6.616   8.353  0.3873 -0.8622 -0.1320
   96SAPS  H19S 9555   0.428   6.504   8.485  2.1309  1.2506 -0.1222
   96SAPS  C220 9556   0.302   6.684   8.478  0.4133 -0.1432 -0.5351
   96SAPS  H20R 9557   0.256   6.761   8.411 -4.4807 -0.5371  1.9296
   96SAPS  H20S 9558   0.371   6.726   8.554  0.8791 -1.8744  0.0329
   96SAPS  H20T 9559   0.213   6.629   8.515  0.1017  0.4898 -0.3306
   96SAPS   C33 9560   0.677   5.751   6.880  0.8292 -0.0196  0.4788
   96SAPS   H3X 9561   0.638   5.821   6.957  3.0420  0.5635  1.1449
   96SAPS   H3Y 9562   0.773   5.787   6.837 -0.2669 -0.2726 -2.3858
   96SAPS   C34 9563   0.711   5.620   6.947  0.2244  0.3667 -0.0872
   96SAPS   H4X 9564   0.743   5.544   6.872 -1.6805  0.6345 -1.2401
   96SAPS   H4Y 9565   0.619   5.571   6.984  0.8743 -0.0749  0.9810
   96SAPS   C35 9566   0.805   5.632   7.071 -0.2663  0.7927  0.6386
   96SAPS   H5X 9567   0.906   5.666   7.039  0.0175 -0.2896  0.3556
   96SAPS   H5Y 9568   0.812   5.530   7.112 -2.4977  0.2524 -0.1803
   96SAPS   C36 9569   0.752   5.724   7.182  0.0661  0.7112  0.1941
   96SAPS   H6X 9570   0.719   5.819   7.135 -0.3696  1.0755  1.2103
   96SAPS   H6Y 9571   0.831   5.730   7.260  0.5553 -1.2160 -0.1084
   96SAPS   C37 9572   0.627   5.670   7.252 -0.2346 -0.7502 -0.1878
   96SAPS   H7X 9573   0.628   5.559   7.262 -0.7007 -0.8478 -1.1524
   96SAPS   H7Y 9574   0.544   5.700   7.185 -1.3998 -0.3629  1.3573
   96SAPS   C38 9575   0.605   5.727   7.398 -0.0825 -0.2485 -0.4229
   96SAPS   H8X 9576   0.504   5.698   7.436 -0.3841  3.0132  1.7108
   96SAPS   H8Y 9577   0.607   5.838   7.392  3.6928 -0.2770 -3.4648
   96SAPS   C39 9578   0.712   5.697   7.501  0.4549  0.8016 -0.7210
   96SAPS   H9X 9579   0.724   5.786   7.567 -1.0266 -0.8549  1.9845
   96SAPS   H9Y 9580   0.812   5.671   7.460  1.7093  3.6914  0.2839
   96SAPS  C310 9581   0.668   5.583   7.601 -0.1193  0.0041 -0.8201
   96SAPS  H10X 9582   0.686   5.479   7.565  3.5580 -0.6879  2.4550
   96SAPS  H10Y 9583   0.562   5.601   7.632 -0.4347 -0.4675 -1.5853
   96SAPS  C311 9584   0.745   5.601   7.736  0.3405  0.2740  0.5173
   96SAPS  H11X 9585   0.714   5.696   7.784  0.1201 -0.5289  2.0128
   96SAPS  H11Y 9586   0.852   5.613   7.708 -0.3086  2.3738 -1.3724
   96SAPS  C312 9587   0.739   5.489   7.837  0.0173  0.1042 -0.8100
   96SAPS  H12X 9588   0.793   5.400   7.799  1.8689  0.2895  1.2091
   96SAPS  H12Y 9589   0.634   5.472   7.869  1.0124 -0.1984  2.7191
   96SAPS  C313 9590   0.802   5.524   7.963  0.1222 -0.0337 -0.7292
   96SAPS  H13X 9591   0.786   5.634   7.975 -0.5311  0.2808 -3.7068
   96SAPS  H13Y 9592   0.907   5.505   7.931  0.2064  0.0577 -0.5139
   96SAPS  C314 9593   0.778   5.438   8.082  0.0374 -0.1985 -0.1681
   96SAPS  H14X 9594   0.790   5.332   8.052 -0.7867  0.4289 -2.9877
   96SAPS  H14Y 9595   0.674   5.437   8.122 -0.2319 -2.2065 -0.8006
   96SAPS  C315 9596   0.873   5.470   8.189 -0.2468  0.1595 -0.0942
   96SAPS  H15X 9597   0.853   5.573   8.225  1.5374  0.4901  0.0461
   96SAPS  H15Y 9598   0.981   5.464   8.164  0.3810  2.4685  1.8037
   96SAPS  C316 9599   0.856   5.373   8.304  0.0234  0.4642  0.5080
   96SAPS  H16X 9600   0.907   5.279   8.272 -0.3495  1.4069 -3.2577
   96SAPS  H16Y 9601   0.750   5.345   8.318 -0.1831  1.3472  0.7301
   96SAPS  C317 9602   0.900   5.427   8.440 -0.0097 -0.2954  0.8272
   96SAPS  H17X 9603   0.848   5.523   8.459 -0.1862 -0.0728 -0.6989
   96SAPS  H17Y 9604   1.010   5.443   8.429 -0.2265  1.9926  1.5023
   96SAPS  C318 9605   0.876   5.327   8.556  0.4372 -0.2343  0.1740
   96SAPS  H18X 9606   0.769   5.337   8.584  0.3390  2.4289 -0.8980
   96SAPS  H18Y 9607   0.944   5.365   8.635  0.5054  1.9386 -0.8640
   96SAPS  H18Z 9608   0.909   5.226   8.523  1.1158 -0.2108  0.7463
   97SAPS     N 9609   1.990   4.457   6.369  0.1705 -0.2690  0.2997
   97SAPS   HN1 9610   1.955   4.462   6.467 -0.5486  1.2362  0.0018
   97SAPS   HN2 9611   1.918   4.405   6.316 -0.3772 -2.0760  2.6500
   97SAPS   HN3 9612   2.069   4.392   6.354 -0.6422 -0.7217 -2.7119
   97SAPS   C12 9613   2.017   4.598   6.315  0.2563 -0.0932  0.2478
   97SAPS  H12A 9614   2.074   4.648   6.392  0.1621  1.7755 -0.8287
   97SAPS   C13 9615   2.109   4.608   6.192 -0.5584  0.6999  0.3869
   97SAPS  O13A 9616   2.189   4.516   6.161 -0.3924  0.0174  0.4141
   97SAPS  O13B 9617   2.122   4.718   6.136 -0.0603 -0.0259 -0.0004
   97SAPS   C11 9618   1.889   4.673   6.276  0.6426 -0.4006 -0.6161
   97SAPS  H11A 9619   1.847   4.632   6.182 -1.1249  0.1514 -0.0896
   97SAPS  H11B 9620   1.918   4.781   6.271 -1.2565  0.1851  0.2924
   97SAPS     P 9621   1.746   4.774   6.469  0.2779  0.3056  0.1128
   97SAPS   O13 9622   1.870   4.830   6.532  0.2214 -0.3550 -0.0032
   97SAPS   O14 9623   1.663   4.860   6.385  0.5231 -0.2236  0.3247
   97SAPS   O12 9624   1.796   4.649   6.383 -0.2337 -0.6099  0.0437
   97SAPS   O11 9625   1.653   4.709   6.588 -0.1701 -0.0132  0.1109
   97SAPS    C1 9626   1.688   4.590   6.659  0.0097  0.0095 -0.7562
   97SAPS    HA 9627   1.599   4.545   6.707  1.2837 -0.7625  1.0036
   97SAPS    HB 9628   1.733   4.517   6.588  3.2808  1.2229 -0.1208
   97SAPS    C2 9629   1.804   4.614   6.761  0.0639  0.4282  0.0696
   97SAPS    HS 9630   1.889   4.659   6.706 -0.1923 -0.9578 -1.5252
   97SAPS   O21 9631   1.831   4.493   6.821 -0.0794  0.2478 -0.5464
   97SAPS   C21 9632   1.894   4.396   6.749 -0.8894 -0.2325 -0.3193
   97SAPS   O22 9633   1.928   4.410   6.632 -0.6328 -0.1875  0.3046
   97SAPS   C22 9634   1.914   4.270   6.834  0.0485  0.4935  0.1452
   97SAPS   H2R 9635   2.010   4.286   6.887  0.3263 -1.2398  0.2081
   97SAPS   H2S 9636   1.824   4.262   6.899 -1.7886  0.9982 -2.1845
   97SAPS    C3 9637   1.755   4.711   6.867 -0.1218  0.1896  0.1276
   97SAPS    HX 9638   1.660   4.666   6.903  0.0897  0.6038  1.2482
   97SAPS    HY 9639   1.731   4.816   6.842  3.0510  1.0039  0.0668
   97SAPS   O31 9640   1.845   4.727   6.976 -0.3372 -0.2536 -0.2927
   97SAPS   C31 9641   1.959   4.795   6.956  0.1612  0.4965  0.3509
   97SAPS   O32 9642   2.000   4.840   6.853  0.2901  0.0400  0.1129
   97SAPS   C32 9643   2.040   4.789   7.088  0.5793 -0.1116 -0.1509
   97SAPS   H2X 9644   2.117   4.869   7.089 -0.5583  1.0172 -0.3761
   97SAPS   H2Y 9645   2.100   4.696   7.087  1.3798  0.3896  0.1329
   97SAPS   C23 9646   1.938   4.142   6.758  0.4773 -0.3408  0.3125
   97SAPS   H3R 9647   2.040   4.125   6.716  0.1003 -1.0763 -0.3124
   97SAPS   H3S 9648   1.868   4.152   6.673  0.8776 -1.1441 -0.1199
   97SAPS   C24 9649   1.892   4.020   6.840 -0.0890  0.1654 -0.2487
   97SAPS   H4R 9650   1.951   4.024   6.934 -1.5608  0.9078  0.6795
   97SAPS   H4S 9651   1.921   3.931   6.779  2.1674  1.2335 -0.8433
   97SAPS   C25 9652   1.743   4.006   6.867  1.2053  0.5475 -0.4150
   97SAPS   H5R 9653   1.677   3.971   6.786  0.2493 -2.9565  1.6512
   97SAPS   C26 9654   1.675   3.967   6.982  0.1784  0.8812 -0.5112
   97SAPS   H6R 9655   1.569   3.938   6.984 -0.2336  2.3035  1.0362
   97SAPS   C27 9656   1.741   3.947   7.122  0.2033 -0.0080  0.6784
   97SAPS   H7R 9657   1.680   3.996   7.201 -0.1595  1.2159 -0.3315
   97SAPS   H7S 9658   1.833   4.009   7.130  1.2769 -0.9025 -2.9431
   97SAPS   C28 9659   1.778   3.805   7.160  0.0334 -0.1512 -0.0571
   97SAPS   H8R 9660   1.863   3.769   7.100 -0.1919 -1.4041  0.3606
   97SAPS   C29 9661   1.731   3.732   7.260  0.1110  0.1240 -0.0898
   97SAPS   H9R 9662   1.759   3.625   7.261  1.9027  0.5361  1.6776
   97SAPS  C210 9663   1.624   3.773   7.361 -1.0637 -0.1600 -0.0691
   97SAPS  H10R 9664   1.600   3.682   7.420  2.3658 -0.9549  0.2956
   97SAPS  H10S 9665   1.530   3.799   7.308 -0.8476  1.6984  0.3760
   97SAPS  C211 9666   1.659   3.901   7.447 -0.3656  0.1791  0.6953
   97SAPS  H11R 9667   1.631   3.993   7.394 -0.8559  0.0681  0.7638
   97SAPS  C212 9668   1.708   3.898   7.573 -0.8822 -0.4239  0.2115
   97SAPS  H12R 9669   1.734   3.993   7.621 -0.8121 -0.2993 -0.0743
   97SAPS  C213 9670   1.737   3.772   7.647 -0.1067  0.1870 -0.8357
   97SAPS  H13R 9671   1.834   3.781   7.701 -0.3412 -2.0331  0.0855
   97SAPS  H13S 9672   1.766   3.689   7.579  2.6987 -1.0262  1.5867
   97SAPS  C214 9673   1.641   3.728   7.749 -0.3392 -0.5575  0.8961
   97SAPS  H14R 9674   1.603   3.628   7.721  0.1929 -0.9471  1.5319
   97SAPS  C215 9675   1.594   3.788   7.858  0.3047 -0.5887  0.0473
   97SAPS  H15R 9676   1.525   3.729   7.920  0.3113  0.7916  1.4422
   97SAPS  C216 9677   1.632   3.926   7.924  0.1473  0.6081 -0.1313
   97SAPS  H16R 9678   1.571   4.008   7.882  0.9501  2.1494  1.5771
   97SAPS  H16S 9679   1.735   3.955   7.895  0.2773  0.6866  0.3922
   97SAPS  C217 9680   1.629   3.911   8.075 -0.0790 -0.2075  0.7430
   97SAPS  H17R 9681   1.686   3.827   8.118  0.8821 -0.8865 -1.6895
   97SAPS  H17S 9682   1.526   3.900   8.116  0.7659  0.2259  3.1472
   97SAPS  C218 9683   1.680   4.040   8.148  0.6213  0.3795  0.3674
   97SAPS  H18R 9684   1.616   4.128   8.129  1.5850  1.0795  0.2526
   97SAPS  H18S 9685   1.786   4.054   8.115  1.0044  1.2228  1.8922
   97SAPS  C219 9686   1.684   4.031   8.301  0.1654  0.7958  0.3177
   97SAPS  H19R 9687   1.751   3.951   8.339 -0.6839  0.1323  0.4764
   97SAPS  H19S 9688   1.585   4.008   8.347  0.5767 -1.3023  0.2388
   97SAPS  C220 9689   1.728   4.158   8.365  0.7625 -0.2281  0.5311
   97SAPS  H20R 9690   1.657   4.242   8.348  1.3321 -0.1250 -1.6922
   97SAPS  H20S 9691   1.814   4.201   8.310  0.2155 -0.7179 -0.7563
   97SAPS  H20T 9692   1.746   4.138   8.472  0.9141  2.5536  1.1058
   97SAPS   C33 9693   1.956   4.808   7.220 -0.5879 -0.8197  0.6566
   97SAPS   H3X 9694   1.873   4.733   7.220 -0.7417 -0.6552  0.2113
   97SAPS   H3Y 9695   1.911   4.909   7.221  1.5819  0.2489 -0.7522
   97SAPS   C34 9696   2.045   4.798   7.343  0.2129  0.1890 -0.0289
   97SAPS   H4X 9697   2.000   4.835   7.437 -1.0663 -2.2224  0.3900
   97SAPS   H4Y 9698   2.131   4.868   7.335  1.3115 -1.1814 -0.7650
   97SAPS   C35 9699   2.089   4.659   7.375  0.1213 -0.0034 -0.5760
   97SAPS   H5X 9700   2.149   4.600   7.302  2.5723  0.7266  0.7102
   97SAPS   H5Y 9701   2.008   4.585   7.391  0.6269 -0.6880 -1.1120
   97SAPS   C36 9702   2.168   4.663   7.507  0.1228 -0.3126  0.2820
   97SAPS   H6X 9703   2.251   4.737   7.503  1.1323 -1.1129  3.4638
   97SAPS   H6Y 9704   2.221   4.565   7.504  1.5254  0.4068  0.4010
   97SAPS   C37 9705   2.086   4.665   7.638  0.2803  0.0905 -0.8592
   97SAPS   H7X 9706   2.001   4.594   7.633 -1.4826  2.0512 -0.1976
   97SAPS   H7Y 9707   2.050   4.766   7.667  0.1678 -0.6934  2.1725
   97SAPS   C38 9708   2.163   4.636   7.769  0.5415  0.3866  0.0165
   97SAPS   H8X 9709   2.259   4.691   7.757  0.9094 -0.2508 -0.0115
   97SAPS   H8Y 9710   2.184   4.528   7.778  0.0403  0.2778 -0.1014
   97SAPS   C39 9711   2.083   4.674   7.890 -0.7222 -0.4694  0.4061
   97SAPS   H9X 9712   2.105   4.590   7.959  1.1988 -0.5070 -0.1836
   97SAPS   H9Y 9713   1.975   4.676   7.863 -0.9358  1.4935  1.1930
   97SAPS  C310 9714   2.127   4.813   7.948  0.4100  0.0897  0.6299
   97SAPS  H10X 9715   2.084   4.881   7.872 -1.2145 -0.7602  0.7477
   97SAPS  H10Y 9716   2.237   4.824   7.934  0.5466 -2.8079 -1.6042
   97SAPS  C311 9717   2.092   4.848   8.097  1.1697  0.3382 -0.7955
   97SAPS  H11X 9718   2.133   4.765   8.158 -0.0780 -0.0541 -0.4675
   97SAPS  H11Y 9719   1.981   4.841   8.108  1.0874  0.4509 -1.5440
   97SAPS  C312 9720   2.121   4.997   8.147  0.3328  0.3586  0.9800
   97SAPS  H12X 9721   2.084   5.054   8.059 -3.4709 -1.8154  0.9217
   97SAPS  H12Y 9722   2.228   5.023   8.159  0.4970  0.1180  0.1281
   97SAPS  C313 9723   2.053   5.025   8.277  0.2160  0.3237 -0.1498
   97SAPS  H13X 9724   1.946   5.029   8.247  0.6711  1.4773 -1.7580
   97SAPS  H13Y 9725   2.080   5.122   8.322  1.1120 -0.4454  1.0243
   97SAPS  C314 9726   2.080   4.923   8.389  0.2425 -0.3324 -0.4061
   97SAPS  H14X 9727   2.043   4.822   8.362 -1.3218 -0.2684  1.2795
   97SAPS  H14Y 9728   2.022   4.953   8.479  0.4629  0.7653 -0.6166
   97SAPS  C315 9729   2.225   4.933   8.442 -0.9108 -0.2186  0.5803
   97SAPS  H15X 9730   2.236   5.038   8.476 -1.0418  0.7819 -2.1969
   97SAPS  H15Y 9731   2.284   4.919   8.348 -1.0406 -1.0220  0.6064
   97SAPS  C316 9732   2.256   4.823   8.545  0.5226  0.7352 -0.4806
   97SAPS  H16X 9733   2.168   4.820   8.612  1.2445 -1.0490  0.4425
   97SAPS  H16Y 9734   2.348   4.843   8.604  1.3014 -2.3591 -0.4784
   97SAPS  C317 9735   2.273   4.684   8.491 -0.1288  0.6129  0.7557
   97SAPS  H17X 9736   2.356   4.684   8.418  0.9497 -0.8519  1.9115
   97SAPS  H17Y 9737   2.177   4.649   8.446 -0.7687  1.6270  1.2810
   97SAPS  C318 9738   2.323   4.585   8.595 -0.5202  0.8885 -0.3589
   97SAPS  H18X 9739   2.427   4.607   8.629 -1.2256  2.4937  0.8639
   97SAPS  H18Y 9740   2.312   4.483   8.551 -1.5308  1.4419 -1.4455
   97SAPS  H18Z 9741   2.265   4.591   8.689 -0.3468 -2.8559  0.1399
   98SAPS     N 9742   4.269   4.425   5.870 -0.3865 -0.8334 -0.1004
   98SAPS   HN1 9743   4.174   4.468   5.861 -0.6193 -1.2646  0.2132
   98SAPS   HN2 9744   4.286   4.357   5.794 -1.0367 -2.3175  1.0214
   98SAPS   HN3 9745   4.278   4.377   5.962 -3.5511  0.1538  0.8706
   98SAPS   C12 9746   4.379   4.532   5.870 -0.4075 -0.4498 -0.1720
   98SAPS  H12A 9747   4.474   4.496   5.833  1.3751  3.4292  0.1497
   98SAPS   C13 9748   4.352   4.652   5.786 -0.1169  0.2270  0.4609
   98SAPS  O13A 9749   4.245   4.668   5.720 -0.0765  0.0822 -0.3381
   98SAPS  O13B 9750   4.446   4.737   5.776  0.3430  0.0674  0.5785
   98SAPS   C11 9751   4.408   4.582   6.017  0.0134  0.5162 -0.3941
   98SAPS  H11A 9752   4.324   4.638   6.064  1.9213  1.9651  1.4580
   98SAPS  H11B 9753   4.492   4.654   6.021 -0.8434  1.4753  2.8371
   98SAPS     P 9754   4.559   4.467   6.212  0.4963  0.2859  0.0930
   98SAPS   O13 9755   4.632   4.341   6.183  0.2602  0.3799 -0.7486
   98SAPS   O14 9756   4.641   4.584   6.215  0.1577  0.0242  0.5104
   98SAPS   O12 9757   4.436   4.473   6.106  0.1245  0.5960  0.0553
   98SAPS   O11 9758   4.490   4.466   6.350 -0.0392  0.3800  0.2821
   98SAPS    C1 9759   4.382   4.385   6.394  0.0925  0.5990 -0.1050
   98SAPS    HA 9760   4.295   4.450   6.416  0.5707  1.7490 -1.4940
   98SAPS    HB 9761   4.340   4.324   6.311  0.9367  0.0468 -0.1448
   98SAPS    C2 9762   4.423   4.289   6.506  0.3975 -0.4067  0.3470
   98SAPS    HS 9763   4.339   4.224   6.540 -1.6888  1.1366 -1.5663
   98SAPS   O21 9764   4.483   4.358   6.621 -0.0294 -0.1627 -0.3633
   98SAPS   C21 9765   4.391   4.403   6.705 -0.4832 -0.6177  0.1846
   98SAPS   O22 9766   4.272   4.385   6.691  0.4672 -1.1771 -0.4293
   98SAPS   C22 9767   4.462   4.462   6.832 -0.6814  0.0228  0.4067
   98SAPS   H2R 9768   4.524   4.378   6.871 -1.7748 -0.6340  0.8102
   98SAPS   H2S 9769   4.516   4.553   6.801  2.6140 -1.2548  1.9824
   98SAPS    C3 9770   4.523   4.176   6.462 -0.1448  0.2121 -0.3217
   98SAPS    HX 9771   4.614   4.225   6.422  2.0949 -2.1726  1.4516
   98SAPS    HY 9772   4.482   4.101   6.390  0.6970  0.5236 -1.1428
   98SAPS   O31 9773   4.564   4.098   6.571  0.6436 -0.1494  0.1347
   98SAPS   C31 9774   4.690   4.056   6.570  0.8578 -0.6486 -0.5019
   98SAPS   O32 9775   4.764   4.063   6.476  0.3085  0.0446 -0.4590
   98SAPS   C32 9776   4.720   4.012   6.710  0.1022 -0.2682 -0.4167
   98SAPS   H2X 9777   4.818   3.961   6.699 -0.6160 -1.4763 -1.3825
   98SAPS   H2Y 9778   4.655   3.934   6.754 -1.1614  1.6324  1.2671
   98SAPS   C23 9779   4.350   4.508   6.931  0.3848 -0.4916  0.4973
   98SAPS   H3R 9780   4.262   4.550   6.880 -0.1776 -1.3406  0.7452
   98SAPS   H3S 9781   4.399   4.585   6.994 -0.9370 -0.2213  1.2121
   98SAPS   C24 9782   4.295   4.388   7.022 -0.7310 -0.0832  0.0017
   98SAPS   H4R 9783   4.389   4.344   7.061 -0.2687  0.8892  0.0115
   98SAPS   H4S 9784   4.254   4.305   6.961 -0.9940 -0.5259  0.7736
   98SAPS   C25 9785   4.196   4.440   7.130  0.4663 -0.1331 -0.3879
   98SAPS   H5R 9786   4.092   4.450   7.097  0.3281  0.5725  0.2366
   98SAPS   C26 9787   4.213   4.473   7.264 -0.5339  0.5330  0.8889
   98SAPS   H6R 9788   4.114   4.498   7.305 -1.6525 -1.3989 -0.4430
   98SAPS   C27 9789   4.334   4.467   7.354  0.8189 -0.2863  0.3574
   98SAPS   H7R 9790   4.424   4.420   7.308  0.5360 -1.9368  1.4302
   98SAPS   H7S 9791   4.307   4.426   7.453  0.6203 -0.2967  0.2996
   98SAPS   C28 9792   4.360   4.624   7.370  0.5293 -0.1447 -0.0454
   98SAPS   H8R 9793   4.391   4.662   7.272 -0.8115 -3.3282 -1.8740
   98SAPS   C29 9794   4.323   4.712   7.461 -0.2660  0.2193 -0.3169
   98SAPS   H9R 9795   4.351   4.817   7.441  0.7373  0.2644  1.1951
   98SAPS  C210 9796   4.252   4.675   7.584  0.2513  0.1488 -0.4687
   98SAPS  H10R 9797   4.190   4.586   7.562  1.2482 -1.1657  1.6777
   98SAPS  H10S 9798   4.182   4.756   7.615 -0.4829 -0.9280  0.8184
   98SAPS  C211 9799   4.359   4.647   7.691 -0.3873  0.4405 -0.9376
   98SAPS  H11R 9800   4.368   4.540   7.713  0.2748  0.2819 -1.9330
   98SAPS  C212 9801   4.438   4.727   7.765  0.3344 -0.5973 -0.2948
   98SAPS  H12R 9802   4.497   4.691   7.851 -0.0454  2.8436  1.6298
   98SAPS  C213 9803   4.428   4.880   7.753 -0.1128 -0.6363 -0.2887
   98SAPS  H13R 9804   4.350   4.911   7.825  1.4546 -1.5660  1.9016
   98SAPS  H13S 9805   4.385   4.906   7.654 -0.8865 -1.0575 -0.0728
   98SAPS  C214 9806   4.558   4.960   7.774  0.3176  0.0692 -0.3435
   98SAPS  H14R 9807   4.600   5.007   7.684 -0.2732 -0.0078 -0.6658
   98SAPS  C215 9808   4.610   4.980   7.898  0.0697 -0.3975 -0.1433
   98SAPS  H15R 9809   4.691   5.052   7.912 -1.9626  2.2861 -1.3443
   98SAPS  C216 9810   4.560   4.921   8.030 -0.4425 -0.0246  0.1867
   98SAPS  H16R 9811   4.453   4.890   8.023 -0.5782  0.0596  1.5882
   98SAPS  H16S 9812   4.568   5.009   8.099  1.7244  1.0057 -1.2756
   98SAPS  C217 9813   4.644   4.798   8.084  0.0182  0.2466  0.6836
   98SAPS  H17R 9814   4.735   4.843   8.129  0.4510 -0.9549  1.0242
   98SAPS  H17S 9815   4.674   4.735   7.998 -1.4025 -0.1399  0.4306
   98SAPS  C218 9816   4.562   4.713   8.190  0.8423  0.2272 -0.2710
   98SAPS  H18R 9817   4.491   4.640   8.146  0.8818 -0.4804  0.7874
   98SAPS  H18S 9818   4.520   4.797   8.250  1.9443  0.1925  0.5882
   98SAPS  C219 9819   4.655   4.625   8.283 -0.7390 -0.0747  0.1317
   98SAPS  H19R 9820   4.593   4.589   8.368  0.1498 -1.0798  0.3807
   98SAPS  H19S 9821   4.739   4.691   8.313  1.5873 -1.4795 -2.8098
   98SAPS  C220 9822   4.717   4.501   8.223  0.4524 -0.0633 -0.2665
   98SAPS  H20R 9823   4.799   4.455   8.282 -1.3845 -1.1958  1.5357
   98SAPS  H20S 9824   4.763   4.526   8.125  1.5759 -0.9122  0.0318
   98SAPS  H20T 9825   4.634   4.429   8.202  0.1393  0.2831 -0.2242
   98SAPS   C33 9826   4.739   4.132   6.801 -0.2813 -0.3380  0.2678
   98SAPS   H3X 9827   4.650   4.198   6.790 -1.5380 -2.3043 -2.6688
   98SAPS   H3Y 9828   4.837   4.175   6.772  0.6112 -0.6142  2.6797
   98SAPS   C34 9829   4.757   4.097   6.946 -0.3630 -0.5145 -0.9011
   98SAPS   H4X 9830   4.818   4.003   6.940 -1.9638 -1.6267 -0.3905
   98SAPS   H4Y 9831   4.658   4.061   6.980  0.5698 -2.0389  0.3766
   98SAPS   C35 9832   4.815   4.207   7.029 -0.1763 -0.3332 -0.4113
   98SAPS   H5X 9833   4.777   4.308   7.002 -1.0577 -1.0319 -1.8773
   98SAPS   H5Y 9834   4.923   4.215   7.005  0.0562 -3.4291 -0.7237
   98SAPS   C36 9835   4.801   4.196   7.184 -0.5555 -0.6228 -0.8606
   98SAPS   H6X 9836   4.694   4.172   7.204 -0.1025 -0.6778  1.8910
   98SAPS   H6Y 9837   4.823   4.292   7.234 -2.2187 -1.4788  1.7327
   98SAPS   C37 9838   4.880   4.077   7.235  0.2057  0.4607  0.4563
   98SAPS   H7X 9839   4.985   4.079   7.198  0.3869 -0.2227  0.9111
   98SAPS   H7Y 9840   4.830   3.981   7.207  0.4451  0.3010  0.5764
   98SAPS   C38 9841   4.869   4.075   7.388  0.4453 -0.3095  0.4528
   98SAPS   H8X 9842   4.759   4.087   7.402  0.4693  1.9154 -0.8727
   98SAPS   H8Y 9843   4.912   4.172   7.420  0.8528 -0.0668 -0.7646
   98SAPS   C39 9844   4.919   3.951   7.464 -0.2766  0.3695  0.3412
   98SAPS   H9X 9845   4.903   3.964   7.573  1.1639 -0.0132  0.6258
   98SAPS   H9Y 9846   5.028   3.942   7.445  0.2853  2.8092  1.9380
   98SAPS  C310 9847   4.864   3.812   7.425  0.3283  0.2742 -0.2826
   98SAPS  H10X 9848   4.902   3.737   7.498  0.5723  1.0218  0.3668
   98SAPS  H10Y 9849   4.902   3.779   7.326  0.7885 -0.0365 -0.0070
   98SAPS  C311 9850   4.709   3.791   7.434 -0.3284  0.4906  0.2191
   98SAPS  H11X 9851   4.668   3.711   7.369 -1.5667 -0.7529  2.4127
   98SAPS  H11Y 9852   4.651   3.884   7.414 -2.6237 -0.4323  2.0858
   98SAPS  C312 9853   4.677   3.752   7.571  0.7561 -0.1048 -0.0398
   98SAPS  H12X 9854   4.718   3.829   7.640 -0.2355  1.8033 -1.4969
   98SAPS  H12Y 9855   4.716   3.650   7.591 -2.4153 -1.7125 -1.3249
   98SAPS  C313 9856   4.521   3.745   7.599 -0.4473  0.8655 -0.6272
   98SAPS  H13X 9857   4.478   3.662   7.539  3.1237  0.1485 -2.4659
   98SAPS  H13Y 9858   4.480   3.841   7.562 -0.7384  0.7140 -0.7028
   98SAPS  C314 9859   4.489   3.721   7.752 -0.0797 -0.2633 -0.1890
   98SAPS  H14X 9860   4.554   3.778   7.822 -0.0862 -1.6043  0.9483
   98SAPS  H14Y 9861   4.523   3.617   7.769  1.7590  0.0439 -1.6000
   98SAPS  C315 9862   4.336   3.744   7.781  0.2083 -0.4303 -0.1910
   98SAPS  H15X 9863   4.285   3.651   7.748  2.5964 -3.0575  2.8384
   98SAPS  H15Y 9864   4.278   3.818   7.722  0.0481 -2.3153 -2.5691
   98SAPS  C316 9865   4.311   3.757   7.935  0.1162 -0.6397  0.6926
   98SAPS  H16X 9866   4.202   3.746   7.954 -0.5123  1.3941 -1.3462
   98SAPS  H16Y 9867   4.338   3.858   7.971 -0.5082 -1.0338  2.3401
   98SAPS  C317 9868   4.379   3.638   8.014  0.2535 -0.0273 -0.9063
   98SAPS  H17X 9869   4.490   3.649   8.007  0.3220 -0.5987 -0.7814
   98SAPS  H17Y 9870   4.348   3.544   7.964  1.3217 -2.9537  3.3476
   98SAPS  C318 9871   4.350   3.612   8.161  1.0120 -0.0205 -0.2268
   98SAPS  H18X 9872   4.242   3.609   8.185  0.9463  1.3476 -0.2748
   98SAPS  H18Y 9873   4.392   3.693   8.223  1.4053 -0.5431  0.1994
   98SAPS  H18Z 9874   4.397   3.516   8.191 -0.0487 -1.2240 -2.1746
   99SAPS     N 9875   0.153   2.269   5.783  0.1395  0.0618 -0.0049
   99SAPS   HN1 9876   0.237   2.325   5.809  1.3802 -0.7110 -2.1531
   99SAPS   HN2 9877   0.188   2.187   5.730 -1.0900 -0.4961  0.0316
   99SAPS   HN3 9878   0.093   2.323   5.718 -1.3365 -0.8204  0.5880
   99SAPS   C12 9879   0.080   2.251   5.912 -0.5581  0.2624  0.2104
   99SAPS  H12A 9880   0.067   2.353   5.945  1.1323  1.0070 -1.2607
   99SAPS   C13 9881  -0.063   2.197   5.909 -0.2327  0.4631  0.2275
   99SAPS  O13A 9882  -0.132   2.180   5.809  0.3842  0.2272 -0.1566
   99SAPS  O13B 9883  -0.111   2.180   6.020  0.4638  0.3074 -0.1010
   99SAPS   C11 9884   0.170   2.167   6.010 -0.3509  0.3457  0.1636
   99SAPS  H11A 9885   0.191   2.073   5.955  0.9045  0.7340 -0.0626
   99SAPS  H11B 9886   0.107   2.153   6.100  0.4326  0.0941  0.6811
   99SAPS     P 9887   0.330   2.304   6.170 -0.2197  0.9358 -0.3214
   99SAPS   O13 9888   0.475   2.276   6.188 -0.1085  0.0180 -0.1726
   99SAPS   O14 9889   0.289   2.446   6.180  0.5977 -0.3282  0.3122
   99SAPS   O12 9890   0.286   2.248   6.026 -0.2842  0.2148 -0.0179
   99SAPS   O11 9891   0.245   2.230   6.275 -0.0038  0.1894  0.1966
   99SAPS    C1 9892   0.274   2.097   6.326 -0.2623 -0.9509  0.4618
   99SAPS    HA 9893   0.230   2.023   6.256  0.2991 -0.0073 -0.9314
   99SAPS    HB 9894   0.381   2.067   6.316 -0.1855 -0.5366  0.0268
   99SAPS    C2 9895   0.223   2.087   6.471 -0.7390 -0.2813  0.0770
   99SAPS    HS 9896   0.237   1.989   6.519 -2.7112 -1.0352 -0.7766
   99SAPS   O21 9897   0.089   2.129   6.477  0.3490  0.7114 -0.2891
   99SAPS   C21 9898  -0.003   2.055   6.414 -0.2430 -0.3821  0.1155
   99SAPS   O22 9899   0.021   1.948   6.358  0.1244  0.2645  0.1036
   99SAPS   C22 9900  -0.143   2.111   6.422  0.7462 -0.6294  0.3107
   99SAPS   H2R 9901  -0.145   2.179   6.333  0.4730 -1.1842 -0.1129
   99SAPS   H2S 9902  -0.217   2.034   6.391  1.3029 -0.1700 -2.4634
   99SAPS    C3 9903   0.315   2.181   6.566  0.0287  0.5706 -0.4201
   99SAPS    HX 9904   0.338   2.279   6.519  0.3622  0.3348 -0.7557
   99SAPS    HY 9905   0.408   2.124   6.588  0.8453  1.0980 -2.3203
   99SAPS   O31 9906   0.253   2.188   6.695  0.6214 -0.3744  0.3562
   99SAPS   C31 9907   0.200   2.301   6.727  0.5575  0.3772 -0.7241
   99SAPS   O32 9908   0.178   2.395   6.656 -0.1704 -0.1576  0.0302
   99SAPS   C32 9909   0.144   2.292   6.866  0.0725 -0.0373  0.0396
   99SAPS   H2X 9910   0.161   2.197   6.922 -1.9088  0.0019  0.8133
   99SAPS   H2Y 9911   0.034   2.311   6.863  0.1805  0.6892  0.3638
   99SAPS   C23 9912  -0.176   2.163   6.559 -0.3225  0.3933  0.7405
   99SAPS   H3R 9913  -0.247   2.247   6.547 -1.6474 -0.4693  2.1329
   99SAPS   H3S 9914  -0.096   2.207   6.622  0.2073  5.1443 -2.7476
   99SAPS   C24 9915  -0.253   2.057   6.653 -0.3394  0.2144 -0.5737
   99SAPS   H4R 9916  -0.354   2.038   6.610 -1.6249  3.4339  0.6690
   99SAPS   H4S 9917  -0.267   2.107   6.752  0.3381 -1.0860  0.2086
   99SAPS   C25 9918  -0.187   1.923   6.661 -0.0636 -0.0037 -0.0238
   99SAPS   H5R 9919  -0.171   1.867   6.568 -0.1015 -0.2269  0.1056
   99SAPS   C26 9920  -0.150   1.861   6.778  0.2283 -0.6637 -0.6558
   99SAPS   H6R 9921  -0.101   1.762   6.773  1.2327 -0.1582 -1.0446
   99SAPS   C27 9922  -0.168   1.911   6.923  0.5129  0.0040 -0.1959
   99SAPS   H7R 9923  -0.268   1.883   6.964  1.2388 -4.2193 -0.8466
   99SAPS   H7S 9924  -0.164   2.022   6.931  4.2187 -0.1180  1.2707
   99SAPS   C28 9925  -0.061   1.857   7.016 -1.0343 -0.4463 -0.0627
   99SAPS   H8R 9926  -0.017   1.757   6.998  1.4809  0.5768  0.0200
   99SAPS   C29 9927  -0.021   1.918   7.131 -0.0874  0.1285 -0.9253
   99SAPS   H9R 9928   0.054   1.876   7.199 -1.8003  1.6838  2.1826
   99SAPS  C210 9929  -0.072   2.051   7.186 -0.4083 -0.2572 -0.3252
   99SAPS  H10R 9930  -0.158   2.093   7.130 -0.5636  1.4446  1.1076
   99SAPS  H10S 9931   0.004   2.132   7.176 -1.1131  0.3043 -1.2774
   99SAPS  C211 9932  -0.120   2.046   7.322  0.3851  0.1877 -0.2300
   99SAPS  H11R 9933  -0.190   1.964   7.347  0.2096  0.1107 -0.9466
   99SAPS  C212 9934  -0.105   2.136   7.420 -0.2966 -0.5205  0.0462
   99SAPS  H12R 9935  -0.155   2.119   7.516  0.0902 -1.6052  0.0645
   99SAPS  C213 9936  -0.020   2.265   7.411 -1.4076  0.1467 -0.2207
   99SAPS  H13R 9937   0.066   2.241   7.345  0.2886  0.2520  1.8507
   99SAPS  H13S 9938   0.025   2.277   7.512 -0.0672 -2.5743 -0.4050
   99SAPS  C214 9939  -0.095   2.380   7.355 -0.3019  0.9607  0.0431
   99SAPS  H14R 9940  -0.125   2.362   7.251 -1.3905  4.2111 -0.3344
   99SAPS  C215 9941  -0.118   2.504   7.414  0.6199  1.2133  0.4496
   99SAPS  H15R 9942  -0.178   2.576   7.356 -1.7173 -0.3439  0.7932
   99SAPS  C216 9943  -0.080   2.541   7.551 -0.8727  0.3804  0.5175
   99SAPS  H16R 9944  -0.001   2.618   7.553 -0.1614 -0.3488  1.8536
   99SAPS  H16S 9945  -0.039   2.449   7.599  1.6967  2.2418  2.1605
   99SAPS  C217 9946  -0.210   2.582   7.629  0.3044  0.2078  0.2969
   99SAPS  H17R 9947  -0.281   2.497   7.630 -2.7802  2.6191  1.3915
   99SAPS  H17S 9948  -0.264   2.662   7.574 -0.6046 -1.7632 -1.8169
   99SAPS  C218 9949  -0.180   2.638   7.765  0.6281  0.1041 -0.2819
   99SAPS  H18R 9950  -0.108   2.722   7.752  2.5901 -1.4757 -0.2198
   99SAPS  H18S 9951  -0.142   2.554   7.828 -0.8282  0.2074  0.7957
   99SAPS  C219 9952  -0.301   2.702   7.829 -0.4429 -0.1932 -0.3834
   99SAPS  H19R 9953  -0.393   2.640   7.823 -0.2433 -0.7889  1.9781
   99SAPS  H19S 9954  -0.341   2.790   7.774 -0.7162  0.6820  1.1590
   99SAPS  C220 9955  -0.272   2.734   7.969  0.1523 -0.3792 -0.4333
   99SAPS  H20R 9956  -0.199   2.818   7.965 -0.3701  0.0986 -0.0214
   99SAPS  H20S 9957  -0.220   2.658   8.032  0.9239 -0.0404 -0.6457
   99SAPS  H20T 9958  -0.364   2.767   8.021  0.6881 -0.3289  0.4946
   99SAPS   C33 9959   0.199   2.410   6.964  0.0805 -0.1171 -0.4782
   99SAPS   H3X 9960   0.106   2.446   7.013  0.2917  0.4466 -0.4889
   99SAPS   H3Y 9961   0.244   2.493   6.906  1.0875 -1.4825 -1.7370
   99SAPS   C34 9962   0.304   2.366   7.067  0.4505 -0.0770 -0.2859
   99SAPS   H4X 9963   0.394   2.331   7.012  0.9292  0.1774  0.3312
   99SAPS   H4Y 9964   0.256   2.281   7.120  0.9506  0.0162  0.3350
   99SAPS   C35 9965   0.314   2.472   7.170 -0.1713 -0.7192 -0.5287
   99SAPS   H5X 9966   0.215   2.494   7.215  0.8108 -1.1857  2.0859
   99SAPS   H5Y 9967   0.334   2.571   7.123 -2.1677  0.2650  0.5693
   99SAPS   C36 9968   0.418   2.446   7.286  0.4729 -0.2547  0.3599
   99SAPS   H6X 9969   0.496   2.525   7.278  1.2054 -0.6343  2.9007
   99SAPS   H6Y 9970   0.476   2.356   7.257 -2.0633 -1.4164 -1.4601
   99SAPS   C37 9971   0.345   2.445   7.422  0.2125  0.6313 -0.7995
   99SAPS   H7X 9972   0.281   2.357   7.443 -0.5122  1.3663  0.2465
   99SAPS   H7Y 9973   0.270   2.527   7.427 -2.7141 -1.9208  0.6328
   99SAPS   C38 9974   0.442   2.467   7.539  0.8950  0.4180 -0.6089
   99SAPS   H8X 9975   0.497   2.563   7.526 -2.7988  2.9391  0.8914
   99SAPS   H8Y 9976   0.508   2.377   7.545 -0.9203 -0.9335 -0.1457
   99SAPS   C39 9977   0.363   2.495   7.670  0.4944  0.3146 -0.1534
   99SAPS   H9X 9978   0.320   2.395   7.694  1.7688 -0.5994 -1.4819
   99SAPS   H9Y 9979   0.282   2.568   7.649  0.0565 -0.2498 -0.4705
   99SAPS  C310 9980   0.451   2.554   7.781 -0.5455  0.4328 -0.6218
   99SAPS  H10X 9981   0.485   2.656   7.754  1.9705  0.4968  2.2780
   99SAPS  H10Y 9982   0.547   2.500   7.793 -0.1709  1.3527  0.8287
   99SAPS  C311 9983   0.395   2.551   7.922 -0.2085  0.5713 -0.1879
   99SAPS  H11X 9984   0.405   2.460   7.985  1.3876  1.5255  1.0332
   99SAPS  H11Y 9985   0.284   2.556   7.923 -0.4171 -2.1562  2.3503
   99SAPS  C312 9986   0.449   2.664   8.016 -0.2870  0.1785  0.1955
   99SAPS  H12X 9987   0.446   2.755   7.952 -0.8103 -1.1345 -1.7492
   99SAPS  H12Y 9988   0.555   2.636   8.036 -0.5814 -2.4747 -1.4773
   99SAPS  C313 9989   0.374   2.680   8.141 -0.5379 -0.6142 -0.5803
   99SAPS  H13X 9990   0.271   2.698   8.103 -0.0872  3.0093 -0.4455
   99SAPS  H13Y 9991   0.417   2.774   8.180 -1.5394 -0.9096  1.3618
   99SAPS  C314 9992   0.396   2.577   8.252  0.5023 -0.0215 -0.1954
   99SAPS  H14X 9993   0.398   2.624   8.352 -0.8086  1.8337 -0.9683
   99SAPS  H14Y 9994   0.494   2.529   8.233  0.6847  1.0190 -2.2236
   99SAPS  C315 9995   0.288   2.470   8.251 -0.5942 -0.2001 -0.2970
   99SAPS  H15X 9996   0.298   2.408   8.159  1.7844  1.7196 -1.4564
   99SAPS  H15Y 9997   0.192   2.526   8.245 -0.0864  0.8761  1.0117
   99SAPS  C316 9998   0.298   2.378   8.370  0.2238 -0.0442  1.1036
   99SAPS  H16X 9999   0.298   2.445   8.458  0.6061 -2.6863  3.2476
   99SAPS  H16Y10000   0.394   2.322   8.372 -0.1788 -0.8478 -0.5612
   99SAPS  C31710001   0.193   2.276   8.383 -0.3241 -0.3180 -0.9177
   99SAPS  H17X10002   0.093   2.323   8.367  0.2257  1.2535 -0.0127
   99SAPS  H17Y10003   0.192   2.241   8.488  0.5468  0.9727 -0.4433
   99SAPS  C31810004   0.199   2.157   8.288 -0.0918 -0.7926  0.4653
   99SAPS  H18X10005   0.294   2.100   8.288 -0.7291 -1.9757 -1.8237
   99SAPS  H18Y10006   0.170   2.183   8.184  0.2403 -1.7224  0.1340
   99SAPS  H18Z10007   0.124   2.077   8.302 -1.3839  0.4065  0.6654
  100SAPS     N10008   0.515   3.686   5.878 -0.3191  0.0833 -0.1370
  100SAPS   HN110009   0.554   3.718   5.787  3.9220 -3.2593  0.1972
  100SAPS   HN210010   0.422   3.733   5.887 -0.0273  0.6602 -0.0796
  100SAPS   HN310011   0.578   3.727   5.950 -3.4275 -0.5531  3.3031
  100SAPS   C1210012   0.513   3.535   5.886  0.1219 -0.5429  0.8435
  100SAPS  H12A10013   0.418   3.497   5.920  0.2417 -3.9401 -2.0009
  100SAPS   C1310014   0.547   3.463   5.752  0.7058  0.1018  0.3106
  100SAPS  O13A10015   0.606   3.529   5.664  0.1316  0.1944  0.0937
  100SAPS  O13B10016   0.544   3.336   5.750  0.4765  0.5347  0.0798
  100SAPS   C1110017   0.620   3.485   5.982  0.3998 -0.5850 -0.5562
  100SAPS  H11A10018   0.726   3.483   5.950  0.5087 -1.5468 -0.1876
  100SAPS  H11B10019   0.598   3.379   6.006  0.6916 -0.0058  2.7508
  100SAPS     P10020   0.515   3.548   6.218  0.0344 -0.0879 -0.0316
  100SAPS   O1310021   0.470   3.676   6.269 -0.6866 -0.1556  0.5662
  100SAPS   O1410022   0.410   3.450   6.172  0.0847 -0.4045 -0.1206
  100SAPS   O1210023   0.621   3.575   6.102  0.0225  0.5006  0.2638
  100SAPS   O1110024   0.606   3.470   6.325  0.0127 -0.0690 -0.3621
  100SAPS    C110025   0.748   3.484   6.325 -1.0692 -0.1553 -0.7452
  100SAPS    HA10026   0.803   3.423   6.249 -1.8348 -1.7634 -0.0550
  100SAPS    HB10027   0.766   3.593   6.318  1.7688 -0.5453 -0.6472
  100SAPS    C210028   0.801   3.433   6.457 -0.3952 -0.0628 -0.6425
  100SAPS    HS10029   0.903   3.478   6.463  0.1176 -1.3621  1.8681
  100SAPS   O2110030   0.801   3.290   6.454 -0.1988 -0.3319 -0.3791
  100SAPS   C2110031   0.904   3.224   6.503  0.0507  0.3810  0.3054
  100SAPS   O2210032   0.997   3.270   6.563 -0.8130  0.3556  0.3601
  100SAPS   C2210033   0.882   3.068   6.487 -0.6542  0.2570 -0.4013
  100SAPS   H2R10034   0.906   3.054   6.379  0.2062 -0.3619 -0.1348
  100SAPS   H2S10035   0.966   3.026   6.545  0.2216  2.5062  0.0686
  100SAPS    C310036   0.726   3.475   6.588  0.3107  0.2607 -0.0714
  100SAPS    HX10037   0.622   3.442   6.566 -0.0106  2.0129 -1.3944
  100SAPS    HY10038   0.718   3.585   6.599 -0.4480  0.1086  1.1266
  100SAPS   O3110039   0.790   3.420   6.710  0.9451 -0.1217  0.5319
  100SAPS   C3110040   0.707   3.353   6.787 -0.3447  1.1708 -0.5180
  100SAPS   O3210041   0.586   3.353   6.779  0.1253  0.7525 -0.5255
  100SAPS   C3210042   0.791   3.280   6.895  0.2920  0.1531 -0.3983
  100SAPS   H2X10043   0.873   3.353   6.911  0.6809 -0.3603 -0.0155
  100SAPS   H2Y10044   0.837   3.188   6.854  1.0025  0.1870  0.3015
  100SAPS   C2310045   0.744   3.018   6.518  0.4804 -0.4687  0.2127
  100SAPS   H3R10046   0.676   3.060   6.440  1.1878  0.7536  0.2252
  100SAPS   H3S10047   0.709   3.054   6.617  0.6939 -1.6148  0.7143
  100SAPS   C2410048   0.713   2.866   6.510 -0.3366 -0.1591  0.3647
  100SAPS   H4R10049   0.749   2.825   6.413 -0.1673  0.6867  0.0597
  100SAPS   H4S10050   0.604   2.851   6.526 -0.1395 -2.2773 -0.0126
  100SAPS   C2510051   0.794   2.809   6.622  0.0010  0.0162 -0.3797
  100SAPS   H5R10052   0.901   2.797   6.599  0.1945  0.1024  0.4415
  100SAPS   C2610053   0.758   2.790   6.748 -0.3831  0.2458  0.2830
  100SAPS   H6R10054   0.837   2.752   6.814 -1.2444 -1.0724  0.5876
  100SAPS   C2710055   0.624   2.801   6.821  0.3452 -0.3263 -0.6136
  100SAPS   H7R10056   0.541   2.802   6.747 -0.9965 -1.9474  0.8073
  100SAPS   H7S10057   0.638   2.897   6.875  3.5663 -0.8376 -0.2903
  100SAPS   C2810058   0.587   2.689   6.911  0.3836  0.6051 -0.1412
  100SAPS   H8R10059   0.568   2.590   6.867  0.5106 -0.4065  1.9424
  100SAPS   C2910060   0.585   2.692   7.043  0.0442  0.3623  0.3975
  100SAPS   H9R10061   0.552   2.598   7.090 -0.6333  0.3715 -0.0459
  100SAPS  C21010062   0.616   2.804   7.137 -0.2344 -0.1002 -0.6542
  100SAPS  H10R10063   0.556   2.893   7.109 -0.3251 -0.7855 -2.7896
  100SAPS  H10S10064   0.722   2.829   7.118  0.2934 -1.8360 -0.2106
  100SAPS  C21110065   0.598   2.777   7.286 -0.2421 -0.6161  0.2051
  100SAPS  H11R10066   0.662   2.697   7.326  1.0323 -0.7166 -1.9053
  100SAPS  C21210067   0.510   2.835   7.371  1.0168 -0.3037 -0.0265
  100SAPS  H12R10068   0.514   2.791   7.472  0.2007 -1.7872 -0.6055
  100SAPS  C21310069   0.413   2.949   7.365  0.7212 -0.0299  0.9895
  100SAPS  H13R10070   0.384   2.969   7.259 -0.8254  0.5959  1.4944
  100SAPS  H13S10071   0.459   3.044   7.398  0.9455  0.3466 -0.3414
  100SAPS  C21410072   0.283   2.912   7.421 -0.1036 -0.0163  0.1015
  100SAPS  H14R10073   0.222   2.846   7.359 -0.1449 -1.1439  1.2979
  100SAPS  C21510074   0.235   2.941   7.546  0.1754  0.3368 -0.6303
  100SAPS  H15R10075   0.129   2.914   7.560 -0.4211  0.0107 -4.6462
  100SAPS  C21610076   0.316   3.008   7.653 -0.1042  0.1604  0.0010
  100SAPS  H16R10077   0.270   3.107   7.674 -0.9976  0.0193 -1.1783
  100SAPS  H16S10078   0.423   3.021   7.627  0.0571  1.0148  1.0138
  100SAPS  C21710079   0.310   2.928   7.783  0.1663 -0.2236 -0.0425
  100SAPS  H17R10080   0.358   2.993   7.860 -1.0075  0.1614  0.3948
  100SAPS  H17S10081   0.370   2.836   7.769  2.4709  1.0636  0.7932
  100SAPS  C21810082   0.169   2.893   7.834 -0.6899 -0.0584 -0.3047
  100SAPS  H18R10083   0.174   2.832   7.927 -0.8131  1.5049  0.7586
  100SAPS  H18S10084   0.122   2.837   7.750 -2.2432 -0.2885  0.6870
  100SAPS  C21910085   0.072   3.017   7.849  0.4598  0.2372 -0.9659
  100SAPS  H19R10086  -0.027   2.975   7.874 -0.3744  1.3840 -2.1800
  100SAPS  H19S10087   0.060   3.063   7.748  2.1769 -0.5885 -1.6011
  100SAPS  C22010088   0.107   3.111   7.956  0.2911 -0.6233 -1.0378
  100SAPS  H20R10089   0.116   3.053   8.051 -0.1819  0.4422 -0.3132
  100SAPS  H20S10090   0.036   3.196   7.972  0.9722 -0.4833  1.7780
  100SAPS  H20T10091   0.205   3.160   7.938 -0.0396  0.4758  0.0296
  100SAPS   C3310092   0.720   3.229   7.026  0.0162 -0.1727  0.4780
  100SAPS   H3X10093   0.795   3.176   7.090 -0.3087 -0.3465  0.7164
  100SAPS   H3Y10094   0.641   3.160   6.989  0.8700 -2.5724  2.7594
  100SAPS   C3410095   0.661   3.346   7.111  0.0388  0.0711  0.3297
  100SAPS   H4X10096   0.581   3.393   7.050  1.4847 -2.3991 -3.9389
  100SAPS   H4Y10097   0.741   3.422   7.120 -1.0986  1.5765 -1.4437
  100SAPS   C3510098   0.612   3.308   7.251  0.7124 -0.1978  0.2843
  100SAPS   H5X10099   0.674   3.225   7.291  1.2160  0.2597  0.4630
  100SAPS   H5Y10100   0.506   3.274   7.248  1.1705 -1.9940  1.9773
  100SAPS   C3610101   0.630   3.417   7.365  0.3609  0.6329 -0.3888
  100SAPS   H6X10102   0.570   3.507   7.338 -0.9425  0.5410  1.8552
  100SAPS   H6Y10103   0.736   3.443   7.383  1.5282 -2.5420 -2.0095
  100SAPS   C3710104   0.565   3.358   7.493  0.6931  0.3834  0.4324
  100SAPS   H7X10105   0.621   3.263   7.510 -0.7165 -1.1538 -2.7691
  100SAPS   H7Y10106   0.463   3.323   7.468  0.6407 -0.8856  2.2276
  100SAPS   C3810107   0.556   3.442   7.618  0.1261  0.0556 -0.1428
  100SAPS   H8X10108   0.456   3.490   7.629  0.4298  0.8431 -0.7069
  100SAPS   H8Y10109   0.626   3.529   7.618  1.7696 -1.1061 -3.4361
  100SAPS   C3910110   0.574   3.345   7.731 -0.1922  0.2198 -1.0563
  100SAPS   H9X10111   0.677   3.302   7.731 -0.9225 -1.6691 -2.5031
  100SAPS   H9Y10112   0.496   3.266   7.728 -0.9088  0.9205 -1.1007
  100SAPS  C31010113   0.549   3.412   7.868 -0.4299 -0.7427 -0.4467
  100SAPS  H10X10114   0.472   3.491   7.855 -0.1769 -0.1346  1.4346
  100SAPS  H10Y10115   0.641   3.467   7.897  0.3328 -1.2859 -1.7506
  100SAPS  C31110116   0.519   3.321   7.975  0.3625  0.9106 -0.0661
  100SAPS  H11X10117   0.594   3.241   7.987 -0.2102  0.3471 -0.1888
  100SAPS  H11Y10118   0.423   3.271   7.951  0.1980  1.2082 -0.0362
  100SAPS  C31210119   0.485   3.388   8.111  0.6110 -0.7641  0.0475
  100SAPS  H12X10120   0.400   3.458   8.096  0.3099 -1.3724 -1.3036
  100SAPS  H12Y10121   0.572   3.447   8.147 -0.8564  1.9083 -0.5254
  100SAPS  C31310122   0.439   3.283   8.209 -0.2512 -1.1276 -0.2298
  100SAPS  H13X10123   0.526   3.249   8.270 -1.2532 -4.2038 -0.3649
  100SAPS  H13Y10124   0.392   3.202   8.149 -0.8352 -1.5902  0.8227
  100SAPS  C31410125   0.335   3.328   8.318 -0.5555 -0.5348  1.0300
  100SAPS  H14X10126   0.248   3.354   8.254  0.3479 -0.9218 -0.3999
  100SAPS  H14Y10127   0.370   3.413   8.381  0.8899 -0.9543  0.8148
  100SAPS  C31510128   0.285   3.215   8.414  0.7769  0.2274  0.5777
  100SAPS  H15X10129   0.205   3.246   8.485 -1.1411  1.5560 -1.9851
  100SAPS  H15Y10130   0.371   3.188   8.479  0.7969 -2.6682 -0.4965
  100SAPS  C31610131   0.226   3.098   8.338 -0.2727  0.2643  1.4881
  100SAPS  H16X10132   0.296   3.059   8.260 -0.4970  3.5451 -0.5539
  100SAPS  H16Y10133   0.147   3.141   8.273  0.2457 -0.3726  0.4050
  100SAPS  C31710134   0.173   2.987   8.429 -0.1071 -0.2166  0.2007
  100SAPS  H17X10135   0.088   3.026   8.489 -0.5753  0.2624 -0.7462
  100SAPS  H17Y10136   0.262   2.964   8.492 -0.4422  0.7780  1.0710
  100SAPS  C31810137   0.132   2.852   8.366 -0.8366 -0.1508 -0.4855
  100SAPS  H18X10138   0.140   2.775   8.445  4.1911  0.6257  0.0870
  100SAPS  H18Y10139   0.198   2.828   8.279 -0.2514  1.1969 -0.4317
  100SAPS  H18Z10140   0.026   2.863   8.334 -0.5513 -2.0905 -2.3223
  101OSM      N10141   1.848   4.337  11.062 -0.5572 -0.2759  0.0634
  101OSM    C1510142   1.776   4.416  11.167  0.2141 -0.1021 -0.0671
  101OSM   H15A10143   1.834   4.493  11.217 -1.5592 -0.6242  2.9929
  101OSM   H15B10144   1.730   4.357  11.245 -0.1731  1.8626  1.2630
  101OSM   H15C10145   1.691   4.460  11.117  0.9029  0.3882 -0.8316
  101OSM    C1410146   1.933   4.414  10.964 -0.9877  0.2843 -0.7205
  101OSM   H14A10147   1.985   4.486  11.025  2.1812 -1.8603 -0.6514
  101OSM   H14B10148   1.874   4.456  10.884 -0.2376  3.0644  0.0740
  101OSM   H14C10149   2.008   4.351  10.919 -0.7749  0.2920 -0.3796
  101OSM    C1310150   1.928   4.245  11.146  0.0484 -0.1294  0.1192
  101OSM   H13A10151   1.974   4.170  11.082 -3.2792 -1.7236 -0.6589
  101OSM   H13B10152   1.867   4.185  11.212  0.4511 -1.1874 -0.4455
  101OSM   H13C10153   2.002   4.304  11.198 -0.1357 -0.1063  0.3568
  101OSM    C1210154   1.747   4.245  10.986  0.1515  0.8185 -0.2769
  101OSM   H12A10155   1.666   4.304  10.945 -3.5161 -1.1593  3.4123
  101OSM   H12B10156   1.686   4.208  11.067  0.2335  1.3049  0.0108
  101OSM    C1110157   1.782   4.134  10.888  0.2099 -0.9769  0.5205
  101OSM   H11A10158   1.864   4.173  10.824 -0.3056  1.4858  1.2136
  101OSM   H11B10159   1.687   4.108  10.836  0.6470  0.6495 -1.2463
  101OSM      P10160   1.970   3.950  10.930 -0.3334 -0.0456  0.0679
  101OSM    O1310161   2.080   4.032  10.986 -0.1115  0.3101 -0.8240
  101OSM    O1410162   1.961   3.805  10.965 -0.0903 -0.6667  0.3863
  101OSM    O1110163   1.987   3.941  10.775  0.3314 -0.0725 -0.5448
  101OSM    O1210164   1.831   4.024  10.966  0.1650 -0.2676  0.0306
  101OSM    C1S10165   1.885   3.882  10.688 -0.6433 -0.2324  0.0133
  101OSM    H1S10166   1.794   3.942  10.704  0.3881  2.0838 -2.1011
  101OSM    H1T10167   1.854   3.778  10.713  0.1105 -0.2091  1.1507
  101OSM     NF10168   1.811   3.878  10.463  0.7526 -0.5042 -0.3434
  101OSM    HNF10169   1.781   3.789  10.431  0.2256 -0.9159  1.2090
  101OSM    C2S10170   1.930   3.877  10.541 -0.2009 -0.4076 -0.5430
  101OSM    H2S10171   1.981   3.974  10.521 -0.6537  0.5403  2.4434
  101OSM    C3S10172   2.036   3.768  10.523 -0.2532  0.5620  0.1968
  101OSM    H3S10173   2.000   3.672  10.565  0.2328 -0.0592 -0.7700
  101OSM     O310174   2.150   3.786  10.608  0.6616  0.2832 -0.0754
  101OSM    HO310175   2.132   3.864  10.662  0.8552  1.3879 -1.5551
  101OSM    C4S10176   2.082   3.745  10.379  0.4722 -0.5882 -0.0064
  101OSM    H4S10177   2.174   3.797  10.348  0.4781 -0.0301  0.8942
  101OSM    C5S10178   2.026   3.657  10.290 -0.4930 -0.3015  0.5298
  101OSM    H5S10179   1.937   3.601  10.320 -1.8772  1.9567  0.8441
  101OSM    C6S10180   2.073   3.652  10.143 -0.3607 -0.7457 -0.1249
  101OSM    H6S10181   2.068   3.549  10.104  0.4552 -0.2707 -1.5441
  101OSM    H6T10182   2.177   3.690  10.139 -0.6858  0.6745  2.3042
  101OSM    C7S10183   1.985   3.732  10.037  0.2457  0.3659  0.2556
  101OSM    H7S10184   1.973   3.835  10.076 -2.1006 -0.5005  2.0654
  101OSM    H7T10185   1.883   3.689  10.034  0.5787 -0.6918  2.1903
  101OSM    C8S10186   2.054   3.726   9.903 -0.0121  0.4122  0.1404
  101OSM    H8S10187   2.109   3.630   9.889  1.0816  0.6704  2.2727
  101OSM    H8T10188   2.126   3.810   9.904  0.4515  0.0139  1.1643
  101OSM    C9S10189   1.974   3.729   9.775 -0.1559  0.3388  0.4716
  101OSM    H9S10190   1.900   3.813   9.781  0.7796  1.4962 -2.4466
  101OSM    H9T10191   1.912   3.639   9.758  2.3622 -1.3062 -0.4669
  101OSM   C10S10192   2.066   3.745   9.652 -0.8564  0.0071 -0.1740
  101OSM   H10S10193   2.145   3.667   9.653 -0.7817  0.0811  0.4228
  101OSM   H10T10194   2.124   3.839   9.661  0.6833 -0.8805 -0.4884
  101OSM   C11S10195   2.000   3.742   9.510 -0.0333  0.2721  0.1889
  101OSM   H11S10196   1.918   3.816   9.522 -1.7594 -1.4256 -0.5363
  101OSM   H11T10197   1.960   3.639   9.494  2.3395 -0.8966  1.2718
  101OSM   C12S10198   2.083   3.795   9.389 -0.0736 -1.0322  0.3671
  101OSM   H12S10199   2.166   3.724   9.366  2.8708  2.2973 -0.0337
  101OSM   H12T10200   2.131   3.889   9.424  2.6316 -1.7012 -1.2406
  101OSM   C13S10201   2.003   3.825   9.264  0.4622 -0.1930  0.3941
  101OSM   H13S10202   1.920   3.893   9.293  0.0738 -1.2331  1.8230
  101OSM   H13T10203   1.951   3.735   9.227  1.2305 -0.5238  0.0807
  101OSM   C14S10204   2.088   3.897   9.156 -0.3838 -0.7392 -0.3309
  101OSM   H14S10205   2.196   3.881   9.176 -0.6668 -2.5502 -0.0890
  101OSM   H14T10206   2.065   4.004   9.175  1.8680 -0.4595  1.1883
  101OSM   C15S10207   2.065   3.858   9.010  0.6295 -0.1581 -0.5826
  101OSM   H15S10208   1.958   3.880   8.988 -0.4891 -3.7158  0.6007
  101OSM   H15T10209   2.081   3.749   9.002 -0.4634 -0.2921 -1.0720
  101OSM   C16S10210   2.163   3.932   8.911  0.3859  0.0328  0.1545
  101OSM   H16S10211   2.145   3.885   8.812 -1.7789  0.6559  0.2023
  101OSM   H16T10212   2.268   3.901   8.927  1.6189  3.4834 -0.2802
  101OSM   C17S10213   2.146   4.086   8.904  0.1872  0.0277  0.1888
  101OSM   H17S10214   2.174   4.137   8.999 -0.1014  0.3446  0.1058
  101OSM   H17T10215   2.040   4.117   8.894  0.8336  1.7368 -2.0740
  101OSM   C18S10216   2.234   4.144   8.786  0.0308  0.2128 -1.0757
  101OSM   H18S10217   2.183   4.106   8.695 -0.9743  2.1530 -1.3615
  101OSM   H18T10218   2.336   4.099   8.792 -0.0996  0.0853  0.9404
  101OSM   H18U10219   2.224   4.254   8.790 -1.8472  0.0358  0.2185
  101OSM    C1F10220   1.718   3.973  10.458  0.1685  0.1172  0.1037
  101OSM     OF10221   1.743   4.088  10.502  0.5782 -0.1803  0.4599
  101OSM    C2F10222   1.584   3.938  10.411  0.0351  0.6524  0.7798
  101OSM    H2F10223   1.517   3.928  10.500 -0.9553  4.2540  0.6211
  101OSM    H2G10224   1.595   3.840  10.361 -1.1779 -0.0661  1.8698
  101OSM    C3F10225   1.523   4.047  10.318 -0.1581  0.4452 -0.6847
  101OSM    H3F10226   1.514   4.137  10.382  1.0900 -1.4503  2.4119
  101OSM    H3G10227   1.416   4.026  10.298 -0.1176 -0.1675 -0.3056
  101OSM    C4F10228   1.596   4.073  10.181 -0.5554 -0.0976 -0.2813
  101OSM    H4F10229   1.682   4.142  10.194 -1.3357  1.2416 -1.8567
  101OSM    H4G10230   1.523   4.140  10.130  0.7676  2.3781  0.9100
  101OSM    C5F10231   1.621   3.950  10.096 -0.5586 -0.4193  0.0937
  101OSM    H5F10232   1.523   3.901  10.079 -0.3722 -0.5892 -0.5006
  101OSM    H5G10233   1.692   3.891  10.158  0.4096  1.5229  0.9196
  101OSM    C6F10234   1.696   3.981   9.970 -0.1232  0.3160  0.0242
  101OSM    H6F10235   1.733   3.883   9.932 -0.0211  0.4269 -0.1641
  101OSM    H6G10236   1.787   4.032  10.008 -1.0340  0.7531  1.7364
  101OSM    C7F10237   1.625   4.062   9.869  0.2130 -0.0398 -0.3984
  101OSM    H7F10238   1.599   4.158   9.920 -0.3014 -0.8040  0.8221
  101OSM    H7G10239   1.533   4.006   9.843 -0.7917  1.1053  0.5861
  101OSM    C8F10240   1.707   4.114   9.752 -0.0043  0.4044  0.2483
  101OSM    H8F10241   1.754   4.029   9.697  1.2433  1.7601 -0.8941
  101OSM    H8G10242   1.790   4.180   9.786 -0.1646  0.3759  0.6948
  101OSM    C9F10243   1.612   4.186   9.660  0.0211 -0.2398  0.4454
  101OSM    H9F10244   1.577   4.284   9.697 -0.7895 -0.1010 -0.6312
  101OSM   C10F10245   1.562   4.148   9.548  0.6178  0.7235  0.5042
  101OSM   H10F10246   1.500   4.211   9.482 -0.3066 -0.2939  0.3683
  101OSM   C11F10247   1.579   4.011   9.492  0.1062  0.1352  0.9248
  101OSM   H11F10248   1.482   3.979   9.448  0.5173  0.1009  0.0265
  101OSM   H11G10249   1.607   3.944   9.577  2.1438 -0.6543 -0.2871
  101OSM   C12F10250   1.700   4.004   9.386  0.6676  0.7278  0.3096
  101OSM   H12F10251   1.736   3.899   9.381 -1.4884 -0.0294 -0.2671
  101OSM   H12G10252   1.778   4.073   9.425  2.0037 -0.1451 -0.6979
  101OSM   C13F10253   1.651   4.035   9.236 -0.0787 -0.4444 -0.7728
  101OSM   H13F10254   1.603   4.135   9.236 -0.8452 -0.7481  1.5322
  101OSM   H13G10255   1.568   3.966   9.209 -3.6929  3.3919 -0.5576
  101OSM   C14F10256   1.757   4.044   9.131  0.2972 -0.1391  0.5719
  101OSM   H14F10257   1.800   3.942   9.125  0.9013  0.0715  1.2405
  101OSM   H14G10258   1.844   4.112   9.144  0.7383 -0.6349  0.2438
  101OSM   C15F10259   1.701   4.089   8.994  0.1520 -0.0129 -0.0012
  101OSM   H15F10260   1.787   4.092   8.923  0.8875  2.9278  0.8978
  101OSM   H15G10261   1.656   4.190   9.001 -1.8540 -0.2907 -4.8965
  101OSM   C16F10262   1.595   3.996   8.936  0.0224 -0.1274  0.3823
  101OSM   H16F10263   1.502   4.003   8.998  1.3368  1.0585  2.3241
  101OSM   H16G10264   1.630   3.892   8.920  1.7251  0.6663 -1.4560
  101OSM   C17F10265   1.573   4.047   8.795  0.7865  1.1590  0.5858
  101OSM   H17F10266   1.532   3.959   8.740  1.4206  1.7857 -0.9343
  101OSM   H17G10267   1.665   4.076   8.739  0.1398 -0.5274 -1.4741
  101OSM   C18F10268   1.462   4.151   8.789 -0.1987 -0.6691  0.1782
  101OSM   H18F10269   1.472   4.216   8.879  2.2737 -1.3691  0.4919
  101OSM   H18G10270   1.364   4.100   8.786 -0.4576 -0.1437 -1.1168
  101OSM   H18H10271   1.477   4.212   8.697  3.7652 -0.2330  0.9337
  102OSM      N10272   1.504   3.779  11.035 -0.5770  0.2259  0.0020
  102OSM    C1510273   1.599   3.882  11.044 -0.6100  0.9853 -0.4373
  102OSM   H15A10274   1.694   3.850  11.004 -0.2879  0.9000  0.3935
  102OSM   H15B10275   1.616   3.910  11.146  1.5715 -0.4738 -0.3271
  102OSM   H15C10276   1.566   3.971  10.993  0.2088  0.4169 -2.0493
  102OSM    C1410277   1.561   3.673  11.119 -0.3120 -1.1806  0.7618
  102OSM   H14A10278   1.634   3.619  11.061 -0.7503 -3.0126  1.8639
  102OSM   H14B10279   1.485   3.600  11.140 -3.2536  1.3089 -0.3785
  102OSM   H14C10280   1.604   3.698  11.215 -0.8045 -2.7296  1.4108
  102OSM    C1310281   1.373   3.835  11.098 -0.7561  0.2793 -0.7295
  102OSM   H13A10282   1.389   3.881  11.195 -0.3805  0.8791 -1.0695
  102OSM   H13B10283   1.306   3.751  11.106 -0.8290  0.2813 -1.3021
  102OSM   H13C10284   1.325   3.913  11.041  0.1953 -0.0635 -2.0313
  102OSM    C1210285   1.476   3.727  10.898  0.3591  0.5373 -0.4562
  102OSM   H12A10286   1.471   3.813  10.833  2.7195 -0.1887 -1.7108
  102OSM   H12B10287   1.378   3.681  10.898  0.6805 -0.3111  2.3181
  102OSM    C1110288   1.572   3.640  10.820 -0.1057 -0.0242 -0.4396
  102OSM   H11A10289   1.665   3.699  10.837 -1.7233  2.6753 -0.4473
  102OSM   H11B10290   1.544   3.641  10.712  0.6704 -0.9260 -0.6683
  102OSM      P10291   1.700   3.427  10.888  0.4778  0.5898  0.1166
  102OSM    O1310292   1.782   3.492  10.992  0.7282 -0.2544 -0.0172
  102OSM    O1410293   1.672   3.288  10.918 -0.4415 -0.0514  0.0587
  102OSM    O1110294   1.776   3.444  10.752 -0.0538 -0.0169 -0.0989
  102OSM    O1210295   1.566   3.508  10.861  0.5980  0.2834 -0.0174
  102OSM    C1S10296   1.723   3.391  10.627 -0.1500  0.1013 -0.6654
  102OSM    H1S10297   1.637   3.455  10.599 -1.2236 -0.1555  1.7435
  102OSM    H1T10298   1.693   3.285  10.641  0.8067 -0.0934  0.0590
  102OSM     NF10299   1.776   3.396  10.386  0.3334 -0.3643 -0.4190
  102OSM    HNF10300   1.776   3.309  10.338 -1.5173 -0.4454 -0.3481
  102OSM    C2S10301   1.835   3.408  10.520 -0.6393 -0.3847 -0.2729
  102OSM    H2S10302   1.876   3.511  10.533  0.1124 -0.2595 -3.0299
  102OSM    C3S10303   1.938   3.300  10.554  0.2102  0.1918  0.6056
  102OSM    H3S10304   1.883   3.203  10.551 -0.0058  0.3448 -0.4530
  102OSM     O310305   1.984   3.315  10.682  0.2367  0.2745 -0.3262
  102OSM    HO310306   1.907   3.359  10.718 -1.4726 -1.2104 -1.9806
  102OSM    C4S10307   2.046   3.293  10.451  0.3778  0.0587  0.1436
  102OSM    H4S10308   2.018   3.232  10.364 -2.0103  1.5064 -0.1998
  102OSM    C5S10309   2.163   3.360  10.447 -0.0760 -0.2437 -0.4798
  102OSM    H5S10310   2.185   3.434  10.524 -0.0200 -0.3830 -0.3616
  102OSM    C6S10311   2.260   3.353  10.333 -0.2115 -0.2507  0.0726
  102OSM    H6S10312   2.302   3.455  10.340 -1.3848  0.3740 -1.3170
  102OSM    H6T10313   2.209   3.338  10.235  1.9971  0.4151 -1.2419
  102OSM    C7S10314   2.369   3.254  10.354 -0.1916  0.0186  0.4913
  102OSM    H7S10315   2.335   3.149  10.368  1.4939 -0.4592  1.2747
  102OSM    H7T10316   2.433   3.273  10.443 -0.3526 -1.9665  1.0833
  102OSM    C8S10317   2.474   3.254  10.245 -0.6514 -0.3647 -0.2355
  102OSM    H8S10318   2.563   3.194  10.274  0.4308  2.3013  2.4037
  102OSM    H8T10319   2.502   3.361  10.230 -0.3717 -0.1707  1.5035
  102OSM    C9S10320   2.427   3.197  10.110 -0.1429  0.5145  0.2722
  102OSM    H9S10321   2.334   3.252  10.084  1.2292  3.3080  0.9251
  102OSM    H9T10322   2.415   3.088  10.125 -0.1292  0.3012 -1.1940
  102OSM   C10S10323   2.529   3.219   9.995  0.1755 -0.1408 -0.2646
  102OSM   H10S10324   2.629   3.187  10.031  0.0270 -0.7950 -0.4341
  102OSM   H10T10325   2.528   3.327   9.966 -1.2762 -0.8091 -3.0006
  102OSM   C11S10326   2.500   3.142   9.866  0.4505 -0.4671  0.1261
  102OSM   H11S10327   2.393   3.144   9.837  0.2508  0.9047  0.8920
  102OSM   H11T10328   2.545   3.041   9.877 -0.0671 -0.5418  1.6522
  102OSM   C12S10329   2.568   3.212   9.744 -0.5929 -0.1015  0.8054
  102OSM   H12S10330   2.678   3.222   9.758 -0.3170 -1.2585 -0.3234
  102OSM   H12T10331   2.532   3.316   9.731 -0.5986 -0.4513 -3.5290
  102OSM   C13S10332   2.525   3.140   9.606 -0.1857  0.6373 -0.3164
  102OSM   H13S10333   2.414   3.131   9.617 -0.1350  0.0660 -0.2353
  102OSM   H13T10334   2.569   3.038   9.610  0.4506  0.9571  1.1679
  102OSM   C14S10335   2.568   3.217   9.485  0.8825  0.0235  0.4631
  102OSM   H14S10336   2.678   3.224   9.474  0.8173  0.0897 -0.1900
  102OSM   H14T10337   2.531   3.320   9.503  0.3908 -0.3150  1.5064
  102OSM   C15S10338   2.508   3.156   9.355 -0.4229 -0.5332  0.1623
  102OSM   H15S10339   2.558   3.218   9.278  0.9940 -2.2319 -0.3547
  102OSM   H15T10340   2.397   3.161   9.355 -0.3940  0.3913 -0.9718
  102OSM   C16S10341   2.550   3.014   9.343 -0.1351 -0.2737 -0.1494
  102OSM   H16S10342   2.498   2.947   9.415  1.5107 -0.8638  0.5626
  102OSM   H16T10343   2.660   3.004   9.357 -0.0611  1.0071  0.2982
  102OSM   C17S10344   2.524   2.953   9.203  0.5302 -0.0874 -0.1970
  102OSM   H17S10345   2.554   3.032   9.130  0.4830  1.1142  1.0433
  102OSM   H17T10346   2.414   2.941   9.196  0.5269 -0.9316  1.0541
  102OSM   C18S10347   2.588   2.821   9.198 -0.1921 -0.1322  0.3831
  102OSM   H18S10348   2.566   2.757   9.286 -0.5357 -3.5472 -1.9621
  102OSM   H18T10349   2.698   2.834   9.184 -0.3404  1.9249  0.8584
  102OSM   H18U10350   2.539   2.768   9.114 -2.9793  0.4151  1.5684
  102OSM    C1F10351   1.687   3.494  10.339 -0.0613 -0.5062  0.4810
  102OSM     OF10352   1.684   3.607  10.384  0.0844  0.3029 -0.0791
  102OSM    C2F10353   1.588   3.457  10.235 -0.1721  0.1707  0.2553
  102OSM    H2F10354   1.487   3.469  10.281  0.6871  3.8191  1.5646
  102OSM    H2G10355   1.608   3.349  10.219  1.9196  0.3251  1.4969
  102OSM    C3F10356   1.587   3.555  10.107  0.2219 -0.2300  0.3595
  102OSM    H3F10357   1.691   3.556  10.068  0.3008  1.2234  0.5430
  102OSM    H3G10358   1.571   3.662  10.133 -3.0557 -0.4516 -0.2636
  102OSM    C4F10359   1.478   3.523  10.008  0.6761  0.4420 -0.2370
  102OSM    H4F10360   1.383   3.520  10.065  1.1727  0.0618  0.5815
  102OSM    H4G10361   1.489   3.425   9.957  0.2997  1.3000 -2.0512
  102OSM    C5F10362   1.460   3.636   9.896  0.0271  0.2241 -1.0104
  102OSM    H5F10363   1.555   3.685   9.866  0.2333  1.6342  1.6446
  102OSM    H5G10364   1.396   3.716   9.938 -2.0119 -1.0164 -1.6159
  102OSM    C6F10365   1.395   3.576   9.774  0.0839  0.3029  0.1349
  102OSM    H6F10366   1.293   3.535   9.789 -0.4566  0.9342 -1.5632
  102OSM    H6G10367   1.466   3.495   9.747  1.4513  1.4656  0.0882
  102OSM    C7F10368   1.406   3.676   9.662 -0.4268 -0.9079  0.2049
  102OSM    H7F10369   1.511   3.697   9.635 -0.9860  0.5173 -1.0294
  102OSM    H7G10370   1.379   3.776   9.702  0.8693 -0.2038 -0.6081
  102OSM    C8F10371   1.327   3.665   9.532 -0.1338 -0.2825  0.0706
  102OSM    H8F10372   1.377   3.748   9.476  0.1055 -0.1191  0.5262
  102OSM    H8G10373   1.224   3.700   9.556 -0.2763 -0.4132 -0.3305
  102OSM    C9F10374   1.333   3.530   9.462  0.2556 -0.3955 -0.8650
  102OSM    H9F10375   1.319   3.439   9.523 -1.7041 -0.2918 -1.0790
  102OSM   C10F10376   1.335   3.515   9.331  0.5981 -0.5901 -0.9061
  102OSM   H10F10377   1.338   3.407   9.310 -2.1879 -0.8761 -0.2242
  102OSM   C11F10378   1.341   3.626   9.223 -0.3087  0.4419 -0.3623
  102OSM   H11F10379   1.335   3.729   9.264 -1.8194 -0.6628  2.4673
  102OSM   H11G10380   1.253   3.628   9.155 -0.5400 -1.0805 -0.1399
  102OSM   C12F10381   1.463   3.619   9.134 -0.4246  0.3870 -0.2092
  102OSM   H12F10382   1.556   3.609   9.195 -0.0394 -2.7172 -1.1001
  102OSM   H12G10383   1.486   3.714   9.081  1.3535  0.1671  0.1068
  102OSM   C13F10384   1.448   3.501   9.030  0.1623 -0.6653 -0.5807
  102OSM   H13F10385   1.354   3.536   8.982  0.3492  0.0919 -0.4093
  102OSM   H13G10386   1.442   3.398   9.073 -1.9149  0.2408  1.5663
  102OSM   C14F10387   1.559   3.510   8.919 -0.5901 -0.4018 -0.2691
  102OSM   H14F10388   1.543   3.609   8.871  0.8031  0.5329  1.0930
  102OSM   H14G10389   1.542   3.431   8.842 -1.8450  0.4291 -0.8891
  102OSM   C15F10390   1.699   3.494   8.975 -0.1573 -0.2821  0.4366
  102OSM   H15F10391   1.700   3.391   9.018 -1.1683 -0.4579  0.0625
  102OSM   H15G10392   1.720   3.581   9.041 -0.1584  0.3412 -0.3706
  102OSM   C16F10393   1.802   3.487   8.860  0.2943 -0.5705  0.1124
  102OSM   H16F10394   1.769   3.417   8.780  0.0692 -0.5281  0.1680
  102OSM   H16G10395   1.898   3.449   8.902  1.3957  2.0297  0.1221
  102OSM   C17F10396   1.829   3.619   8.793  0.8164 -0.0337 -0.1325
  102OSM   H17F10397   1.830   3.706   8.862 -1.7124 -0.1482  0.1248
  102OSM   H17G10398   1.733   3.641   8.742 -0.4614  0.2627  2.2794
  102OSM   C18F10399   1.946   3.618   8.696 -0.5644  0.4227  0.7147
  102OSM   H18F10400   1.955   3.722   8.656 -2.5810  0.9191  1.4433
  102OSM   H18G10401   1.926   3.544   8.615  0.6191 -1.4728  2.0853
  102OSM   H18H10402   2.045   3.590   8.736  0.6339  0.2129 -2.1312
  103OSM      N10403   1.210   5.138  11.146 -0.1520 -0.1638  0.3487
  103OSM    C1510404   1.267   5.265  11.186  0.1273 -0.1182  0.0040
  103OSM   H15A10405   1.239   5.282  11.289 -2.3930 -0.4758 -0.5350
  103OSM   H15B10406   1.219   5.348  11.136  3.2270  0.5053 -2.2137
  103OSM   H15C10407   1.372   5.267  11.162  0.7467 -2.2180  2.0603
  103OSM    C1410408   1.269   5.031  11.240  0.0165  0.0270  0.4407
  103OSM   H14A10409   1.253   5.056  11.344  0.9105  0.8592  0.3813
  103OSM   H14B10410   1.375   5.017  11.230  0.2429  1.3220  0.9030
  103OSM   H14C10411   1.222   4.934  11.228  1.3221 -0.8168  1.7661
  103OSM    C1310412   1.063   5.123  11.175 -0.7017  1.1514 -0.4419
  103OSM   H13A10413   1.028   5.025  11.146 -2.0318  1.7234 -0.8530
  103OSM   H13B10414   1.010   5.195  11.114 -1.9675  0.4923 -0.1517
  103OSM   H13C10415   1.040   5.120  11.281  0.3632  1.6029 -0.1873
  103OSM    C1210416   1.241   5.099  11.003  0.3536 -0.1848 -0.0169
  103OSM   H12A10417   1.186   5.171  10.944 -0.5989 -2.2224 -1.7233
  103OSM   H12B10418   1.188   5.008  10.980  1.3256 -0.9798  0.8050
  103OSM    C1110419   1.387   5.097  10.958 -0.3178 -0.1554  1.1319
  103OSM   H11A10420   1.439   5.188  10.993  0.0682  0.7069 -1.4859
  103OSM   H11B10421   1.385   5.116  10.849  3.5991 -0.5915  0.8403
  103OSM      P10422   1.420   4.834  10.971  0.3021  0.1553  0.1053
  103OSM    O1310423   1.543   4.742  10.972  0.1295 -0.5684  0.5955
  103OSM    O1410424   1.307   4.793  11.051  0.5530  0.2277  0.5326
  103OSM    O1110425   1.367   4.841  10.822 -0.1601 -0.4301  0.4117
  103OSM    O1210426   1.464   4.984  11.001 -0.3226  0.2118  0.3426
  103OSM    C1S10427   1.466   4.852  10.723 -0.4382 -0.4531 -0.0878
  103OSM    H1S10428   1.518   4.754  10.730 -0.5691 -0.4129  2.8807
  103OSM    H1T10429   1.530   4.939  10.751 -2.4929  1.2953 -0.5803
  103OSM     NF10430   1.510   4.853  10.477  0.9741  0.3057 -0.1423
  103OSM    HNF10431   1.513   4.927  10.410 -0.2593  2.2910  1.8648
  103OSM    C2S10432   1.405   4.862  10.577  0.5687 -0.9025 -0.3691
  103OSM    H2S10433   1.345   4.770  10.563 -0.0246 -0.7640  1.0699
  103OSM    C3S10434   1.310   4.985  10.564  0.2785  1.3480  0.4595
  103OSM    H3S10435   1.362   5.082  10.577 -1.2638  2.5010 -1.4274
  103OSM     O310436   1.203   4.976  10.662 -0.0902  0.0218 -1.1542
  103OSM    HO310437   1.239   4.918  10.730  0.4330  0.6213 -0.9002
  103OSM    C4S10438   1.239   5.001  10.438  0.3216 -0.3047  0.0898
  103OSM    H4S10439   1.299   5.040  10.354  0.9729 -1.1111  0.1680
  103OSM    C5S10440   1.118   4.961  10.394 -0.6000 -0.1107  0.1160
  103OSM    H5S10441   1.057   4.894  10.457 -1.6659 -0.2025 -0.9728
  103OSM    C6S10442   1.065   4.997  10.256 -0.7710  0.4818 -0.8354
  103OSM    H6S10443   1.045   5.106  10.254 -2.9729  0.1405 -0.6942
  103OSM    H6T10444   0.963   4.954  10.246 -1.0773  1.1580 -0.6661
  103OSM    C7S10445   1.147   4.941  10.139  0.1907  0.5617  0.4021
  103OSM    H7S10446   1.165   4.831  10.145  0.0412  0.3980 -1.4614
  103OSM    H7T10447   1.248   4.985  10.136  1.9033 -3.0164 -1.4985
  103OSM    C8S10448   1.082   4.966  10.000  0.1485  0.3556 -0.0086
  103OSM    H8S10449   1.103   5.068   9.961  0.4724  0.4634  0.4329
  103OSM    H8T10450   0.972   4.955  10.001 -0.0622  2.0190 -0.7509
  103OSM    C9S10451   1.147   4.878   9.891 -0.0941  0.4220  0.2455
  103OSM    H9S10452   1.131   4.769   9.903  0.1979  0.1729 -1.4021
  103OSM    H9T10453   1.255   4.904   9.888  0.0563  0.0170  1.4881
  103OSM   C10S10454   1.074   4.903   9.755 -0.4622 -0.6978 -0.5575
  103OSM   H10S10455   1.094   5.009   9.730  3.3537 -1.0016  0.5318
  103OSM   H10T10456   0.968   4.880   9.776  0.0002 -1.2307  1.4392
  103OSM   C11S10457   1.128   4.823   9.625  0.2175  0.1347 -0.0420
  103OSM   H11S10458   1.093   4.718   9.617  1.4088 -0.4183  1.3846
  103OSM   H11T10459   1.239   4.815   9.622  0.3608  0.4108  2.3681
  103OSM   C12S10460   1.072   4.888   9.503  0.1613 -0.7122 -0.3641
  103OSM   H12S10461   1.096   4.996   9.501 -4.2991  0.6498  2.5801
  103OSM   H12T10462   0.962   4.900   9.512  0.4310  0.6065  1.7289
  103OSM   C13S10463   1.106   4.805   9.378  0.7694 -0.6140  0.4558
  103OSM   H13S10464   1.062   4.703   9.376  3.0721 -1.6845  1.2142
  103OSM   H13T10465   1.216   4.800   9.384  0.7080 -1.5554  0.8435
  103OSM   C14S10466   1.079   4.878   9.241 -0.5315 -0.0013  0.5102
  103OSM   H14S10467   1.137   4.822   9.164  1.8546  1.8139  0.8389
  103OSM   H14T10468   1.135   4.974   9.232  1.0300 -0.9645 -0.5253
  103OSM   C15S10469   0.933   4.910   9.201 -0.2726  0.8934 -0.9743
  103OSM   H15S10470   0.906   4.983   9.280 -1.1151 -0.4038 -0.0243
  103OSM   H15T10471   0.877   4.817   9.224  1.8951  0.0130  1.1466
  103OSM   C16S10472   0.912   4.978   9.064 -0.3809  0.2582 -0.3587
  103OSM   H16S10473   0.957   4.914   8.985 -1.1990 -1.1580  0.2822
  103OSM   H16T10474   0.967   5.074   9.062 -1.2574  0.8340  1.4366
  103OSM   C17S10475   0.770   4.991   9.032  0.5004  0.0751 -0.2987
  103OSM   H17S10476   0.716   5.060   9.100 -1.0633 -0.2287 -1.1850
  103OSM   H17T10477   0.721   4.891   9.033 -1.6568  1.0987 -0.1386
  103OSM   C18S10478   0.754   5.048   8.889 -0.8167  0.4196 -0.8142
  103OSM   H18S10479   0.787   4.972   8.814 -0.6755 -0.9566  0.5846
  103OSM   H18T10480   0.823   5.135   8.882 -0.4372  0.2573  0.6019
  103OSM   H18U10481   0.650   5.083   8.873 -0.4743  2.0543  0.2387
  103OSM    C1F10482   1.600   4.755  10.472  0.3879 -0.2967 -0.6352
  103OSM     OF10483   1.602   4.668  10.558  0.4914  0.3472  0.6031
  103OSM    C2F10484   1.702   4.768  10.363  0.3071  0.5415  0.2663
  103OSM    H2F10485   1.764   4.860  10.369  0.6036  0.3865 -0.3104
  103OSM    H2G10486   1.640   4.764  10.271  2.2709 -2.8165 -1.0840
  103OSM    C3F10487   1.800   4.646  10.357  0.1349 -0.2233 -0.3891
  103OSM    H3F10488   1.751   4.554  10.395  0.3807  0.8159  2.6659
  103OSM    H3G10489   1.876   4.679  10.430  1.1936  2.4912 -2.5229
  103OSM    C4F10490   1.859   4.610  10.218  0.3895 -0.3081 -0.0076
  103OSM    H4F10491   1.939   4.534  10.231 -0.1823 -0.4769  3.0196
  103OSM    H4G10492   1.894   4.708  10.178 -2.0406  0.3594 -0.6598
  103OSM    C5F10493   1.761   4.539  10.127  0.9230 -0.4120  0.0431
  103OSM    H5F10494   1.653   4.561  10.140  0.7944  1.6542 -3.2741
  103OSM    H5G10495   1.768   4.434  10.162 -0.1091 -0.3104  0.6000
  103OSM    C6F10496   1.804   4.542   9.983  0.1014  0.0690  0.8365
  103OSM    H6F10497   1.907   4.502   9.974 -0.5528 -1.6567  0.7203
  103OSM    H6G10498   1.805   4.649   9.951 -1.9067 -0.5045 -1.5174
  103OSM    C7F10499   1.690   4.485   9.892 -0.6733 -0.3596 -0.4708
  103OSM    H7F10500   1.595   4.537   9.916 -0.5317 -0.5400  0.4973
  103OSM    H7G10501   1.683   4.375   9.906  1.2576 -0.3974  0.5970
  103OSM    C8F10502   1.712   4.512   9.743  0.7392  0.7847  0.3419
  103OSM    H8F10503   1.746   4.616   9.726  2.0258  0.5295  1.1482
  103OSM    H8G10504   1.623   4.482   9.685  0.2494  1.7400  0.5809
  103OSM    C9F10505   1.842   4.449   9.694  0.4564 -0.2092  0.1081
  103OSM    H9F10506   1.924   4.431   9.764 -0.1616  1.7846  1.4149
  103OSM   C10F10507   1.861   4.393   9.569  0.8963  0.1804  0.0072
  103OSM   H10F10508   1.960   4.361   9.531  0.4996  0.4381 -1.2695
  103OSM   C11F10509   1.767   4.397   9.456  0.1477 -0.3127  0.1470
  103OSM   H11F10510   1.673   4.454   9.470 -0.7368 -1.2076 -1.7658
  103OSM   H11G10511   1.748   4.291   9.427 -1.0493 -0.1108  0.1790
  103OSM   C12F10512   1.833   4.461   9.333  0.8676 -0.7088  0.7087
  103OSM   H12F10513   1.929   4.408   9.318 -0.3757 -2.6710 -0.7396
  103OSM   H12G10514   1.857   4.568   9.350  1.9834 -0.5389 -1.6124
  103OSM   C13F10515   1.751   4.449   9.199  0.1096 -0.1095 -0.1786
  103OSM   H13F10516   1.723   4.342   9.185 -0.2449 -0.4308  2.3690
  103OSM   H13G10517   1.653   4.500   9.209  1.3264  2.5258 -0.7698
  103OSM   C14F10518   1.826   4.499   9.072  0.1891 -0.2510  0.3374
  103OSM   H14F10519   1.921   4.442   9.077 -0.2137 -0.9879 -0.1043
  103OSM   H14G10520   1.834   4.610   9.065  1.0355 -0.3695 -0.9802
  103OSM   C15F10521   1.769   4.456   8.933  0.2553  0.1688  0.4898
  103OSM   H15F10522   1.664   4.493   8.934  0.6182  1.2349  0.3255
  103OSM   H15G10523   1.761   4.346   8.915 -0.4264  0.0427  1.4903
  103OSM   C16F10524   1.845   4.500   8.810 -0.4125 -0.6279  0.3661
  103OSM   H16F10525   1.944   4.450   8.814  0.8447  1.6569 -0.1355
  103OSM   H16G10526   1.863   4.610   8.814  0.6549 -0.8235  1.5681
  103OSM   C17F10527   1.776   4.484   8.679 -0.2895  0.5094  0.0510
  103OSM   H17F10528   1.676   4.532   8.674 -1.6456 -2.1951 -0.6204
  103OSM   H17G10529   1.748   4.377   8.666 -0.3806  0.6325 -0.7995
  103OSM   C18F10530   1.846   4.519   8.549  0.9020 -0.1559  0.1954
  103OSM   H18F10531   1.890   4.426   8.506  0.8775  0.3911 -1.0611
  103OSM   H18G10532   1.932   4.585   8.572  1.1438  0.6985 -2.7682
  103OSM   H18H10533   1.779   4.570   8.477  3.3491  0.8655 -1.4819
  104OSM      N10534   5.606   3.699  10.901 -0.5363 -0.2773 -0.1689
  104OSM    C1510535   5.730   3.787  10.918 -0.2583  0.2093  0.6591
  104OSM   H15A10536   5.755   3.842  10.828  1.9390  0.7133  1.4979
  104OSM   H15B10537   5.819   3.740  10.958 -0.7728  0.2766  1.9501
  104OSM   H15C10538   5.709   3.858  10.997 -0.8855 -0.3777  1.0358
  104OSM    C1410539   5.647   3.578  10.835 -0.3360 -0.0344 -0.1635
  104OSM   H14A10540   5.718   3.522  10.894  0.2126 -1.5198 -2.1156
  104OSM   H14B10541   5.685   3.608  10.738  0.5945  0.6713  0.4135
  104OSM   H14C10542   5.570   3.504  10.815  1.0697 -1.4005 -0.7692
  104OSM    C1310543   5.561   3.652  11.036 -0.1154 -0.3624  0.0463
  104OSM   H13A10544   5.643   3.614  11.095 -0.0177  0.8636  0.7247
  104OSM   H13B10545   5.498   3.566  11.018  0.4642 -0.6802 -0.4563
  104OSM   H13C10546   5.512   3.735  11.085 -0.1719 -1.2408  1.5348
  104OSM    C1210547   5.496   3.768  10.823  0.3217 -0.8266 -0.2612
  104OSM   H12A10548   5.417   3.697  10.804  0.1556 -0.4206 -1.1377
  104OSM   H12B10549   5.531   3.792  10.724  0.6616 -1.4407 -0.2938
  104OSM    C1110550   5.441   3.910  10.878 -0.7503  0.1480  0.4992
  104OSM   H11A10551   5.409   3.889  10.983  0.5668 -1.3904  0.6311
  104OSM   H11B10552   5.350   3.924  10.816 -0.9650  0.7150  0.9281
  104OSM      P10553   5.593   4.084  10.738 -0.5108  0.0302 -0.1131
  104OSM    O1310554   5.494   4.185  10.698 -0.7326  0.4521  0.5185
  104OSM    O1410555   5.729   4.135  10.754  0.0900  0.1121 -0.2707
  104OSM    O1110556   5.592   3.972  10.629 -0.5723  0.0078  0.5802
  104OSM    O1210557   5.543   4.013  10.873 -0.1283  0.4171 -0.0897
  104OSM    C1S10558   5.488   3.966  10.530  0.2999 -0.2314 -0.0084
  104OSM    H1S10559   5.383   3.969  10.565  1.2832  1.3585  3.2877
  104OSM    H1T10560   5.507   3.863  10.491 -0.3331 -1.2786  2.2499
  104OSM     NF10561   5.377   4.067  10.326  0.2872  0.0689  0.9736
  104OSM    HNF10562   5.377   3.996  10.256 -0.4461 -1.5502  2.5268
  104OSM    C2S10563   5.500   4.067  10.408  0.1935  0.4704 -0.1000
  104OSM    H2S10564   5.510   4.170  10.447  0.3073  0.7058 -0.7359
  104OSM    C3S10565   5.624   4.040  10.319  0.3619  0.7667 -0.3153
  104OSM    H3S10566   5.616   3.947  10.260  0.6719 -0.9240  2.1521
  104OSM     O310567   5.738   4.007  10.400 -0.1206 -0.3821 -0.4799
  104OSM    HO310568   5.701   3.980  10.484 -0.7340  0.8774 -0.3209
  104OSM    C4S10569   5.654   4.160  10.229  0.5455  0.5596 -0.7321
  104OSM    H4S10570   5.664   4.252  10.288 -0.2937 -0.0493  0.4063
  104OSM    C5S10571   5.660   4.158  10.096  0.3281  0.8642  0.3890
  104OSM    H5S10572   5.635   4.069  10.037 -2.8021  1.7123  0.2450
  104OSM    C6S10573   5.688   4.275  10.001  1.0139 -0.3862 -0.0235
  104OSM    H6S10574   5.791   4.272   9.958  1.8390  0.1849  1.8160
  104OSM    H6T10575   5.690   4.367  10.064 -1.5114 -0.9168  0.9089
  104OSM    C7S10576   5.585   4.295   9.891  0.5599  0.0127 -0.3933
  104OSM    H7S10577   5.591   4.401   9.860  0.0344  0.3533  0.6394
  104OSM    H7T10578   5.485   4.279   9.937  0.9179 -0.6476  0.1726
  104OSM    C8S10579   5.605   4.199   9.778  0.0640 -0.1855  0.5401
  104OSM    H8S10580   5.587   4.092   9.803 -1.5361  0.3108  1.6686
  104OSM    H8T10581   5.706   4.204   9.732 -0.1046 -4.2216 -0.7088
  104OSM    C9S10582   5.498   4.224   9.664 -0.1383  0.4703  0.1911
  104OSM    H9S10583   5.484   4.333   9.648  0.7847  0.8220  1.6024
  104OSM    H9T10584   5.403   4.172   9.689 -0.0231 -0.0329 -0.3948
  104OSM   C10S10585   5.550   4.174   9.527  0.0061 -0.4574  0.0276
  104OSM   H10S10586   5.541   4.064   9.537 -3.4513 -0.2191  0.7600
  104OSM   H10T10587   5.658   4.196   9.511 -0.2088  0.7357  0.0610
  104OSM   C11S10588   5.476   4.219   9.404  0.5356 -0.1556 -0.8095
  104OSM   H11S10589   5.463   4.329   9.409  3.1938  0.1562  2.0652
  104OSM   H11T10590   5.377   4.170   9.406  0.0482  0.7731 -1.4424
  104OSM   C12S10591   5.563   4.186   9.280  0.1762  0.0334 -0.4003
  104OSM   H12S10592   5.648   4.256   9.296  0.2627 -0.1061 -0.2532
  104OSM   H12T10593   5.511   4.229   9.191 -1.0970  0.5948  0.5736
  104OSM   C13S10594   5.604   4.044   9.258  0.8381 -0.6928  0.0773
  104OSM   H13S10595   5.516   3.977   9.263  0.5858 -0.3798 -0.1345
  104OSM   H13T10596   5.683   4.016   9.332  1.3463  0.2667 -0.0859
  104OSM   C14S10597   5.647   4.020   9.111  0.1552  0.1086 -0.0577
  104OSM   H14S10598   5.588   4.081   9.039  1.6333  0.9137 -0.6302
  104OSM   H14T10599   5.633   3.912   9.090  0.2199  0.2850 -1.0657
  104OSM   C15S10600   5.794   4.033   9.084 -0.3547 -0.2956  0.1515
  104OSM   H15S10601   5.851   3.970   9.156  1.4506  2.4846  1.3370
  104OSM   H15T10602   5.825   4.139   9.097  2.3787 -0.7123 -1.9419
  104OSM   C16S10603   5.844   3.991   8.944 -0.2486  0.0582  0.3858
  104OSM   H16S10604   5.788   4.036   8.859  0.3947  1.5568  0.7126
  104OSM   H16T10605   5.822   3.886   8.915 -0.2880  0.9038 -3.0627
  104OSM   C17S10606   5.994   4.014   8.917  0.4994 -0.7985  0.0951
  104OSM   H17S10607   6.056   3.974   9.000  0.6295 -1.8540 -0.4871
  104OSM   H17T10608   6.018   4.122   8.912 -0.4515 -0.6259 -1.6218
  104OSM   C18S10609   6.044   3.947   8.790  0.6411  0.3921  1.0071
  104OSM   H18S10610   5.999   3.984   8.696 -0.4568 -0.2425  1.2679
  104OSM   H18T10611   6.021   3.839   8.782  0.3925  0.5852 -2.0702
  104OSM   H18U10612   6.155   3.947   8.778  0.8260 -1.1171  2.3231
  104OSM    C1F10613   5.260   4.116  10.365  0.2363 -0.2361 -0.3701
  104OSM     OF10614   5.238   4.187  10.463 -0.8130 -0.0459  0.3206
  104OSM    C2F10615   5.139   4.080  10.286 -0.1261 -0.3714  0.0081
  104OSM    H2F10616   5.050   4.079  10.353  1.0297  1.1419  1.6736
  104OSM    H2G10617   5.155   3.977  10.247 -2.1443 -1.6767  2.3029
  104OSM    C3F10618   5.109   4.182  10.167 -0.2358 -0.1906 -0.8636
  104OSM    H3F10619   5.203   4.202  10.110 -1.2237 -0.7634 -2.7994
  104OSM    H3G10620   5.084   4.282  10.209 -1.6814  0.3107 -2.7757
  104OSM    C4F10621   4.992   4.142  10.076 -0.5322 -0.5129  0.1623
  104OSM    H4F10622   4.902   4.114  10.135  0.1763 -1.9765  0.6176
  104OSM    H4G10623   5.018   4.050  10.019  1.1189 -1.0825  1.7572
  104OSM    C5F10624   4.945   4.248   9.971 -0.4021  0.3981  0.5553
  104OSM    H5F10625   5.029   4.297   9.917  0.8608 -1.8770  0.3290
  104OSM    H5G10626   4.895   4.334  10.020 -0.7839  0.4711  0.0537
  104OSM    C6F10627   4.856   4.190   9.866  0.1339 -0.4474  0.3592
  104OSM    H6F10628   4.816   4.281   9.815  1.8009  0.8080  1.1962
  104OSM    H6G10629   4.766   4.137   9.905 -3.1748  1.9490 -3.2049
  104OSM    C7F10630   4.923   4.103   9.764 -0.4359 -0.1903  0.1590
  104OSM    H7F10631   4.851   4.053   9.696  0.3047 -1.4116  0.2394
  104OSM    H7G10632   4.992   4.026   9.806 -0.8417 -2.8198 -3.5487
  104OSM    C8F10633   5.019   4.177   9.675  0.2187  0.5564  0.6367
  104OSM    H8F10634   5.054   4.105   9.598  0.6993  2.6849 -1.2386
  104OSM    H8G10635   5.104   4.215   9.735 -0.5458  0.3215  1.9018
  104OSM    C9F10636   4.954   4.287   9.596  0.0866 -0.2656 -0.3417
  104OSM    H9F10637   4.844   4.281   9.588  0.2818 -2.6512 -2.6405
  104OSM   C10F10638   5.017   4.389   9.552  0.9993  0.8112  0.3453
  104OSM   H10F10639   4.958   4.476   9.522  1.5174  1.4822  1.1905
  104OSM   C11F10640   5.164   4.416   9.559  0.0492 -0.0516  0.7363
  104OSM   H11F10641   5.200   4.424   9.454  2.4644 -2.7809  1.2284
  104OSM   H11G10642   5.215   4.325   9.596  0.4200 -0.4213 -0.6103
  104OSM   C12F10643   5.200   4.544   9.625  0.6135  0.5098  0.6537
  104OSM   H12F10644   5.161   4.630   9.567 -4.0920 -1.0034  1.1099
  104OSM   H12G10645   5.310   4.553   9.627  0.6471  0.0571  0.9946
  104OSM   C13F10646   5.162   4.559   9.777  0.0408  0.1277  0.1190
  104OSM   H13F10647   5.058   4.528   9.800 -0.0854  1.0321  0.8511
  104OSM   H13G10648   5.152   4.668   9.797  1.2786  0.1191  0.8816
  104OSM   C14F10649   5.261   4.503   9.879 -0.4389  0.1411 -0.1116
  104OSM   H14F10650   5.355   4.557   9.853 -0.0071 -1.0572 -1.1547
  104OSM   H14G10651   5.276   4.394   9.863 -0.1729 -0.1654  1.9191
  104OSM   C15F10652   5.229   4.540  10.024 -0.1370 -0.4179 -0.1973
  104OSM   H15F10653   5.140   4.477  10.047  0.2793 -0.7561  0.5242
  104OSM   H15G10654   5.214   4.649  10.038  1.8454 -0.3780  2.3904
  104OSM   C16F10655   5.333   4.504  10.133  0.2339 -0.4053 -0.0102
  104OSM   H16F10656   5.353   4.395  10.123 -1.5320 -0.9001  1.4318
  104OSM   H16G10657   5.281   4.523  10.229 -3.1015  0.4339 -1.8423
  104OSM   C17F10658   5.469   4.576  10.119  0.4098  0.0821  0.0540
  104OSM   H17F10659   5.456   4.686  10.108  7.8446  1.3875 -1.6922
  104OSM   H17G10660   5.521   4.552  10.023  0.5359 -0.9183  0.3594
  104OSM   C18F10661   5.548   4.547  10.249 -0.2547  0.5078 -0.6326
  104OSM   H18F10662   5.497   4.594  10.335  1.7789 -0.4877  1.2114
  104OSM   H18G10663   5.651   4.590  10.251 -0.0552  0.0123  1.3634
  104OSM   H18H10664   5.561   4.438  10.263  1.1115  0.8741  1.2865
  105OSM      N10665   4.809   3.838  10.755 -0.5747  0.0710 -0.3114
  105OSM    C1510666   4.753   3.854  10.894  0.1733  0.2352 -0.4538
  105OSM   H15A10667   4.796   3.789  10.968 -0.5380 -0.3476 -0.5401
  105OSM   H15B10668   4.647   3.834  10.890  0.5662 -3.0397  1.5779
  105OSM   H15C10669   4.775   3.953  10.933 -1.9289  0.4757  0.2803
  105OSM    C1410670   4.785   3.683  10.709  0.5982 -0.7055 -0.4287
  105OSM   H14A10671   4.779   3.676  10.601 -0.5034 -0.8063 -0.3727
  105OSM   H14B10672   4.689   3.652  10.747 -0.3477  1.9623 -0.4220
  105OSM   H14C10673   4.867   3.627  10.749  1.2710 -0.2514 -1.1414
  105OSM    C1310674   4.737   3.931  10.668  0.5927  0.3655 -0.0999
  105OSM   H13A10675   4.637   3.897  10.643  0.2803  0.9131  0.3880
  105OSM   H13B10676   4.795   3.973  10.587 -3.5063  1.8190 -2.5973
  105OSM   H13C10677   4.722   4.025  10.719  2.6404  0.1071  1.1038
  105OSM    C1210678   4.959   3.877  10.747 -0.8141  0.0935  1.0431
  105OSM   H12A10679   5.011   3.834  10.831  0.2694 -1.2593 -0.2505
  105OSM   H12B10680   4.968   3.984  10.760  1.6292  0.1264 -0.1844
  105OSM    C1110681   5.044   3.847  10.620  0.1128 -0.2544 -0.0316
  105OSM   H11A10682   5.140   3.900  10.639  0.8005 -1.6722  0.6240
  105OSM   H11B10683   4.993   3.894  10.533 -1.0232 -1.9213 -0.3110
  105OSM      P10684   5.190   3.637  10.670 -0.2768  0.4757  0.1053
  105OSM    O1310685   5.223   3.680  10.807 -0.2779 -0.3236  0.4170
  105OSM    O1410686   5.173   3.493  10.657 -0.4945  0.1804 -0.3353
  105OSM    O1110687   5.303   3.686  10.581 -0.3016  0.3056  1.0144
  105OSM    O1210688   5.065   3.705  10.606 -0.0801  0.5607  0.3436
  105OSM    C1S10689   5.290   3.675  10.435 -0.1274 -0.1530  0.4041
  105OSM    H1S10690   5.270   3.780  10.407 -3.3156 -0.3365  1.6083
  105OSM    H1T10691   5.201   3.615  10.406 -0.1374  0.8557 -1.8714
  105OSM     NF10692   5.363   3.612  10.216 -1.0151  0.5753 -0.1256
  105OSM    HNF10693   5.333   3.522  10.185 -2.8811  0.8676  0.6985
  105OSM    C2S10694   5.412   3.617  10.353 -0.2550  0.4936 -0.1038
  105OSM    H2S10695   5.508   3.670  10.368  0.5756 -1.1085  0.4798
  105OSM    C3S10696   5.454   3.481  10.415  0.5214 -0.0810 -0.1063
  105OSM    H3S10697   5.367   3.416  10.439 -0.2373  1.6020  2.0940
  105OSM     O310698   5.502   3.495  10.546  0.4998  0.6219 -0.1533
  105OSM    HO310699   5.484   3.589  10.555 -2.6115  0.1151 -0.1061
  105OSM    C4S10700   5.561   3.411  10.338  0.0133 -0.5083  0.2057
  105OSM    H4S10701   5.661   3.455  10.349 -0.7283  0.6483  2.9225
  105OSM    C5S10702   5.538   3.310  10.250  0.3182  0.0252 -0.3010
  105OSM    H5S10703   5.432   3.287  10.233  0.1593  1.8350 -2.2393
  105OSM    C6S10704   5.641   3.234  10.176  0.1268 -0.1468 -0.4281
  105OSM    H6S10705   5.648   3.138  10.232  0.0594  0.5079  0.7463
  105OSM    H6T10706   5.742   3.280  10.169 -0.2393  0.7342 -0.0778
  105OSM    C7S10707   5.591   3.200  10.034 -0.3568  0.0093 -0.0196
  105OSM    H7S10708   5.493   3.148  10.025  0.2702 -0.8048 -3.3341
  105OSM    H7T10709   5.665   3.129   9.990 -0.6541  0.1532 -0.7519
  105OSM    C8S10710   5.586   3.319   9.940  0.1668 -0.0261 -0.1868
  105OSM    H8S10711   5.668   3.393   9.953  0.4428  0.0230 -1.9384
  105OSM    H8T10712   5.500   3.371   9.986 -0.1931 -1.9800  1.4788
  105OSM    C9S10713   5.562   3.294   9.796  0.2843 -0.1801  0.2200
  105OSM    H9S10714   5.461   3.249   9.785 -0.5404  1.7719 -0.9288
  105OSM    H9T10715   5.631   3.216   9.758  2.1369  0.3370  2.3357
  105OSM   C10S10716   5.571   3.408   9.692  0.4185  0.4135 -0.0119
  105OSM   H10S10717   5.674   3.448   9.681  0.3086  0.1664 -2.6446
  105OSM   H10T10718   5.501   3.489   9.720  1.5432  0.7737  1.9230
  105OSM   C11S10719   5.533   3.353   9.554 -0.1904 -0.4164 -0.1272
  105OSM   H11S10720   5.425   3.328   9.553  0.4258 -3.5969 -0.9462
  105OSM   H11T10721   5.574   3.250   9.538 -1.4311 -1.2936  1.9022
  105OSM   C12S10722   5.563   3.466   9.453 -0.7665  0.0324 -0.4186
  105OSM   H12S10723   5.673   3.473   9.445 -0.6323  1.2116  1.7340
  105OSM   H12T10724   5.515   3.561   9.486 -2.4525 -0.6956 -0.6743
  105OSM   C13S10725   5.502   3.428   9.323  0.3183 -0.6806  0.9893
  105OSM   H13S10726   5.392   3.434   9.329  0.2358 -2.2749  1.3717
  105OSM   H13T10727   5.525   3.320   9.308 -0.0045 -0.9863  2.5581
  105OSM   C14S10728   5.559   3.514   9.206 -0.3693 -0.1957 -0.6232
  105OSM   H14S10729   5.669   3.512   9.219 -0.5457  0.6789  1.4045
  105OSM   H14T10730   5.525   3.617   9.231  1.8035  0.4423 -0.1291
  105OSM   C15S10731   5.520   3.466   9.063  0.1689 -0.5768 -0.0668
  105OSM   H15S10732   5.411   3.447   9.070  0.1360 -0.8565 -1.1030
  105OSM   H15T10733   5.567   3.366   9.049 -0.2261 -0.8076  0.2638
  105OSM   C16S10734   5.556   3.561   8.946 -0.2065 -0.1964  0.2034
  105OSM   H16S10735   5.521   3.519   8.849 -0.7291  2.3178 -0.7707
  105OSM   H16T10736   5.667   3.565   8.948  0.0149 -3.4679  1.5026
  105OSM   C17S10737   5.491   3.698   8.953 -0.0196 -0.2183  0.2724
  105OSM   H17S10738   5.545   3.767   8.885 -0.9650  1.4455  1.1457
  105OSM   H17T10739   5.501   3.742   9.055 -2.0948 -0.3680  0.6002
  105OSM   C18S10740   5.341   3.692   8.917  0.4514 -0.0076 -0.3694
  105OSM   H18S10741   5.328   3.665   8.810  1.4233 -0.5435 -0.3621
  105OSM   H18T10742   5.276   3.779   8.941 -1.1320 -1.3799  0.5267
  105OSM   H18U10743   5.298   3.606   8.972 -2.3985  0.9376 -0.8931
  105OSM    C1F10744   5.357   3.724  10.141 -0.2132 -0.0737  0.2728
  105OSM     OF10745   5.395   3.834  10.180  0.6254  0.7695 -0.4677
  105OSM    C2F10746   5.316   3.701   9.993  0.4664 -0.5091  0.4303
  105OSM    H2F10747   5.277   3.597   9.985  1.9709 -1.1449  0.9715
  105OSM    H2G10748   5.411   3.706   9.934  0.7788  3.2169  0.9757
  105OSM    C3F10749   5.213   3.797   9.937  0.8028 -0.0397  0.1202
  105OSM    H3F10750   5.243   3.903   9.952 -0.9757  0.1875  2.5788
  105OSM    H3G10751   5.118   3.808   9.994  0.1990 -0.8874 -0.6756
  105OSM    C4F10752   5.168   3.772   9.790 -0.4066  0.9561  1.0929
  105OSM    H4F10753   5.077   3.834   9.775 -1.4358 -1.0412 -1.9197
  105OSM    H4G10754   5.143   3.665   9.778 -0.0786  1.1308 -1.7136
  105OSM    C5F10755   5.276   3.804   9.679 -0.2824  0.0398 -0.2093
  105OSM    H5F10756   5.365   3.738   9.689 -0.4862 -0.4852 -1.6351
  105OSM    H5G10757   5.308   3.907   9.703  0.2334  0.1922 -1.4981
  105OSM    C6F10758   5.225   3.786   9.530 -0.6867  0.0412 -0.1557
  105OSM    H6F10759   5.116   3.809   9.526 -0.8712 -0.8853 -0.5981
  105OSM    H6G10760   5.235   3.678   9.506 -1.3370 -1.0134  3.5630
  105OSM    C7F10761   5.303   3.881   9.438  0.7583 -0.2636 -0.3502
  105OSM    H7F10762   5.410   3.886   9.466  0.3620  3.1657  1.0144
  105OSM    H7G10763   5.251   3.978   9.454  0.8772 -0.3277  0.4568
  105OSM    C8F10764   5.290   3.843   9.288 -0.5179 -0.5413 -0.3702
  105OSM    H8F10765   5.355   3.759   9.256 -0.5085 -1.1977  1.2952
  105OSM    H8G10766   5.323   3.925   9.220  1.2780 -0.0204  1.0432
  105OSM    C9F10767   5.151   3.811   9.252  0.0998 -0.2972 -1.0619
  105OSM    H9F10768   5.138   3.702   9.254 -2.1646 -0.0543  0.3551
  105OSM   C10F10769   5.061   3.894   9.195 -0.3005  0.1630  0.4311
  105OSM   H10F10770   4.958   3.860   9.180  0.4382 -1.6445 -0.8958
  105OSM   C11F10771   5.072   4.044   9.177  0.0923  0.2439  0.2012
  105OSM   H11F10772   5.069   4.069   9.069 -0.8086 -1.3301 -0.1764
  105OSM   H11G10773   5.164   4.080   9.228 -0.1057  2.5824 -0.9469
  105OSM   C12F10774   4.963   4.129   9.235  0.1769  0.4715 -0.0719
  105OSM   H12F10775   4.960   4.111   9.344  2.3987  0.4023  0.0286
  105OSM   H12G10776   4.872   4.098   9.180  1.1713 -0.6976 -1.1265
  105OSM   C13F10777   4.986   4.275   9.199  0.8590 -0.1388  0.5604
  105OSM   H13F10778   5.021   4.274   9.094 -0.2798 -0.9408  0.1649
  105OSM   H13G10779   5.060   4.328   9.262  0.2420  0.2792  0.9445
  105OSM   C14F10780   4.854   4.359   9.204 -0.1716 -0.0679 -0.2122
  105OSM   H14F10781   4.803   4.329   9.298  0.7811  0.1919  0.4036
  105OSM   H14G10782   4.784   4.337   9.121  0.5816 -1.3837 -0.5201
  105OSM   C15F10783   4.877   4.516   9.198 -0.2585  0.8960 -0.2571
  105OSM   H15F10784   4.961   4.539   9.267  1.3550 -0.9603 -1.5215
  105OSM   H15G10785   4.777   4.555   9.228 -0.3478  0.5830 -0.1417
  105OSM   C16F10786   4.912   4.566   9.060  0.5165 -0.7044  0.0348
  105OSM   H16F10787   4.828   4.537   8.993 -0.2953 -2.9306  1.9115
  105OSM   H16G10788   5.004   4.511   9.029  0.9235  0.2044 -0.4051
  105OSM   C17F10789   4.962   4.711   9.048 -0.0768 -0.2165  0.3101
  105OSM   H17F10790   5.020   4.735   9.140 -0.7827  2.5649  0.1124
  105OSM   H17G10791   4.868   4.767   9.065  0.1236  0.1272  0.3046
  105OSM   C18F10792   5.037   4.748   8.920 -0.0519  0.3495  0.1567
  105OSM   H18F10793   5.059   4.856   8.914 -1.9687  0.7528 -0.5562
  105OSM   H18G10794   4.975   4.719   8.832  0.9444 -0.3313 -0.3291
  105OSM   H18H10795   5.130   4.688   8.919 -0.8216 -0.9296 -1.2860
  106OSM      N10796   1.255   3.259  10.844 -0.3071  0.5398  0.6320
  106OSM    C1510797   1.378   3.285  10.767  0.1673 -0.5005 -0.1652
  106OSM   H15A10798   1.374   3.372  10.703 -2.0815 -1.6480 -1.7144
  106OSM   H15B10799   1.405   3.201  10.704  0.0642 -0.3490 -0.4114
  106OSM   H15C10800   1.458   3.308  10.836 -1.4737  3.2519  0.6914
  106OSM    C1410801   1.284   3.149  10.939  0.0591  0.1314  0.0913
  106OSM   H14A10802   1.360   3.178  11.011 -0.5832 -1.0645  1.3178
  106OSM   H14B10803   1.307   3.058  10.885  0.2118  0.1060  0.1972
  106OSM   H14C10804   1.196   3.124  10.997 -0.0783  1.3712  0.4370
  106OSM    C1310805   1.226   3.381  10.932  0.2407  0.4298 -0.0978
  106OSM   H13A10806   1.218   3.465  10.864  0.9544  0.2793 -0.3790
  106OSM   H13B10807   1.298   3.403  11.009 -1.6346 -0.8739  2.1359
  106OSM   H13C10808   1.140   3.366  10.994  1.4183 -2.2052  1.0558
  106OSM    C1210809   1.144   3.216  10.753  0.5945 -0.1481 -0.7381
  106OSM   H12A10810   1.125   3.302  10.691  2.7651  0.4208 -0.6794
  106OSM   H12B10811   1.052   3.194  10.807 -0.7342  2.2903 -1.8675
  106OSM    C1110812   1.162   3.096  10.650 -0.0546  0.1464  0.0991
  106OSM   H11A10813   1.249   3.136  10.593  0.7917 -1.6896  0.0094
  106OSM   H11B10814   1.078   3.086  10.578 -0.5190 -0.2043  0.6807
  106OSM      P10815   1.288   2.859  10.671 -0.2797  0.3260 -0.1364
  106OSM    O1310816   1.416   2.920  10.613 -0.0736  0.7522 -0.5906
  106OSM    O1410817   1.318   2.758  10.780 -0.5315  0.1917 -0.3111
  106OSM    O1110818   1.219   2.782  10.553 -0.1032 -0.0939 -0.3185
  106OSM    O1210819   1.181   2.972  10.710  0.1511 -0.3437  0.2533
  106OSM    C1S10820   1.209   2.853  10.422  0.3022  0.1309 -0.7857
  106OSM    H1S10821   1.309   2.892  10.395  0.1918  2.3313  1.6769
  106OSM    H1T10822   1.143   2.942  10.422  2.3693  1.7293  0.3618
  106OSM     NF10823   1.169   2.846  10.189  0.5022 -0.5770  0.4682
  106OSM    HNF10824   1.081   2.860  10.143  0.7168 -2.6299 -0.7004
  106OSM    C2S10825   1.173   2.757  10.303  0.5386  0.4714 -0.1017
  106OSM    H2S10826   1.250   2.681  10.277 -1.3845 -1.4929 -0.2776
  106OSM    C3S10827   1.040   2.692  10.340  0.1469 -0.6670  0.6438
  106OSM    H3S10828   0.971   2.772  10.374  3.4452  2.9306 -0.4271
  106OSM     O310829   1.044   2.589  10.443 -0.0482 -0.3142  0.2864
  106OSM    HO310830   1.124   2.615  10.490 -0.1585  0.5681  0.0128
  106OSM    C4S10831   0.975   2.633  10.213 -0.8714  0.0197 -0.1953
  106OSM    H4S10832   0.908   2.703  10.160 -1.1415 -0.3869 -0.3923
  106OSM    C5S10833   0.979   2.510  10.156  0.5431  0.4786 -0.1542
  106OSM    H5S10834   1.026   2.426  10.211 -0.5606 -0.2891 -0.3486
  106OSM    C6S10835   0.907   2.476  10.029 -0.0070 -0.0056  0.3147
  106OSM    H6S10836   0.859   2.376  10.040  0.4901 -0.5536 -1.9332
  106OSM    H6T10837   0.990   2.457   9.957  0.4919 -0.7155  1.0543
  106OSM    C7S10838   0.823   2.589   9.969  0.5751  0.2741 -0.4806
  106OSM    H7S10839   0.881   2.682   9.951  0.7257 -0.0964 -2.0769
  106OSM    H7T10840   0.739   2.620  10.035  0.1255 -0.9635 -0.4589
  106OSM    C8S10841   0.780   2.543   9.831  0.1389  0.7093  0.2516
  106OSM    H8S10842   0.728   2.446   9.844  1.0314  0.3916  1.6986
  106OSM    H8T10843   0.872   2.515   9.776 -0.8426 -1.3040 -0.4432
  106OSM    C9S10844   0.697   2.643   9.755 -0.2513 -0.2308 -0.2370
  106OSM    H9S10845   0.763   2.725   9.721  1.6825 -1.5675  0.1251
  106OSM    H9T10846   0.615   2.676   9.823 -0.9547  2.5955 -2.2907
  106OSM   C10S10847   0.633   2.595   9.624 -0.7942  0.6016 -1.0254
  106OSM   H10S10848   0.543   2.540   9.660 -1.1681  3.5308  3.4148
  106OSM   H10T10849   0.700   2.522   9.573 -0.6785 -1.1734  1.4525
  106OSM   C11S10850   0.587   2.715   9.532 -0.1479 -0.6016  0.3707
  106OSM   H11S10851   0.669   2.789   9.519 -1.5993  1.3981  2.0099
  106OSM   H11T10852   0.510   2.773   9.586  1.0076  1.1695  0.1935
  106OSM   C12S10853   0.537   2.686   9.390  0.0023 -0.8635  0.5660
  106OSM   H12S10854   0.517   2.779   9.334 -0.6531 -0.9611  0.6312
  106OSM   H12T10855   0.438   2.638   9.400 -0.9312  0.5450 -1.4295
  106OSM   C13S10856   0.626   2.607   9.309 -0.1303 -0.0115  0.3561
  106OSM   H13S10857   0.666   2.519   9.364  0.2420  0.4641  0.8483
  106OSM   H13T10858   0.714   2.667   9.278 -0.0710  0.8837  2.1818
  106OSM   C14S10859   0.549   2.546   9.182 -0.3689  0.1748 -0.2550
  106OSM   H14S10860   0.455   2.511   9.228 -0.5888 -0.3788 -1.1182
  106OSM   H14T10861   0.607   2.455   9.155  0.9811  0.8083  0.4080
  106OSM   C15S10862   0.541   2.644   9.067  0.3704  0.6738  0.3402
  106OSM   H15S10863   0.649   2.658   9.045  0.3327  1.4669  0.6338
  106OSM   H15T10864   0.508   2.741   9.110  0.1715  0.5578  0.4517
  106OSM   C16S10865   0.446   2.597   8.958 -0.0733 -0.3327 -0.4386
  106OSM   H16S10866   0.349   2.585   9.012 -0.7030  1.1163 -1.1899
  106OSM   H16T10867   0.483   2.495   8.933  0.0270 -0.4406  0.1441
  106OSM   C17S10868   0.443   2.676   8.835 -0.1306 -0.8164  0.0745
  106OSM   H17S10869   0.551   2.691   8.810  0.5971 -1.8285  2.3268
  106OSM   H17T10870   0.393   2.771   8.861 -0.5043 -0.6465 -1.2045
  106OSM   C18S10871   0.367   2.599   8.726 -0.1689  0.0671 -0.5147
  106OSM   H18S10872   0.261   2.607   8.758 -0.0342  0.6931 -0.2166
  106OSM   H18T10873   0.407   2.496   8.713 -1.7552 -0.4244 -1.8615
  106OSM   H18U10874   0.387   2.661   8.636 -0.8297  0.0154 -0.6998
  106OSM    C1F10875   1.271   2.902  10.136 -0.4951  0.4308  0.4918
  106OSM     OF10876   1.387   2.875  10.174 -0.2950 -0.4518  0.0719
  106OSM    C2F10877   1.235   2.993  10.022 -0.9265 -0.0063 -0.0795
  106OSM    H2F10878   1.161   3.064  10.065 -1.5911 -0.6627 -0.1301
  106OSM    H2G10879   1.180   2.929   9.950 -1.2314 -0.3535  0.4582
  106OSM    C3F10880   1.359   3.067   9.962 -0.2622 -0.5853 -0.3178
  106OSM    H3F10881   1.439   2.995   9.935 -0.8930 -0.9398 -1.2749
  106OSM    H3G10882   1.396   3.139  10.038 -1.4118  0.8530 -1.0767
  106OSM    C4F10883   1.337   3.152   9.833 -0.0171 -0.4724  0.0999
  106OSM    H4F10884   1.435   3.196   9.802 -0.6181  0.6240 -0.2916
  106OSM    H4G10885   1.267   3.235   9.856 -0.0031 -0.8069  1.4450
  106OSM    C5F10886   1.286   3.085   9.706 -0.8607 -0.5748  0.1666
  106OSM    H5F10887   1.189   3.032   9.719 -0.5910 -0.7383  1.6312
  106OSM    H5G10888   1.370   3.016   9.685 -0.8205 -0.3281 -0.5306
  106OSM    C6F10889   1.295   3.179   9.582  0.3613 -0.3399  0.9526
  106OSM    H6F10890   1.388   3.231   9.551  0.0772  0.8288  2.0133
  106OSM    H6G10891   1.223   3.261   9.602 -0.2861  0.4797 -3.6412
  106OSM    C7F10892   1.249   3.109   9.452  0.3184 -1.0331 -0.0969
  106OSM    H7F10893   1.206   3.182   9.381  1.3241 -1.0225 -0.6984
  106OSM    H7G10894   1.167   3.044   9.490 -0.8212  0.9472  0.9738
  106OSM    C8F10895   1.351   3.020   9.382  0.0129 -0.2859 -0.3721
  106OSM    H8F10896   1.289   2.948   9.325 -1.3430 -0.6195  1.4642
  106OSM    H8G10897   1.397   2.957   9.461 -1.2995  1.3037  1.7373
  106OSM    C9F10898   1.476   3.075   9.313  0.6683  0.0000  1.0773
  106OSM    H9F10899   1.565   3.121   9.359  1.5168 -0.0029 -0.4874
  106OSM   C10F10900   1.484   3.082   9.174 -0.1034 -0.3911  0.5728
  106OSM   H10F10901   1.581   3.106   9.128  0.3816  1.5223  2.4128
  106OSM   C11F10902   1.376   3.033   9.078  0.5918 -0.0508 -0.3012
  106OSM   H11F10903   1.297   3.108   9.056  1.5033  0.7582 -0.9569
  106OSM   H11G10904   1.310   2.954   9.117  0.9078 -1.0399 -1.6875
  106OSM   C12F10905   1.442   2.983   8.952  0.1942  0.3424  0.2975
  106OSM   H12F10906   1.363   2.923   8.902 -1.9390  1.6301  1.9225
  106OSM   H12G10907   1.536   2.926   8.971  0.5163  0.3174 -1.2244
  106OSM   C13F10908   1.466   3.102   8.865 -0.2066 -0.8987  0.6259
  106OSM   H13F10909   1.543   3.164   8.915 -0.1398 -0.6906  0.2756
  106OSM   H13G10910   1.369   3.156   8.852  0.2111  0.0970  1.5423
  106OSM   C14F10911   1.535   3.062   8.733  0.0795 -0.3794 -0.3223
  106OSM   H14F10912   1.464   2.991   8.686  1.7131 -0.5748 -2.6577
  106OSM   H14G10913   1.627   3.005   8.758 -0.0733 -0.5735 -0.1979
  106OSM   C15F10914   1.568   3.173   8.630  0.1432  0.6459 -0.0503
  106OSM   H15F10915   1.624   3.127   8.546 -0.7421 -1.7994  0.5861
  106OSM   H15G10916   1.627   3.248   8.686  1.1063 -1.1552  1.4775
  106OSM   C16F10917   1.447   3.237   8.568  0.2661 -0.1315  0.0012
  106OSM   H16F10918   1.380   3.260   8.654 -0.9983 -3.0350 -0.1032
  106OSM   H16G10919   1.391   3.155   8.518  1.7002 -1.8455  1.1099
  106OSM   C17F10920   1.477   3.351   8.477 -0.5119 -0.6678  0.2478
  106OSM   H17F10921   1.548   3.416   8.534 -1.5739  0.7228  0.0462
  106OSM   H17G10922   1.391   3.419   8.458 -0.5502 -1.3097 -2.1430
  106OSM   C18F10923   1.530   3.307   8.342 -0.4318 -0.2126 -0.5178
  106OSM   H18F10924   1.547   3.387   8.267  0.5879  0.4652  0.4017
  106OSM   H18G10925   1.468   3.230   8.293 -0.9709  0.8621 -1.5737
  106OSM   H18H10926   1.631   3.262   8.359 -0.5994  0.1409  1.7280
  107OSM      N10927   0.445   6.651  11.009  0.2787 -0.5158  0.0590
  107OSM    C1510928   0.525   6.541  10.942  0.4706 -0.5683 -0.6892
  107OSM   H15A10929   0.493   6.453  10.994  0.2755  0.3788  0.8486
  107OSM   H15B10930   0.631   6.558  10.955  0.2531 -0.8311  1.7203
  107OSM   H15C10931   0.500   6.531  10.837 -1.2060 -2.1372 -0.1912
  107OSM    C1410932   0.490   6.657  11.149  0.8960 -0.2792 -0.2122
  107OSM   H14A10933   0.488   6.555  11.184 -1.9238 -0.1727  0.2246
  107OSM   H14B10934   0.426   6.718  11.211  1.3324  0.6590 -0.6582
  107OSM   H14C10935   0.592   6.692  11.147  0.9911 -0.5813 -0.6188
  107OSM    C1310936   0.476   6.785  10.948  0.6262  0.1619  0.4926
  107OSM   H13A10937   0.430   6.789  10.851  0.0173 -0.2779  0.7599
  107OSM   H13B10938   0.581   6.810  10.951  0.4929  0.7669  0.3518
  107OSM   H13C10939   0.417   6.857  11.003 -2.2874 -1.4273 -0.3347
  107OSM    C1210940   0.297   6.634  11.012  0.4504  0.7260 -0.5314
  107OSM   H12A10941   0.249   6.704  11.078  0.0488 -0.7400  0.8033
  107OSM   H12B10942   0.276   6.542  11.065 -0.7394  2.3765  2.0592
  107OSM    C1110943   0.218   6.634  10.880 -0.1237  0.1133  0.1762
  107OSM   H11A10944   0.113   6.602  10.896 -0.2979 -0.1214 -1.3075
  107OSM   H11B10945   0.271   6.556  10.822  0.4341 -0.4021  1.3458
  107OSM      P10946   0.134   6.878  10.852  0.0158  0.1234  0.3366
  107OSM    O1310947   0.001   6.842  10.818  0.7827  0.2427 -0.0568
  107OSM    O1410948   0.152   6.927  10.991  0.8640 -0.0903  0.3806
  107OSM    O1110949   0.188   6.992  10.753  0.3357  0.0947  0.8018
  107OSM    O1210950   0.235   6.761  10.818 -0.0370 -0.5357  0.3008
  107OSM    C1S10951   0.209   6.940  10.617 -0.7473 -0.0286  0.0586
  107OSM    H1S10952   0.113   6.914  10.567 -0.6502 -0.8666  0.2956
  107OSM    H1T10953   0.268   6.846  10.617 -1.3303 -0.3986  0.2736
  107OSM     NF10954   0.317   6.993  10.393 -0.0424  0.0958  0.2296
  107OSM    HNF10955   0.414   6.984  10.370  1.0498  0.4017  4.0150
  107OSM    C2S10956   0.293   7.039  10.528  0.5705  0.1003 -0.3846
  107OSM    H2S10957   0.225   7.126  10.519 -1.8231 -1.3791  2.0775
  107OSM    C3S10958   0.429   7.065  10.591 -0.1216  0.0905 -0.5065
  107OSM    H3S10959   0.485   6.970  10.585 -1.6529 -0.8127 -0.9180
  107OSM     O310960   0.430   7.106  10.727 -0.0262  0.4095 -0.2280
  107OSM    HO310961   0.352   7.076  10.773  0.6957  0.0336  0.7811
  107OSM    C4S10962   0.507   7.164  10.515 -0.1870 -0.9783  0.2963
  107OSM    H4S10963   0.456   7.258  10.488  0.2682 -0.2464  1.8977
  107OSM    C5S10964   0.632   7.154  10.472  0.4153  0.0360  0.5401
  107OSM    H5S10965   0.687   7.059  10.482  2.6887  1.0769 -1.1284
  107OSM    C6S10966   0.702   7.267  10.389 -0.1153 -0.3189 -0.9369
  107OSM    H6S10967   0.782   7.317  10.448 -1.7034  0.4686  0.6653
  107OSM    H6T10968   0.632   7.353  10.380 -0.6371 -0.7630 -1.1612
  107OSM    C7S10969   0.741   7.211  10.256  0.2227 -0.2297 -0.0725
  107OSM    H7S10970   0.642   7.190  10.211 -0.6926  0.2146  1.6568
  107OSM    H7T10971   0.783   7.108  10.265 -1.8281 -1.3802 -2.4173
  107OSM    C8S10972   0.822   7.307  10.163  0.2716  0.2900  0.3682
  107OSM    H8S10973   0.920   7.347  10.196  0.7666 -1.8424  1.7159
  107OSM    H8T10974   0.758   7.398  10.153  1.1494  0.6769 -2.4123
  107OSM    C9S10975   0.850   7.234  10.029  0.2854 -0.4822  0.4382
  107OSM    H9S10976   0.768   7.164  10.002  0.3244 -0.4030  0.1113
  107OSM    H9T10977   0.937   7.167  10.048  1.4624  0.9917  0.4607
  107OSM   C10S10978   0.880   7.334   9.913 -0.0734  0.0254 -0.4320
  107OSM   H10S10979   0.989   7.347   9.899 -0.1222 -0.9990 -1.9828
  107OSM   H10T10980   0.841   7.437   9.930 -0.5320 -0.0984 -0.7199
  107OSM   C11S10981   0.815   7.274   9.789 -0.7559 -0.1074  0.3434
  107OSM   H11S10982   0.706   7.253   9.793 -0.6501 -1.2249 -1.4492
  107OSM   H11T10983   0.848   7.168   9.785 -0.8988 -0.3228  3.1780
  107OSM   C12S10984   0.867   7.341   9.661 -0.4857 -0.3075  0.4292
  107OSM   H12S10985   0.977   7.356   9.659 -0.6142  0.6693  0.1982
  107OSM   H12T10986   0.827   7.444   9.672 -2.0866 -0.8988  0.4092
  107OSM   C13S10987   0.821   7.286   9.526 -0.7264  0.0727  0.5966
  107OSM   H13S10988   0.715   7.298   9.498  0.2994  0.7795 -3.5633
  107OSM   H13T10989   0.828   7.176   9.511 -0.7739 -0.1895  2.2719
  107OSM   C14S10990   0.905   7.356   9.411 -0.0830 -0.9131  0.1886
  107OSM   H14S10991   1.014   7.363   9.429  0.0711  3.9458 -1.2159
  107OSM   H14T10992   0.878   7.463   9.403  0.3949 -0.9338 -3.0391
  107OSM   C15S10993   0.878   7.306   9.268  0.9078  0.1003  0.0406
  107OSM   H15S10994   0.768   7.295   9.255  1.3790 -2.3861 -2.5498
  107OSM   H15T10995   0.918   7.205   9.246  0.7510  0.0217  0.1156
  107OSM   C16S10996   0.934   7.403   9.163 -0.2600 -0.1628  1.3021
  107OSM   H16S10997   1.040   7.428   9.185 -0.4365  3.1756 -0.8918
  107OSM   H16T10998   0.890   7.505   9.162  0.1768  0.1116 -2.1617
  107OSM   C17S10999   0.924   7.348   9.019  0.4100 -0.1426  0.3648
  107OSM   H17S11000   0.819   7.342   8.982  0.9340 -0.3097 -1.2054
  107OSM   H17T11001   0.949   7.240   9.020 -3.0227 -1.0621  0.7532
  107OSM   C18S11002   1.015   7.407   8.912  0.0274 -0.2965 -0.1502
  107OSM   H18S11003   1.119   7.404   8.950 -0.0872 -0.9156  0.1203
  107OSM   H18T11004   0.987   7.512   8.885 -0.7976 -1.1870 -3.1814
  107OSM   H18U11005   0.989   7.341   8.826 -2.3438 -0.7634  0.8513
  107OSM    C1F11006   0.220   6.970  10.306  0.0223 -0.1751  0.6927
  107OSM     OF11007   0.105   6.996  10.344  0.7301 -0.4551  0.3927
  107OSM    C2F11008   0.270   6.931  10.168 -0.2966  0.4414  0.1137
  107OSM    H2F11009   0.324   6.835  10.177  1.4591  1.4566  0.9026
  107OSM    H2G11010   0.329   7.010  10.117 -2.2025  1.5719 -0.4630
  107OSM    C3F11011   0.155   6.906  10.077 -0.2052 -0.2687  0.0984
  107OSM    H3F11012   0.116   7.005  10.046 -2.8863 -0.5799  2.0854
  107OSM    H3G11013   0.083   6.837  10.126 -0.1632 -1.1327 -1.0027
  107OSM    C4F11014   0.186   6.840   9.945 -0.0354  0.1282  0.5928
  107OSM    H4F11015   0.227   6.737   9.951 -0.2207  0.1283  2.3978
  107OSM    H4G11016   0.247   6.908   9.881 -0.3469 -0.5746 -0.4736
  107OSM    C5F11017   0.058   6.824   9.865 -0.6275  0.6745  0.1530
  107OSM    H5F11018   0.008   6.921   9.845  1.0414  1.4034 -0.5777
  107OSM    H5G11019   0.005   6.753   9.932  0.7884  0.5767  1.2157
  107OSM    C6F11020   0.068   6.759   9.732 -0.2805 -0.1214 -0.1560
  107OSM    H6F11021   0.137   6.812   9.663 -1.6634 -2.0159 -3.1880
  107OSM    H6G11022  -0.032   6.776   9.687 -0.1377  2.0611  0.2197
  107OSM    C7F11023   0.106   6.611   9.731  0.0818 -0.3056 -0.2772
  107OSM    H7F11024   0.022   6.563   9.785  1.2925  1.0517  3.1234
  107OSM    H7G11025   0.195   6.581   9.791  0.2524 -0.4179 -0.5822
  107OSM    C8F11026   0.111   6.556   9.583 -0.7738 -0.3666  0.3105
  107OSM    H8F11027   0.013   6.583   9.539 -0.9437 -0.5808  0.5573
  107OSM    H8G11028   0.137   6.449   9.570  1.6316  0.4651 -2.6561
  107OSM    C9F11029   0.214   6.628   9.497 -0.4801  0.6377 -1.2295
  107OSM    H9F11030   0.170   6.704   9.431 -1.0768  1.2215 -0.1846
  107OSM   C10F11031   0.348   6.609   9.490  0.2803  0.0373 -0.0239
  107OSM   H10F11032   0.408   6.682   9.433  0.3622  0.0966  0.1362
  107OSM   C11F11033   0.428   6.517   9.573 -0.0599 -0.2141  0.1727
  107OSM   H11F11034   0.365   6.477   9.655 -1.0190  2.0785  0.6091
  107OSM   H11G11035   0.517   6.566   9.618 -0.0373 -1.9877  2.2048
  107OSM   C12F11036   0.478   6.385   9.491 -0.9065  0.3156  0.8410
  107OSM   H12F11037   0.552   6.415   9.414  0.5050  0.4076  2.1962
  107OSM   H12G11038   0.394   6.344   9.432  1.9102 -1.7219 -2.1022
  107OSM   C13F11039   0.541   6.284   9.589  0.0369 -0.2212  0.1458
  107OSM   H13F11040   0.458   6.246   9.653 -0.7968  0.4199 -0.5175
  107OSM   H13G11041   0.613   6.343   9.651  1.2334 -0.3318 -1.1015
  107OSM   C14F11042   0.602   6.168   9.514 -0.4163  0.0818 -0.5654
  107OSM   H14F11043   0.678   6.214   9.448 -1.4852  3.3356  0.2755
  107OSM   H14G11044   0.537   6.112   9.443  0.4344 -2.0856  0.3074
  107OSM   C15F11045   0.655   6.064   9.611 -0.1325 -0.3316 -0.2423
  107OSM   H15F11046   0.567   6.027   9.666 -0.4481 -1.0107 -1.1828
  107OSM   H15G11047   0.718   6.116   9.687 -2.5914  2.4837  0.0569
  107OSM   C16F11048   0.736   5.943   9.548  0.4838  0.1919 -0.5780
  107OSM   H16F11049   0.682   5.903   9.461  0.5989 -1.5628  0.1180
  107OSM   H16G11050   0.746   5.877   9.637  2.8011  3.8134  2.2132
  107OSM   C17F11051   0.872   5.997   9.509  0.6582  0.4117  0.2383
  107OSM   H17F11052   0.925   6.050   9.591 -0.0655  1.4248  0.0623
  107OSM   H17G11053   0.863   6.084   9.441 -1.4012  0.8662  1.0064
  107OSM   C18F11054   0.947   5.879   9.455 -0.4730 -0.3349 -0.0217
  107OSM   H18F11055   0.896   5.832   9.369 -1.0715 -1.1182  0.7410
  107OSM   H18G11056   0.965   5.800   9.531 -1.8460  1.3112  2.1632
  107OSM   H18H11057   1.050   5.906   9.423 -1.1831  0.5549 -1.6352
  108OSM      N11058   4.864   4.429  10.456 -0.1544 -0.4226 -1.0182
  108OSM    C1511059   4.986   4.516  10.428 -0.8181  0.5577  0.0821
  108OSM   H15A11060   5.062   4.451  10.387 -2.4561 -2.0908  0.9256
  108OSM   H15B11061   5.018   4.555  10.523 -1.7815  2.4009 -0.3035
  108OSM   H15C11062   4.957   4.601  10.368  0.5191  0.0746 -1.3389
  108OSM    C1411063   4.817   4.384  10.327  0.0262  0.1221  0.3402
  108OSM   H14A11064   4.807   4.465  10.257 -2.2685  1.9950  2.6031
  108OSM   H14B11065   4.720   4.337  10.333 -0.5699  0.9881 -1.6391
  108OSM   H14C11066   4.886   4.317  10.279  2.0627  2.9872 -1.0399
  108OSM    C1311067   4.903   4.315  10.543  0.3156  0.1718  0.3327
  108OSM   H13A11068   4.935   4.344  10.642 -1.0741  0.0389  0.8440
  108OSM   H13B11069   4.969   4.243  10.496 -2.6047 -2.5300  0.0899
  108OSM   H13C11070   4.810   4.264  10.562 -0.1924  0.9777  0.0457
  108OSM    C1211071   4.757   4.522  10.519 -0.1037  0.5343 -0.0505
  108OSM   H12A11072   4.772   4.625  10.490 -3.8194  0.9393 -1.0483
  108OSM   H12B11073   4.777   4.512  10.625  0.4962 -2.8397 -0.3953
  108OSM    C1111074   4.612   4.466  10.513  0.1571 -0.1594  0.1829
  108OSM   H11A11075   4.573   4.454  10.410  0.1211  1.2997 -0.0020
  108OSM   H11B11076   4.556   4.545  10.568 -2.7804 -1.8031 -0.2542
  108OSM      P11077   4.462   4.292  10.622  0.1456  0.1658 -0.5719
  108OSM    O1311078   4.474   4.178  10.716 -0.6573  0.0362  0.1946
  108OSM    O1411079   4.373   4.406  10.667  0.2814  0.2148  0.7101
  108OSM    O1111080   4.399   4.231  10.491  0.0721  0.0427  0.3039
  108OSM    O1211081   4.603   4.340  10.582 -0.7223 -0.5970 -0.3472
  108OSM    C1S11082   4.275   4.288  10.447 -0.2021  0.1508  0.2446
  108OSM    H1S11083   4.298   4.392  10.416  1.1966  0.3856  1.8967
  108OSM    H1T11084   4.200   4.281  10.528 -0.9164 -0.7461 -0.4683
  108OSM     NF11085   4.095   4.287  10.298  0.5055  0.2099 -0.1797
  108OSM    HNF11086   4.012   4.267  10.351  0.3960 -0.2232 -0.5135
  108OSM    C2S11087   4.209   4.206  10.330  0.4590 -0.4501 -0.4567
  108OSM    H2S11088   4.280   4.211  10.245  0.8274 -0.2789 -0.1478
  108OSM    C3S11089   4.175   4.063  10.377 -0.0723  0.9288 -0.7491
  108OSM    H3S11090   4.108   4.067  10.466  0.9861  1.8355  0.0392
  108OSM     O311091   4.300   3.998  10.423 -0.1230 -0.2674  0.3197
  108OSM    HO311092   4.355   4.076  10.438 -0.4147  0.0823 -0.3924
  108OSM    C4S11093   4.123   3.991  10.262  0.0170  0.3642 -0.2117
  108OSM    H4S11094   4.014   4.003  10.251 -0.2647 -0.9080  0.9708
  108OSM    C5S11095   4.181   3.911  10.170 -0.0983  0.2832  0.1896
  108OSM    H5S11096   4.290   3.896  10.180  0.1517  1.7239 -0.1990
  108OSM    C6S11097   4.121   3.855  10.048 -0.6253 -0.7793  0.0252
  108OSM    H6S11098   4.011   3.872  10.047 -0.4719  0.2328 -1.2387
  108OSM    H6T11099   4.152   3.748  10.037  3.3246  0.1610  0.4361
  108OSM    C7S11100   4.161   3.940   9.921 -0.0709 -0.5012 -0.0091
  108OSM    H7S11101   4.269   3.930   9.897 -0.2993 -3.0999 -0.1944
  108OSM    H7T11102   4.148   4.049   9.940 -0.6531 -0.4496 -0.6563
  108OSM    C8S11103   4.073   3.898   9.802 -0.6444  0.5142  0.3250
  108OSM    H8S11104   3.967   3.927   9.820 -0.7428  1.4400 -1.4430
  108OSM    H8T11105   4.076   3.787   9.797  2.3823  0.5560 -0.8372
  108OSM    C9S11106   4.110   3.966   9.667  0.2384  0.4283  0.4084
  108OSM    H9S11107   4.212   3.937   9.634  0.0700  2.9707 -2.8194
  108OSM    H9T11108   4.093   4.075   9.681 -0.3372  0.3822  0.1004
  108OSM   C10S11109   4.004   3.936   9.558 -0.6665 -0.2030  0.2806
  108OSM   H10S11110   3.902   3.960   9.595 -0.1108  1.0801  1.0167
  108OSM   H10T11111   4.001   3.827   9.536 -0.6665 -0.1138 -0.1700
  108OSM   C11S11112   4.045   4.020   9.438  0.1785 -0.9911  0.4190
  108OSM   H11S11113   4.146   3.990   9.404  1.6416  2.1276  1.6602
  108OSM   H11T11114   4.042   4.131   9.445 -2.0751 -1.0527  1.2390
  108OSM   C12S11115   3.945   4.002   9.320 -0.6515 -0.1390 -0.8188
  108OSM   H12S11116   3.847   4.052   9.337 -1.3975 -1.4856 -1.0483
  108OSM   H12T11117   3.924   3.893   9.318 -1.0703 -0.1178  0.8693
  108OSM   C13S11118   4.015   4.039   9.189  0.6582  0.3317 -0.2923
  108OSM   H13S11119   4.111   3.983   9.181  1.3300  1.3481  0.4424
  108OSM   H13T11120   4.036   4.147   9.180 -0.6609  0.7183  0.9175
  108OSM   C14S11121   3.940   3.988   9.062 -0.0041 -0.5255  0.0204
  108OSM   H14S11122   3.852   4.052   9.042  0.6465 -0.2456 -2.1777
  108OSM   H14T11123   3.906   3.882   9.070 -0.3050 -0.3130  2.0767
  108OSM   C15S11124   4.011   4.008   8.922 -0.0415  0.6371 -0.3302
  108OSM   H15S11125   4.096   3.938   8.906  0.3600  0.7006  1.2953
  108OSM   H15T11126   4.059   4.106   8.900  0.4655 -0.0049 -2.3082
  108OSM   C16S11127   3.907   3.978   8.816  0.3550 -0.5489  0.1595
  108OSM   H16S11128   3.811   4.032   8.825 -0.7840 -2.1571 -1.6096
  108OSM   H16T11129   3.872   3.875   8.839 -0.1630 -0.2711  0.6279
  108OSM   C17S11130   3.958   3.964   8.669 -0.3064 -0.3704 -1.2915
  108OSM   H17S11131   4.038   3.888   8.671 -1.7061 -1.9103 -1.1251
  108OSM   H17T11132   3.997   4.062   8.633 -1.4523  1.3123  1.7111
  108OSM   C18S11133   3.854   3.905   8.579  0.8254 -0.7576 -0.5237
  108OSM   H18S11134   3.914   3.872   8.491 -0.4791 -0.9554 -1.3715
  108OSM   H18T11135   3.791   3.989   8.542  2.5319 -0.0180 -1.9149
  108OSM   H18U11136   3.802   3.820   8.627  0.7818 -1.4285 -1.7195
  108OSM    C1F11137   4.092   4.401  10.223 -0.3314  0.1280 -0.5244
  108OSM     OF11138   4.193   4.455  10.186 -0.3468  0.0193  0.9143
  108OSM    C2F11139   3.958   4.460  10.194  0.2513  0.5841 -0.7470
  108OSM    H2F11140   3.960   4.571  10.200 -1.6729  0.5624  1.1647
  108OSM    H2G11141   3.876   4.421  10.258  1.6017  0.3015  0.8950
  108OSM    C3F11142   3.915   4.429  10.050  0.4796  0.7071 -0.3250
  108OSM    H3F11143   3.998   4.452   9.980  0.7472 -0.2090 -0.3231
  108OSM    H3G11144   3.815   4.475  10.037 -0.3889 -1.3597 -1.4724
  108OSM    C4F11145   3.888   4.274  10.020 -0.4786 -0.2568  0.1265
  108OSM    H4F11146   3.845   4.231  10.113 -0.7998  0.8820  0.5199
  108OSM    H4G11147   3.991   4.234  10.010 -0.5142 -0.3326  0.0639
  108OSM    C5F11148   3.804   4.265   9.894  0.4575  0.2749  0.2632
  108OSM    H5F11149   3.707   4.317   9.908 -0.3306 -0.7808 -1.0427
  108OSM    H5G11150   3.771   4.161   9.875  1.1991  0.3714 -1.7353
  108OSM    C6F11151   3.868   4.319   9.762 -0.7188 -0.1686  0.4392
  108OSM    H6F11152   3.963   4.263   9.750 -0.7218 -0.2365  0.7097
  108OSM    H6G11153   3.893   4.427   9.773  0.5592 -0.3187 -0.7890
  108OSM    C7F11154   3.799   4.280   9.637 -0.7347 -0.3943 -0.0256
  108OSM    H7F11155   3.692   4.309   9.645 -0.3377  1.0235  0.2950
  108OSM    H7G11156   3.800   4.169   9.633 -0.8965 -0.4346  0.8783
  108OSM    C8F11157   3.851   4.354   9.504 -0.2701  0.1325  0.0925
  108OSM    H8F11158   3.807   4.294   9.422  0.3462 -3.6992  2.3444
  108OSM    H8G11159   3.960   4.335   9.495 -0.2526 -0.0572  0.6464
  108OSM    C9F11160   3.830   4.503   9.473 -0.3335 -0.4277 -0.4287
  108OSM    H9F11161   3.848   4.574   9.555 -1.7437 -0.7433  0.1828
  108OSM   C10F11162   3.768   4.553   9.364 -0.0516  0.3204 -0.4235
  108OSM   H10F11163   3.766   4.662   9.355  0.0096  0.3166 -0.4790
  108OSM   C11F11164   3.724   4.469   9.247 -0.1550  0.7943  0.0994
  108OSM   H11F11165   3.642   4.528   9.201  0.7608  1.0102 -1.3155
  108OSM   H11G11166   3.689   4.366   9.270  2.0321  0.0025  0.1606
  108OSM   C12F11167   3.840   4.453   9.138  0.4858  0.0571 -0.5458
  108OSM   H12F11168   3.800   4.377   9.069 -1.9448  0.8612 -0.1057
  108OSM   H12G11169   3.927   4.404   9.189 -0.6622 -0.2719  1.1933
  108OSM   C13F11170   3.876   4.585   9.068 -1.1369 -0.2964  0.1695
  108OSM   H13F11171   3.905   4.663   9.142 -1.8310 -0.2654  0.4207
  108OSM   H13G11172   3.799   4.625   8.999  0.3506 -1.6677 -2.4345
  108OSM   C14F11173   3.987   4.549   8.973 -0.0400  0.6616 -0.1026
  108OSM   H14F11174   3.953   4.472   8.901  1.1264 -0.4999  0.5521
  108OSM   H14G11175   4.073   4.499   9.022  0.4281  0.1768 -1.3856
  108OSM   C15F11176   4.040   4.664   8.891 -0.2703 -0.3412  0.1424
  108OSM   H15F11177   4.069   4.755   8.949 -0.0008 -0.2513 -0.1318
  108OSM   H15G11178   3.958   4.699   8.825  0.7518  1.7191 -0.1333
  108OSM   C16F11179   4.173   4.634   8.815 -0.3768 -1.1354  0.1799
  108OSM   H16F11180   4.243   4.588   8.889 -0.5638 -1.8738 -0.0993
  108OSM   H16G11181   4.214   4.730   8.776  3.1115 -1.7828  1.8098
  108OSM   C17F11182   4.143   4.544   8.694 -0.4503  0.4267  0.4914
  108OSM   H17F11183   4.055   4.584   8.640  0.7259 -0.4526 -2.3005
  108OSM   H17G11184   4.127   4.441   8.733 -0.0132  0.7544  1.5663
  108OSM   C18F11185   4.251   4.544   8.582  0.0979 -0.2344  0.1923
  108OSM   H18F11186   4.211   4.519   8.482 -0.1227 -1.0166  0.4664
  108OSM   H18G11187   4.342   4.484   8.605  0.3224 -2.1182 -4.5239
  108OSM   H18H11188   4.300   4.643   8.570 -2.5847  1.0055 -1.2749
  109OSM      N11189   6.521   5.025  10.895 -0.2968  0.4369 -0.3421
  109OSM    C1511190   6.640   5.071  10.971  0.5170  0.0234 -0.3097
  109OSM   H15A11191   6.613   5.074  11.076  0.5006  1.0719 -0.3359
  109OSM   H15B11192   6.654   5.177  10.961 -1.0645  0.2474 -0.3299
  109OSM   H15C11193   6.734   5.020  10.953  0.8677  0.2675  0.7517
  109OSM    C1411194   6.472   4.891  10.939  0.2063 -0.3747  0.3750
  109OSM   H14A11195   6.377   4.863  10.897 -0.8790 -0.9765  3.0130
  109OSM   H14B11196   6.453   4.893  11.046  3.2097  1.7553  1.0224
  109OSM   H14C11197   6.546   4.819  10.908 -0.6874 -1.0205 -0.2823
  109OSM    C1311198   6.404   5.120  10.938 -0.1294  0.4208  0.1918
  109OSM   H13A11199   6.436   5.220  10.914  1.5910  0.3773  2.0180
  109OSM   H13B11200   6.375   5.106  11.041 -0.9276 -3.6518 -0.4219
  109OSM   H13C11201   6.321   5.099  10.873  1.8503 -1.9367 -1.7742
  109OSM    C1211202   6.543   5.035  10.749  0.5086 -0.0869 -0.7055
  109OSM   H12A11203   6.639   4.991  10.724  0.8431  0.9093 -1.2381
  109OSM   H12B11204   6.552   5.141  10.728  1.3771 -0.0343 -0.1530
  109OSM    C1111205   6.432   4.969  10.656  0.1312  0.1529 -0.4194
  109OSM   H11A11206   6.460   5.009  10.556  2.3358  0.9224  0.4646
  109OSM   H11B11207   6.334   5.018  10.677  0.0250  0.9277 -2.4502
  109OSM      P11208   6.336   4.726  10.584 -0.0125 -0.0553 -0.2307
  109OSM    O1311209   6.420   4.645  10.497 -0.7263 -0.3943  0.3441
  109OSM    O1411210   6.258   4.653  10.684 -0.4851 -0.3611 -0.5449
  109OSM    O1111211   6.241   4.813  10.497  0.3303  0.8301 -0.1584
  109OSM    O1211212   6.425   4.826  10.655  0.0678 -0.2320  0.5796
  109OSM    C1S11213   6.283   4.870  10.372  0.4581  0.3034  0.7063
  109OSM    H1S11214   6.392   4.865  10.353  0.9707 -0.7926  3.5164
  109OSM    H1T11215   6.270   4.979  10.392  0.6328  0.2062  1.3747
  109OSM     NF11216   6.229   4.867  10.135  0.4009  0.1222  0.5732
  109OSM    HNF11217   6.189   4.957  10.118  0.0578  0.2515  2.0052
  109OSM    C2S11218   6.197   4.805  10.260 -0.1996 -0.0685  0.1057
  109OSM    H2S11219   6.217   4.696  10.249 -1.5320 -0.5864  2.2490
  109OSM    C3S11220   6.046   4.789  10.299 -0.5150 -0.9028  0.4390
  109OSM    H3S11221   6.021   4.895  10.319  0.2288 -0.5696 -0.3637
  109OSM     O311222   6.017   4.708  10.413 -0.9666  0.1219  0.1134
  109OSM    HO311223   6.104   4.700  10.453 -0.8374  0.9542  0.0349
  109OSM    C4S11224   5.962   4.729  10.194  0.4234 -0.7854  0.4060
  109OSM    H4S11225   6.003   4.638  10.148  1.0720  0.5335 -1.8129
  109OSM    C5S11226   5.849   4.786  10.145 -0.2731 -0.6107 -0.0599
  109OSM    H5S11227   5.821   4.884  10.185 -0.8462 -2.1218  3.6251
  109OSM    C6S11228   5.773   4.718  10.034 -0.7809  0.2208 -0.6161
  109OSM    H6S11229   5.666   4.744  10.048 -0.8100 -0.0799 -0.2790
  109OSM    H6T11230   5.785   4.608  10.041 -2.9068 -0.0171 -0.2480
  109OSM    C7S11231   5.832   4.761   9.902  0.1973  0.0362 -0.1316
  109OSM    H7S11232   5.940   4.739   9.905 -0.3150 -2.6882  1.3305
  109OSM    H7T11233   5.823   4.869   9.877  0.3083 -0.6074 -3.3443
  109OSM    C8S11234   5.772   4.670   9.787 -0.4039 -0.0740  0.8666
  109OSM    H8S11235   5.663   4.647   9.791 -0.1680 -1.9302 -1.4189
  109OSM    H8T11236   5.814   4.569   9.808  0.6682  0.5302  1.7182
  109OSM    C9S11237   5.797   4.728   9.644  0.5970  0.0372 -0.0476
  109OSM    H9S11238   5.905   4.750   9.627  1.1758 -0.9283  2.0193
  109OSM    H9T11239   5.731   4.815   9.626  1.2714  0.2663 -1.6007
  109OSM   C10S11240   5.770   4.615   9.544  0.1094 -0.2075 -0.2852
  109OSM   H10S11241   5.664   4.618   9.512  0.1590  0.3261 -0.4079
  109OSM   H10T11242   5.791   4.513   9.583 -0.0941  0.4344  1.6105
  109OSM   C11S11243   5.847   4.625   9.412  0.5057  0.3016 -0.2788
  109OSM   H11S11244   5.956   4.627   9.433  0.1839  2.8303  1.7364
  109OSM   H11T11245   5.829   4.729   9.379  2.0051  0.8188  0.4531
  109OSM   C12S11246   5.809   4.519   9.310  0.0089  0.1850 -0.0826
  109OSM   H12S11247   5.698   4.517   9.317 -0.1168  1.2517 -1.4116
  109OSM   H12T11248   5.831   4.418   9.349 -0.2303  0.0557 -0.2786
  109OSM   C13S11249   5.866   4.545   9.167 -0.3966 -0.6932  0.6852
  109OSM   H13S11250   5.976   4.548   9.185 -0.3484 -0.1952  0.3354
  109OSM   H13T11251   5.852   4.651   9.136  2.9135  0.1607  1.6711
  109OSM   C14S11252   5.823   4.436   9.065 -0.2564  0.1179 -0.3357
  109OSM   H14S11253   5.713   4.451   9.056 -0.1648  0.0876 -1.8512
  109OSM   H14T11254   5.850   4.336   9.104 -0.8996  0.4236  0.9609
  109OSM   C15S11255   5.872   4.452   8.920 -0.1415 -0.9365  0.1690
  109OSM   H15S11256   5.981   4.433   8.911  0.2554  0.6041  1.1953
  109OSM   H15T11257   5.859   4.558   8.889 -0.8079 -1.1978 -0.4639
  109OSM   C16S11258   5.799   4.369   8.826 -0.1929 -0.5277 -0.0685
  109OSM   H16S11259   5.690   4.388   8.828 -0.1599 -0.3555  0.0900
  109OSM   H16T11260   5.825   4.266   8.860  1.1307 -0.0341  0.5052
  109OSM   C17S11261   5.846   4.378   8.678  0.4297  0.0535  0.0783
  109OSM   H17S11262   5.951   4.341   8.672  0.5827  0.3065  1.0964
  109OSM   H17T11263   5.854   4.488   8.663  0.0012  0.2866  1.4318
  109OSM   C18S11264   5.745   4.315   8.582 -0.2439 -0.8567  0.4899
  109OSM   H18S11265   5.642   4.303   8.623  0.0617 -2.2451  0.9022
  109OSM   H18T11266   5.763   4.208   8.559  2.0895 -0.4902  0.4307
  109OSM   H18U11267   5.741   4.383   8.494  0.3708 -0.5536  0.6981
  109OSM    C1F11268   6.337   4.839  10.071  0.8353 -0.0572 -0.2383
  109OSM     OF11269   6.416   4.758  10.117  0.1939 -0.2916 -0.6331
  109OSM    C2F11270   6.355   4.932   9.955 -0.7252 -0.0815  0.4371
  109OSM    H2F11271   6.453   4.985   9.967 -1.1939  1.4437 -1.9320
  109OSM    H2G11272   6.277   5.010   9.957 -1.3327 -0.6729  0.1271
  109OSM    C3F11273   6.349   4.862   9.816  0.8507 -0.5311 -0.0066
  109OSM    H3F11274   6.265   4.789   9.809  0.0721  0.4716 -1.4366
  109OSM    H3G11275   6.442   4.805   9.796 -0.4826 -2.0747 -2.3217
  109OSM    C4F11276   6.339   4.948   9.690 -0.5271  0.1303 -0.2502
  109OSM    H4F11277   6.430   5.011   9.685 -0.0225 -0.4403  1.0638
  109OSM    H4G11278   6.249   5.012   9.693 -0.6183 -0.0376  1.1615
  109OSM    C5F11279   6.334   4.859   9.559  0.2640 -0.0563 -0.8852
  109OSM    H5F11280   6.306   4.929   9.478  0.7496 -0.4553 -1.4014
  109OSM    H5G11281   6.244   4.794   9.568  0.5025 -0.1724  1.5022
  109OSM    C6F11282   6.466   4.794   9.515 -0.3840 -0.4174 -0.0296
  109OSM    H6F11283   6.487   4.693   9.558  1.0312 -0.9300 -1.8068
  109OSM    H6G11284   6.558   4.855   9.526  0.1010 -1.4473  2.5935
  109OSM    C7F11285   6.456   4.775   9.360 -0.3378 -0.3469  0.6387
  109OSM    H7F11286   6.353   4.781   9.321 -0.1414 -0.0052  0.1612
  109OSM    H7G11287   6.490   4.674   9.328 -1.7393 -1.0149  1.1887
  109OSM    C8F11288   6.530   4.886   9.273 -0.1146  0.3187 -0.4767
  109OSM    H8F11289   6.516   4.979   9.333  0.8025 -0.3252  0.7771
  109OSM    H8G11290   6.462   4.894   9.185 -1.9457  2.7178  1.0032
  109OSM    C9F11291   6.678   4.861   9.262  0.3888 -0.9417  0.0740
  109OSM    H9F11292   6.741   4.865   9.352 -0.5949 -0.0500  0.7456
  109OSM   C10F11293   6.738   4.877   9.141 -0.5776  0.2510  0.3603
  109OSM   H10F11294   6.842   4.853   9.117 -1.1046 -0.2533 -1.5552
  109OSM   C11F11295   6.668   4.929   9.015 -0.2996 -0.0071 -0.5867
  109OSM   H11F11296   6.560   4.950   9.026 -0.4157 -1.2210  0.7462
  109OSM   H11G11297   6.672   4.847   8.939  0.3313  1.4333 -2.1888
  109OSM   C12F11298   6.727   5.055   8.954  0.7268 -0.1633 -0.1328
  109OSM   H12F11299   6.835   5.077   8.969  0.2155  1.9283  0.8094
  109OSM   H12G11300   6.691   5.153   8.993 -0.0226 -0.1388 -0.8673
  109OSM   C13F11301   6.686   5.075   8.809 -0.2931 -0.0203 -0.0850
  109OSM   H13F11302   6.575   5.082   8.804 -0.2078  0.9498 -0.8905
  109OSM   H13G11303   6.715   4.987   8.748 -0.7353  0.0407 -0.3891
  109OSM   C14F11304   6.760   5.189   8.737 -0.2732 -0.4702 -0.2243
  109OSM   H14F11305   6.719   5.204   8.635 -0.2144  0.5092 -0.1129
  109OSM   H14G11306   6.867   5.163   8.725  0.3558  2.2940 -1.3904
  109OSM   C15F11307   6.763   5.319   8.809 -0.4758 -1.0302  0.0144
  109OSM   H15F11308   6.830   5.303   8.897  2.2575 -1.2663 -1.9845
  109OSM   H15G11309   6.661   5.347   8.844 -0.1290  0.9451 -0.4474
  109OSM   C16F11310   6.823   5.440   8.732 -0.0264 -0.6672  0.0124
  109OSM   H16F11311   6.769   5.446   8.635  0.6000 -2.6045 -0.5155
  109OSM   H16G11312   6.924   5.411   8.696  0.5064  1.6055 -0.4869
  109OSM   C17F11313   6.833   5.568   8.808  0.0059  0.1230  0.8369
  109OSM   H17F11314   6.749   5.569   8.882 -0.3919  1.9293  0.4244
  109OSM   H17G11315   6.815   5.659   8.746  3.5347  0.3983  0.0361
  109OSM   C18F11316   6.959   5.587   8.885 -0.1174 -0.4978  0.1291
  109OSM   H18F11317   6.979   5.506   8.958  0.1044  0.5774  1.2975
  109OSM   H18G11318   6.950   5.682   8.942  0.5981  1.2442 -2.4526
  109OSM   H18H11319   7.046   5.588   8.816  0.8421 -1.1499  1.3059
  110OSM      N11320   0.268   4.370  11.064 -0.4758  0.3571 -1.0514
  110OSM    C1511321   0.339   4.248  11.018 -0.0938 -0.0119  0.2931
  110OSM   H15A11322   0.413   4.282  10.947 -0.7506  2.6210  0.7627
  110OSM   H15B11323   0.271   4.183  10.965  0.9791  0.0722 -1.2683
  110OSM   H15C11324   0.384   4.191  11.099 -0.0282  0.5312  0.6465
  110OSM    C1411325   0.361   4.451  11.149 -0.1170 -0.4782 -0.6424
  110OSM   H14A11326   0.309   4.529  11.202  1.7565 -1.2927  2.6474
  110OSM   H14B11327   0.448   4.497  11.103 -0.6745  1.0786 -0.2098
  110OSM   H14C11328   0.396   4.384  11.226 -0.0487  0.0716 -0.1867
  110OSM    C1311329   0.223   4.455  10.944 -0.4925 -0.6566  0.0782
  110OSM   H13A11330   0.180   4.550  10.969  1.5210 -0.2183  2.2144
  110OSM   H13B11331   0.157   4.394  10.883 -0.8263 -1.2257  0.9884
  110OSM   H13C11332   0.313   4.474  10.887  0.8195  1.4525  2.6805
  110OSM    C1211333   0.151   4.337  11.154  0.0758  0.0157  0.1769
  110OSM   H12A11334   0.100   4.430  11.176  0.1393  0.5570 -1.7360
  110OSM   H12B11335   0.182   4.286  11.244  0.0469 -5.1594 -2.3598
  110OSM    C1111336   0.045   4.245  11.091 -0.1922  0.2276 -0.2140
  110OSM   H11A11337  -0.043   4.236  11.158 -0.2912  2.3063 -0.0164
  110OSM   H11B11338   0.094   4.145  11.097 -1.9707 -0.7057 -0.5832
  110OSM      P11339  -0.121   4.193  10.898  0.4803  0.2412 -0.3974
  110OSM    O1311340  -0.150   4.063  10.970 -0.3341 -0.3521  0.3949
  110OSM    O1411341  -0.224   4.300  10.914  0.3426  0.3431  0.0860
  110OSM    O1111342  -0.093   4.179  10.742 -0.0585  0.2665 -0.0766
  110OSM    O1211343   0.008   4.269  10.957  0.4218 -0.1297  0.2587
  110OSM    C1S11344   0.016   4.248  10.673  0.2654 -0.5469  0.1804
  110OSM    H1S11345   0.105   4.227  10.735 -1.0390 -0.4251  2.1860
  110OSM    H1T11346  -0.013   4.356  10.678 -1.4330 -1.0167  3.9085
  110OSM     NF11347   0.152   4.259  10.487  0.2386  0.1081  0.0121
  110OSM    HNF11348   0.132   4.330  10.420 -0.9887 -2.2272 -2.3224
  110OSM    C2S11349   0.037   4.184  10.537  0.6653 -0.7790 -0.4288
  110OSM    H2S11350   0.075   4.080  10.553  0.6724 -0.5376  1.2666
  110OSM    C3S11351  -0.087   4.187  10.442  0.4644  0.3617 -0.0875
  110OSM    H3S11352  -0.115   4.293  10.424  1.7727  1.0554  1.6583
  110OSM     O311353  -0.201   4.115  10.496  0.1442 -0.2360  0.3444
  110OSM    HO311354  -0.189   4.110  10.592 -1.8644  1.9537  0.7975
  110OSM    C4S11355  -0.049   4.121  10.309 -0.3440 -0.4322  0.5296
  110OSM    H4S11356   0.012   4.030  10.317  1.7941  0.8876  0.0111
  110OSM    C5S11357  -0.081   4.171  10.186  0.1028 -0.2650 -0.5814
  110OSM    H5S11358  -0.136   4.267  10.182 -1.2028 -0.9811 -0.5077
  110OSM    C6S11359  -0.035   4.110  10.056  0.4731  0.7485  0.2832
  110OSM    H6S11360   0.017   4.012  10.063  0.5181  0.4031 -3.2160
  110OSM    H6T11361   0.025   4.190  10.008  1.8088  0.5202  1.5209
  110OSM    C7S11362  -0.142   4.101   9.958 -0.4845 -0.7259 -0.0845
  110OSM    H7S11363  -0.189   4.201   9.950  1.0023 -0.0164 -0.2639
  110OSM    H7T11364  -0.210   4.022   9.999  0.7544 -1.0663  1.4040
  110OSM    C8S11365  -0.101   4.059   9.820 -0.1039 -0.8217  0.1239
  110OSM    H8S11366  -0.044   3.964   9.831  2.1824  0.7843  4.1563
  110OSM    H8T11367  -0.017   4.127   9.792  0.7711 -0.9871  2.1856
  110OSM    C9S11368  -0.212   4.042   9.717  0.5282 -0.4343  0.1335
  110OSM    H9S11369  -0.255   4.145   9.711  0.4365 -0.4630  0.3124
  110OSM    H9T11370  -0.288   3.970   9.752  2.2780 -1.5592  1.8264
  110OSM   C10S11371  -0.160   4.020   9.571  0.1045 -0.1183 -0.1293
  110OSM   H10S11372  -0.106   3.923   9.567 -0.8181 -0.6310 -0.4769
  110OSM   H10T11373  -0.095   4.107   9.548 -1.0842  0.9027  0.2511
  110OSM   C11S11374  -0.264   4.009   9.464 -0.1316  0.4744  0.0844
  110OSM   H11S11375  -0.306   4.111   9.448  0.5241  0.4682 -1.8839
  110OSM   H11T11376  -0.342   3.940   9.503  0.8539 -0.2108  0.8918
  110OSM   C12S11377  -0.217   3.954   9.325 -0.3158  0.9718 -0.0096
  110OSM   H12S11378  -0.302   3.963   9.254 -1.1692 -0.4133  0.7897
  110OSM   H12T11379  -0.199   3.845   9.341 -1.9841  0.7962  0.9087
  110OSM   C13S11380  -0.103   4.022   9.256  0.5702 -0.3840 -0.8476
  110OSM   H13S11381  -0.010   4.001   9.314  1.0379 -0.0842 -1.4795
  110OSM   H13T11382  -0.132   4.129   9.250  0.7855 -0.3918 -2.5263
  110OSM   C14S11383  -0.072   3.970   9.109  0.5604 -0.0002 -0.4844
  110OSM   H14S11384  -0.081   3.860   9.121 -1.5495  0.2433  0.7209
  110OSM   H14T11385   0.030   4.002   9.081 -0.1539  3.6846  0.5441
  110OSM   C15S11386  -0.168   4.021   9.006  0.0326 -0.0202  0.4025
  110OSM   H15S11387  -0.176   4.131   9.022 -0.0144 -0.1016  0.9812
  110OSM   H15T11388  -0.271   3.979   9.011  0.4166 -1.3424 -1.6073
  110OSM   C16S11389  -0.129   3.986   8.854  0.8244 -0.6250  0.0333
  110OSM   H16S11390  -0.101   3.879   8.845 -0.7431 -0.9070 -2.9541
  110OSM   H16T11391  -0.041   4.049   8.830 -1.0231  1.2611 -2.4079
  110OSM   C17S11392  -0.253   4.016   8.763  0.2938 -0.0100 -0.4725
  110OSM   H17S11393  -0.282   4.121   8.786 -0.9849 -0.8963  2.4000
  110OSM   H17T11394  -0.336   3.957   8.807  1.7458 -0.7622  1.4024
  110OSM   C18S11395  -0.235   3.998   8.614  0.6408 -0.0055 -0.7500
  110OSM   H18S11396  -0.184   3.902   8.589  0.3300 -0.7217  1.2165
  110OSM   H18T11397  -0.164   4.072   8.571  0.3293  0.5617 -0.2957
  110OSM   H18U11398  -0.332   4.011   8.561  0.6298 -0.2294 -0.7889
  110OSM    C1F11399   0.276   4.252  10.534 -0.0960  0.0633  0.1780
  110OSM     OF11400   0.313   4.170  10.619  0.1480 -0.7130 -0.4380
  110OSM    C2F11401   0.370   4.339  10.462 -0.4701 -0.6356 -0.4430
  110OSM    H2F11402   0.422   4.398  10.540 -1.6237  0.5720 -0.5415
  110OSM    H2G11403   0.323   4.427  10.412  0.1846  1.1565  1.9024
  110OSM    C3F11404   0.467   4.253  10.384 -0.1471  0.3705  0.5693
  110OSM    H3F11405   0.514   4.170  10.442  1.1959  1.0426  0.4788
  110OSM    H3G11406   0.552   4.317  10.354 -0.4925  2.0310  2.8310
  110OSM    C4F11407   0.409   4.199  10.253  0.0197 -0.1095  0.0021
  110OSM    H4F11408   0.344   4.285  10.227  1.3597  1.1002  0.4962
  110OSM    H4G11409   0.335   4.118  10.268 -0.8965  0.3952 -1.5238
  110OSM    C5F11410   0.514   4.182  10.139 -0.7852 -0.9000 -0.3484
  110OSM    H5F11411   0.570   4.092  10.173 -0.0345 -0.0147  0.8476
  110OSM    H5G11412   0.573   4.276  10.132 -1.6760 -0.1098  1.9466
  110OSM    C6F11413   0.466   4.146   9.995 -0.2956 -0.6585 -0.0697
  110OSM    H6F11414   0.556   4.155   9.930  0.0451 -2.5202  0.0979
  110OSM    H6G11415   0.392   4.219   9.955 -1.5690  0.0857  3.3093
  110OSM    C7F11416   0.425   4.002   9.975  0.4838 -0.0182  0.6936
  110OSM    H7F11417   0.331   3.978  10.029 -0.0735 -1.4634 -0.8194
  110OSM    H7G11418   0.507   3.937  10.015  0.7826 -0.0225  0.0873
  110OSM    C8F11419   0.412   3.970   9.823 -0.5220 -1.0346  0.0711
  110OSM    H8F11420   0.403   3.859   9.825  1.0361 -1.2339  3.6611
  110OSM    H8G11421   0.500   4.003   9.764 -1.5024 -1.9591 -2.0316
  110OSM    C9F11422   0.292   4.047   9.771 -0.0652  0.2290  0.8749
  110OSM    H9F11423   0.211   4.069   9.842 -2.0085 -2.1618 -0.4401
  110OSM   C10F11424   0.278   4.074   9.634 -0.1028  0.1175  0.1089
  110OSM   H10F11425   0.188   4.131   9.605 -0.0434  0.6460  0.9038
  110OSM   C11F11426   0.372   4.037   9.523 -0.1648 -0.6633 -0.0311
  110OSM   H11F11427   0.436   3.956   9.563  0.2225 -0.5783 -0.4713
  110OSM   H11G11428   0.433   4.124   9.489  0.3538 -1.1931 -0.4751
  110OSM   C12F11429   0.291   3.995   9.396  0.2954 -0.1830 -0.1365
  110OSM   H12F11430   0.230   4.077   9.351 -1.2125 -1.5995 -0.7823
  110OSM   H12G11431   0.221   3.912   9.418  1.4088 -1.1547 -0.1713
  110OSM   C13F11432   0.392   3.925   9.298 -0.6759 -0.3716 -0.2371
  110OSM   H13F11433   0.337   3.849   9.238 -2.3746 -0.5862  1.4911
  110OSM   H13G11434   0.459   3.863   9.363  0.3230  0.4170 -0.4764
  110OSM   C14F11435   0.474   4.020   9.202  0.4535  0.1417  0.1819
  110OSM   H14F11436   0.563   3.963   9.168 -0.2682 -0.9504  0.0745
  110OSM   H14G11437   0.508   4.104   9.267 -0.3422 -0.3852  1.2899
  110OSM   C15F11438   0.396   4.081   9.077 -0.5510 -0.0067 -0.2082
  110OSM   H15F11439   0.455   4.168   9.042 -1.5098 -0.1358 -2.2533
  110OSM   H15G11440   0.303   4.128   9.114 -0.5084  1.2662 -1.6484
  110OSM   C16F11441   0.373   3.979   8.960 -0.0442 -0.0908 -0.6291
  110OSM   H16F11442   0.306   3.901   9.003  1.3967  0.2472  2.5218
  110OSM   H16G11443   0.476   3.938   8.948  0.2919  0.4000  0.4627
  110OSM   C17F11444   0.305   4.045   8.837 -0.6211 -0.4899 -1.5040
  110OSM   H17F11445   0.375   4.117   8.789 -0.0724 -0.5698 -0.8328
  110OSM   H17G11446   0.222   4.097   8.888  0.0899 -0.6307 -0.1460
  110OSM   C18F11447   0.245   3.942   8.743 -0.6442  0.3240 -0.2586
  110OSM   H18F11448   0.197   3.994   8.657 -0.5787  0.3182 -0.2984
  110OSM   H18G11449   0.178   3.874   8.800  1.3908 -3.1334 -1.6630
  110OSM   H18H11450   0.326   3.873   8.710 -1.3843 -0.7579  0.1111
  111OSM      N11451   0.609   1.874  10.717  0.0167  0.0550 -0.0092
  111OSM    C1511452   0.560   1.884  10.860  0.4820  0.0025 -1.0529
  111OSM   H15A11453   0.524   1.982  10.890  0.7366 -0.0895 -0.4288
  111OSM   H15B11454   0.647   1.868  10.922  1.0752  2.8735 -0.9828
  111OSM   H15C11455   0.478   1.817  10.882  0.5707  0.5698  1.3284
  111OSM    C1411456   0.677   2.002  10.684  0.0731 -0.0165  0.3520
  111OSM   H14A11457   0.733   2.005  10.592 -1.4213  1.6001 -0.5618
  111OSM   H14B11458   0.752   2.034  10.755  0.0322 -1.7370  1.2142
  111OSM   H14C11459   0.608   2.085  10.674 -1.3510 -1.3055 -0.9270
  111OSM    C1311460   0.699   1.768  10.684  0.4483  0.3360 -1.0907
  111OSM   H13A11461   0.791   1.765  10.741  0.7799  1.4501 -1.5319
  111OSM   H13B11462   0.721   1.773  10.578  1.1406 -0.2082 -0.9835
  111OSM   H13C11463   0.648   1.676  10.710 -0.7052  1.6446  1.6379
  111OSM    C1211464   0.489   1.867  10.619 -0.4990  0.0280 -0.4559
  111OSM   H12A11465   0.522   1.908  10.525 -4.0586 -2.6924 -3.1739
  111OSM   H12B11466   0.402   1.923  10.651 -0.7739 -0.6748  0.0596
  111OSM    C1111467   0.425   1.734  10.571 -0.1174 -0.3209 -0.0360
  111OSM   H11A11468   0.508   1.679  10.522  0.3457 -0.8064  1.2549
  111OSM   H11B11469   0.352   1.765  10.493 -0.5916  5.1842  2.1249
  111OSM      P11470   0.230   1.640  10.728  0.3254  0.0899 -0.0972
  111OSM    O1311471   0.217   1.542  10.838 -0.4683 -0.3829 -0.3497
  111OSM    O1411472   0.165   1.770  10.755 -0.7398 -0.1573  0.0080
  111OSM    O1111473   0.166   1.564  10.604 -0.0966 -0.1767 -0.2765
  111OSM    O1211474   0.376   1.656  10.691 -0.0743  0.0450  0.8283
  111OSM    C1S11475   0.208   1.424  10.578 -0.5007 -0.5540  0.1555
  111OSM    H1S11476   0.171   1.360  10.662  1.1718 -0.9164  0.6554
  111OSM    H1T11477   0.318   1.417  10.565 -0.5696 -1.0861 -0.1879
  111OSM     NF11478   0.248   1.236  10.419 -0.2773 -0.6130 -0.0636
  111OSM    HNF11479   0.329   1.234  10.360 -1.0319 -0.6145 -1.1374
  111OSM    C2S11480   0.176   1.367  10.435  0.0491 -0.1010  0.1307
  111OSM    H2S11481   0.068   1.342  10.439  0.0598 -0.2149 -0.2392
  111OSM    C3S11482   0.198   1.478  10.327  0.3577 -0.9888  0.0219
  111OSM    H3S11483   0.307   1.494  10.328  0.4426 -1.5275 -0.1804
  111OSM     O311484   0.141   1.612  10.361 -0.2873  0.1982 -0.4167
  111OSM    HO311485   0.140   1.609  10.457  1.1589  0.6321 -0.3655
  111OSM    C4S11486   0.152   1.436  10.190 -0.2500 -0.8122 -0.4499
  111OSM    H4S11487   0.231   1.375  10.143 -0.7950 -1.9257  0.0345
  111OSM    C5S11488   0.038   1.472  10.126 -0.3935  0.3902  0.1413
  111OSM    H5S11489  -0.025   1.548  10.173  1.1149  3.0290 -1.8213
  111OSM    C6S11490  -0.005   1.419   9.988  0.0608 -0.0699  0.0235
  111OSM    H6S11491  -0.061   1.500   9.936 -1.1116 -2.7946 -3.3098
  111OSM    H6T11492  -0.067   1.327   9.996  0.8012 -0.6017 -0.2184
  111OSM    C7S11493   0.108   1.380   9.891 -0.7659  0.4738  0.1600
  111OSM    H7S11494   0.162   1.290   9.929 -1.2797  0.9002  2.0052
  111OSM    H7T11495   0.179   1.463   9.909  0.2103  0.0860 -1.6458
  111OSM    C8S11496   0.053   1.357   9.747 -0.3555  0.9007  0.5099
  111OSM    H8S11497   0.002   1.451   9.716  2.4531  2.1443 -0.6591
  111OSM    H8T11498  -0.007   1.264   9.751  0.4092  0.3451 -0.6559
  111OSM    C9S11499   0.160   1.338   9.631  0.3915  0.0203 -0.2628
  111OSM    H9S11500   0.227   1.253   9.653  0.6047  0.0615 -0.7330
  111OSM    H9T11501   0.235   1.420   9.630  0.4155  0.0085  0.2193
  111OSM   C10S11502   0.097   1.337   9.493  0.2405  0.4400  0.0657
  111OSM   H10S11503   0.047   1.435   9.474 -2.8787 -0.8063  1.1734
  111OSM   H10T11504   0.012   1.266   9.501  2.4745 -2.3283  0.7908
  111OSM   C11S11505   0.187   1.294   9.381  0.4023  0.0983  0.7149
  111OSM   H11S11506   0.224   1.190   9.397  0.6664  0.2944  1.3874
  111OSM   H11T11507   0.269   1.367   9.364  0.4668 -0.3762 -1.2813
  111OSM   C12S11508   0.127   1.279   9.240 -0.3173  0.5229  0.1109
  111OSM   H12S11509   0.084   1.371   9.195  0.3925  0.2354 -1.2009
  111OSM   H12T11510   0.044   1.206   9.248  0.2932 -0.4197 -1.7246
  111OSM   C13S11511   0.230   1.223   9.136  0.0489  0.2203  0.1803
  111OSM   H13S11512   0.263   1.123   9.171 -2.6198 -0.9245 -0.2894
  111OSM   H13T11513   0.316   1.293   9.126  1.0747 -0.9897  0.3075
  111OSM   C14S11514   0.165   1.205   9.000  0.0959  0.2118 -0.0647
  111OSM   H14S11515   0.125   1.296   8.951  1.2435  0.3496 -0.7958
  111OSM   H14T11516   0.083   1.132   9.013  0.3398 -0.3523 -1.5590
  111OSM   C15S11517   0.253   1.143   8.894 -0.0965  0.3043 -0.1756
  111OSM   H15S11518   0.250   1.032   8.893  2.1738  0.1831 -2.3920
  111OSM   H15T11519   0.356   1.174   8.924 -1.3576  2.9611  1.8887
  111OSM   C16S11520   0.216   1.188   8.750  0.1451 -0.0185 -0.5937
  111OSM   H16S11521   0.298   1.142   8.690  0.6921  0.3561 -0.1562
  111OSM   H16T11522   0.232   1.298   8.743  1.4102 -0.1271  0.2342
  111OSM   C17S11523   0.073   1.149   8.712  0.3228  0.4004  0.2470
  111OSM   H17S11524  -0.003   1.224   8.742  0.3552  0.9296 -0.9430
  111OSM   H17T11525   0.054   1.050   8.759 -1.1380 -0.5999 -2.2778
  111OSM   C18S11526   0.050   1.129   8.564 -0.5975  0.5749  0.6395
  111OSM   H18S11527  -0.060   1.124   8.547 -0.3747  0.9202 -1.0586
  111OSM   H18T11528   0.095   1.032   8.534  1.1386  0.9628  1.8009
  111OSM   H18U11529   0.087   1.210   8.498  2.2354 -2.3138 -1.6513
  111OSM    C1F11530   0.238   1.124  10.488  0.3385  0.7885  0.6912
  111OSM     OF11531   0.152   1.108  10.576 -0.3793 -0.0313 -0.4411
  111OSM    C2F11532   0.321   1.012  10.443 -0.0168  0.3166  0.1274
  111OSM    H2F11533   0.421   1.017  10.490  0.2291  0.1606 -0.3643
  111OSM    H2G11534   0.332   1.017  10.332 -2.2935 -0.2696 -0.1743
  111OSM    C3F11535   0.270   0.872  10.475 -0.8204  0.0830  0.1391
  111OSM    H3F11536   0.169   0.864  10.429 -1.1168  2.6559  0.2019
  111OSM    H3G11537   0.262   0.872  10.586 -1.5444 -1.1392  0.1115
  111OSM    C4F11538   0.364   0.766  10.417 -0.4773 -0.5137 -0.7020
  111OSM    H4F11539   0.377   0.689  10.496  0.0924  1.7128  1.5123
  111OSM    H4G11540   0.466   0.809  10.422 -0.3629 -0.7480 -0.9717
  111OSM    C5F11541   0.314   0.715  10.288 -0.0509  0.3927 -0.1107
  111OSM    H5F11542   0.268   0.793  10.225 -2.3694 -0.2825  0.6423
  111OSM    H5G11543   0.227   0.649  10.308  0.6694 -0.7858 -0.7507
  111OSM    C6F11544   0.426   0.649  10.207 -0.7750  0.0258 -0.6801
  111OSM    H6F11545   0.445   0.551  10.256  1.6386  0.6906 -0.1562
  111OSM    H6G11546   0.515   0.712  10.227  0.0865 -1.2466 -0.3699
  111OSM    C7F11547   0.388   0.643  10.055 -0.2115 -0.2882 -0.1521
  111OSM    H7F11548   0.485   0.625  10.004 -1.5062 -3.2384 -1.8337
  111OSM    H7G11549   0.359   0.740  10.010 -0.4562 -0.8562 -1.2578
  111OSM    C8F11550   0.295   0.529  10.014  0.3169 -0.2789 -0.3300
  111OSM    H8F11551   0.201   0.526  10.074  0.8115 -1.5044  0.4295
  111OSM    H8G11552   0.360   0.439  10.018  1.8663  0.7645 -1.1121
  111OSM    C9F11553   0.251   0.548   9.871  0.3049  0.2779 -0.1829
  111OSM    H9F11554   0.176   0.627   9.868  0.6322  0.7389  1.8677
  111OSM   C10F11555   0.296   0.490   9.762 -0.6430 -0.5930  0.3444
  111OSM   H10F11556   0.250   0.523   9.668  1.0853  1.8910  0.2648
  111OSM   C11F11557   0.404   0.390   9.739  0.1189  0.1936 -1.3728
  111OSM   H11F11558   0.369   0.287   9.761  0.1505  0.2070 -1.2611
  111OSM   H11G11559   0.484   0.408   9.813 -2.7612  0.8018  1.8115
  111OSM   C12F11560   0.477   0.386   9.605  0.5671  1.0337 -0.4280
  111OSM   H12F11561   0.567   0.322   9.623 -0.2686 -0.5809 -1.7834
  111OSM   H12G11562   0.524   0.485   9.586 -0.3623  1.1949 -2.0300
  111OSM   C13F11563   0.389   0.317   9.498 -0.3995  0.2626  0.7879
  111OSM   H13F11564   0.303   0.382   9.471  1.0790  1.7477 -0.5306
  111OSM   H13G11565   0.346   0.223   9.540 -2.9851  1.2867  0.6183
  111OSM   C14F11566   0.467   0.289   9.370 -0.2867 -0.4189 -0.4449
  111OSM   H14F11567   0.433   0.195   9.322 -2.1001  0.2394 -0.5233
  111OSM   H14G11568   0.576   0.278   9.390 -0.5668 -0.6108  1.0493
  111OSM   C15F11569   0.444   0.386   9.258  0.0717 -0.9107 -0.7282
  111OSM   H15F11570   0.481   0.490   9.274 -3.2192  0.2383  0.1962
  111OSM   H15G11571   0.333   0.388   9.264  0.1258  0.2535  0.3241
  111OSM   C16F11572   0.489   0.335   9.121  0.1175 -0.8270  0.2367
  111OSM   H16F11573   0.425   0.248   9.097  2.8136 -2.3389 -2.1668
  111OSM   H16G11574   0.592   0.294   9.122  0.1093 -0.8967 -0.6835
  111OSM   C17F11575   0.469   0.441   9.004 -1.2680 -0.0478  1.0808
  111OSM   H17F11576   0.539   0.527   9.009  0.8022 -1.4271 -1.4899
  111OSM   H17G11577   0.364   0.472   9.017 -1.4424 -0.0650 -0.1907
  111OSM   C18F11578   0.488   0.381   8.867 -0.2719  1.0574 -0.7634
  111OSM   H18F11579   0.596   0.363   8.848  0.2944  3.6693 -0.3571
  111OSM   H18G11580   0.442   0.445   8.788 -3.3542  0.9374  0.7988
  111OSM   H18H11581   0.447   0.279   8.849  0.6998  0.9823 -2.9496
  112OSM      N11582   6.472   6.760  11.012 -0.7330 -0.2606  0.1063
  112OSM    C1511583   6.412   6.713  10.885 -0.2271  0.1206 -0.6419
  112OSM   H15A11584   6.338   6.641  10.917 -1.8975  2.0496 -0.0405
  112OSM   H15B11585   6.485   6.660  10.825  0.7485 -0.1730  0.7545
  112OSM   H15C11586   6.354   6.781  10.826 -1.3577 -0.7793 -0.6020
  112OSM    C1411587   6.584   6.865  10.991  0.2220 -0.0090 -0.2050
  112OSM   H14A11588   6.611   6.914  11.084  0.9404  0.0212 -0.4218
  112OSM   H14B11589   6.569   6.935  10.911  0.4206 -0.6047 -0.7747
  112OSM   H14C11590   6.671   6.810  10.960 -0.8809 -1.7311 -0.3896
  112OSM    C1311591   6.370   6.843  11.086 -0.3018  0.2717 -0.2068
  112OSM   H13A11592   6.409   6.884  11.177  0.9345  1.9184 -1.4186
  112OSM   H13B11593   6.280   6.783  11.090  1.5036 -2.7823 -1.5899
  112OSM   H13C11594   6.339   6.933  11.035 -1.4974  0.7013  1.1991
  112OSM    C1211595   6.516   6.643  11.094  0.5685 -0.3417  0.0772
  112OSM   H12A11596   6.427   6.601  11.138  0.1349  0.9726  0.5147
  112OSM   H12B11597   6.574   6.673  11.180  0.5584  0.4204 -0.1713
  112OSM    C1111598   6.593   6.532  11.015 -0.7097 -0.0348 -0.4701
  112OSM   H11A11599   6.650   6.468  11.085 -2.8627  1.6768  3.1611
  112OSM   H11B11600   6.662   6.571  10.938 -3.0308  0.9608 -2.1837
  112OSM      P11601   6.515   6.319  10.877 -0.3882 -0.1814  0.0523
  112OSM    O1311602   6.640   6.260  10.933 -0.1395 -0.2989  0.2430
  112OSM    O1411603   6.389   6.237  10.889 -0.3645 -0.2752  0.1924
  112OSM    O1111604   6.538   6.353  10.722  0.2636  0.9004  0.1842
  112OSM    O1211605   6.489   6.454  10.955 -0.0973 -0.0676  0.1114
  112OSM    C1S11606   6.645   6.441  10.686  0.6262  0.5008 -0.4829
  112OSM    H1S11607   6.737   6.415  10.744  0.4043  0.8081  0.0183
  112OSM    H1T11608   6.628   6.549  10.701 -0.0430  0.2763  0.4684
  112OSM     NF11609   6.804   6.479  10.497 -0.2902 -0.9149 -0.1336
  112OSM    HNF11610   6.786   6.554  10.434  2.5502 -2.3889 -3.0291
  112OSM    C2S11611   6.683   6.416  10.534 -0.0924 -0.1481 -0.0360
  112OSM    H2S11612   6.693   6.305  10.527  2.4374  0.1065 -2.0747
  112OSM    C3S11613   6.571   6.463  10.443  0.7271  0.2585 -0.4655
  112OSM    H3S11614   6.564   6.573  10.454 -0.6646  0.1230  0.3109
  112OSM     O311615   6.438   6.434  10.505 -0.6631 -0.1203  0.3792
  112OSM    HO311616   6.448   6.403  10.595  0.4277  0.8034  0.5985
  112OSM    C4S11617   6.584   6.404  10.306 -0.2628 -0.6384 -0.9589
  112OSM    H4S11618   6.581   6.294  10.303 -2.9457 -0.8683  2.7848
  112OSM    C5S11619   6.607   6.481  10.198  0.0181  0.2811 -0.5812
  112OSM    H5S11620   6.626   6.589  10.209  1.3711 -0.0496  0.5539
  112OSM    C6S11621   6.613   6.407  10.070 -0.6744  0.2109 -0.6464
  112OSM    H6S11622   6.550   6.316  10.076 -1.7882  1.0044  0.2173
  112OSM    H6T11623   6.716   6.372  10.049 -1.4250 -0.6624 -3.4362
  112OSM    C7S11624   6.556   6.502   9.961  0.3388  0.2019 -0.5371
  112OSM    H7S11625   6.632   6.578   9.936  0.2446  0.3242 -0.4532
  112OSM    H7T11626   6.464   6.548  10.004 -1.6807 -3.6741 -0.2337
  112OSM    C8S11627   6.514   6.426   9.835 -0.1740  1.8141 -0.3832
  112OSM    H8S11628   6.451   6.491   9.771 -2.7739  0.1224  0.3042
  112OSM    H8T11629   6.442   6.349   9.871  0.2339  2.1221  1.1884
  112OSM    C9S11630   6.621   6.334   9.766  0.2888  0.1116 -0.2824
  112OSM    H9S11631   6.677   6.275   9.841  1.0324 -0.3922 -1.2032
  112OSM    H9T11632   6.699   6.392   9.712 -1.1343  1.3735 -1.0940
  112OSM   C10S11633   6.567   6.225   9.663 -0.1185 -0.4393 -0.3337
  112OSM   H10S11634   6.494   6.168   9.724  0.0619 -0.1245  0.1819
  112OSM   H10T11635   6.639   6.142   9.644 -0.1869 -0.3756 -0.8905
  112OSM   C11S11636   6.497   6.286   9.533  0.1015 -1.5255 -0.0717
  112OSM   H11S11637   6.406   6.340   9.570  0.8570  1.2874 -1.9903
  112OSM   H11T11638   6.459   6.209   9.463 -2.9974 -0.2966  0.0828
  112OSM   C12S11639   6.581   6.378   9.441  0.1558 -0.3241  0.0312
  112OSM   H12S11640   6.614   6.463   9.504 -0.5704  1.1377 -1.4863
  112OSM   H12T11641   6.517   6.422   9.362  0.6658 -0.1603 -0.2932
  112OSM   C13S11642   6.705   6.311   9.391  1.3899 -0.1758 -0.2753
  112OSM   H13S11643   6.749   6.264   9.481 -0.9123 -0.3618  0.8124
  112OSM   H13T11644   6.767   6.395   9.352  0.2070 -0.5395 -3.2416
  112OSM   C14S11645   6.668   6.211   9.280 -0.0122  0.2678 -0.4883
  112OSM   H14S11646   6.618   6.268   9.199 -0.0176 -0.8966 -1.3293
  112OSM   H14T11647   6.605   6.128   9.318 -0.3618 -0.2211 -2.0530
  112OSM   C15S11648   6.806   6.164   9.224  0.1946 -0.2982  0.2114
  112OSM   H15S11649   6.866   6.114   9.303 -0.9765 -4.8022 -1.4507
  112OSM   H15T11650   6.860   6.257   9.195 -0.6157  0.0698 -0.1664
  112OSM   C16S11651   6.785   6.066   9.107 -0.2592  0.4322 -0.7747
  112OSM   H16S11652   6.730   5.973   9.131 -2.1802  1.8287  0.4858
  112OSM   H16T11653   6.887   6.039   9.072 -0.0679 -0.7451  0.5548
  112OSM   C17S11654   6.707   6.120   8.989  0.1516  0.5527  0.3276
  112OSM   H17S11655   6.751   6.215   8.952  0.1822  0.2518 -0.4350
  112OSM   H17T11656   6.602   6.146   9.014 -0.2885 -1.8694  1.2341
  112OSM   C18S11657   6.702   6.023   8.869 -0.4324  0.2694 -0.4989
  112OSM   H18S11658   6.670   6.069   8.773 -0.8619 -1.5035 -1.2369
  112OSM   H18T11659   6.615   5.954   8.875 -1.1383  1.0965 -1.0739
  112OSM   H18U11660   6.797   5.967   8.857  0.3300  1.3709  0.2354
  112OSM    C1F11661   6.923   6.449  10.549  0.4050  0.9745  0.1929
  112OSM     OF11662   6.924   6.343  10.612 -0.5687  0.0786 -0.3750
  112OSM    C2F11663   7.039   6.543  10.535 -0.0992 -0.4064 -0.5462
  112OSM    H2F11664   7.138   6.495  10.550  1.4135  2.8682  0.9139
  112OSM    H2G11665   7.018   6.620  10.613 -1.2082 -2.6775  1.5435
  112OSM    C3F11666   7.057   6.628  10.409 -0.3066 -0.1337 -0.2032
  112OSM    H3F11667   7.148   6.692  10.413  0.2218 -0.8238 -0.7766
  112OSM    H3G11668   6.977   6.705  10.407 -0.4841 -0.1909  1.9205
  112OSM    C4F11669   7.067   6.545  10.284  0.2978  0.5424  0.6037
  112OSM    H4F11670   7.107   6.610  10.203 -1.4808  0.8703 -0.0442
  112OSM    H4G11671   6.966   6.524  10.243  0.3844 -2.2799  1.6209
  112OSM    C5F11672   7.136   6.408  10.300 -0.0627  0.5103 -0.0074
  112OSM    H5F11673   7.084   6.346  10.376 -0.7435  0.0217 -0.8600
  112OSM    H5G11674   7.235   6.440  10.339  0.6587 -1.2557 -0.3182
  112OSM    C6F11675   7.156   6.333  10.164  0.5697  0.2767 -0.1794
  112OSM    H6F11676   7.229   6.250  10.177 -0.0603 -0.3092 -0.3377
  112OSM    H6G11677   7.205   6.401  10.090  0.6597 -1.2702 -1.6048
  112OSM    C7F11678   7.021   6.267  10.119  0.1179  0.7791 -0.1545
  112OSM    H7F11679   6.935   6.335  10.102 -0.3007  0.6670  1.3511
  112OSM    H7G11680   6.999   6.208  10.211  4.0866  1.7091  1.6302
  112OSM    C8F11681   7.035   6.170   9.997  0.3067 -0.1016  0.0589
  112OSM    H8F11682   6.942   6.110   9.985  0.9747 -1.1651  0.0184
  112OSM    H8G11683   7.121   6.100  10.003  0.3247  0.0130  1.4078
  112OSM    C9F11684   7.041   6.254   9.874 -0.5834 -0.7073 -0.1644
  112OSM    H9F11685   7.067   6.360   9.887  0.4495 -0.8932 -0.5831
  112OSM   C10F11686   7.011   6.216   9.741 -0.6616 -0.4107 -0.1741
  112OSM   H10F11687   7.017   6.294   9.665 -1.4615 -0.2618 -0.0931
  112OSM   C11F11688   6.968   6.079   9.703 -0.7319  1.4311  0.0830
  112OSM   H11F11689   6.866   6.082   9.659 -0.3888 -2.7608 -1.4672
  112OSM   H11G11690   6.963   6.005   9.786  2.6808 -0.1632 -0.9778
  112OSM   C12F11691   7.058   6.018   9.589 -0.4856  0.4473  0.3788
  112OSM   H12F11692   7.160   6.012   9.633 -1.5711 -1.1340  2.8903
  112OSM   H12G11693   7.060   6.086   9.500 -0.4202 -0.1156 -0.0550
  112OSM   C13F11694   7.013   5.880   9.540 -0.5831 -0.0791  0.5554
  112OSM   H13F11695   6.907   5.883   9.508  0.1175 -0.5360 -2.0276
  112OSM   H13G11696   7.036   5.813   9.626  0.3934  1.6247  1.6727
  112OSM   C14F11697   7.118   5.835   9.428 -0.3529 -0.1985 -0.3154
  112OSM   H14F11698   7.089   5.732   9.401  0.8141 -2.0712  4.5996
  112OSM   H14G11699   7.218   5.833   9.475 -1.2732 -1.3720  1.6961
  112OSM   C15F11700   7.118   5.928   9.305 -0.3526 -0.2211  0.5149
  112OSM   H15F11701   7.163   6.025   9.336  1.0579 -0.5819 -0.3094
  112OSM   H15G11702   7.014   5.937   9.265  0.2904 -0.4260 -1.3075
  112OSM   C16F11703   7.213   5.863   9.194 -0.0042  0.4235 -0.5218
  112OSM   H16F11704   7.167   5.770   9.152 -0.8018 -0.1708  1.5703
  112OSM   H16G11705   7.314   5.832   9.229  0.4162  0.8579 -1.3192
  112OSM   C17F11706   7.242   5.968   9.078 -0.3087 -0.7354  1.5188
  112OSM   H17F11707   7.309   6.044   9.123  0.7907 -1.2824  0.8513
  112OSM   H17G11708   7.148   6.019   9.048  2.0102  2.9947 -0.0451
  112OSM   C18F11709   7.311   5.900   8.957 -0.1703 -0.0428 -0.7771
  112OSM   H18F11710   7.252   5.814   8.917  0.4807  0.0449 -1.9950
  112OSM   H18G11711   7.415   5.865   8.978 -0.7374 -1.6980 -0.5505
  112OSM   H18H11712   7.320   5.959   8.863  0.0679  0.4743 -0.4354
  113OSM      N11713   3.869   2.161  10.971  0.3139 -0.4571  0.0213
  113OSM    C1511714   3.848   2.080  10.847 -0.8074  0.7976 -0.3175
  113OSM   H15A11715   3.751   2.087  10.801 -0.7793 -0.9424 -0.7314
  113OSM   H15B11716   3.857   1.974  10.865  1.9275  1.3854  2.6534
  113OSM   H15C11717   3.926   2.107  10.776 -0.4156 -0.4258 -0.3771
  113OSM    C1411718   3.750   2.139  11.058  0.1856  0.5370 -0.1833
  113OSM   H14A11719   3.657   2.160  11.009  0.2160 -0.5337 -0.7196
  113OSM   H14B11720   3.746   2.213  11.137  1.5456  0.1084  0.3144
  113OSM   H14C11721   3.741   2.041  11.102  1.2220  0.7628  0.5653
  113OSM    C1311722   3.990   2.132  11.046  0.3984 -0.2426  0.3600
  113OSM   H13A11723   4.066   2.149  10.971 -0.1126 -0.6010 -0.2499
  113OSM   H13B11724   3.990   2.032  11.087 -0.4382 -1.3585 -2.1360
  113OSM   H13C11725   4.005   2.212  11.117 -0.0068  2.1349 -2.0463
  113OSM    C1211726   3.865   2.308  10.920 -0.3935 -0.0665  0.1135
  113OSM   H12A11727   3.871   2.377  11.003 -2.5824 -0.6838  0.8482
  113OSM   H12B11728   3.766   2.331  10.885 -0.7183 -0.0802  0.9967
  113OSM    C1111729   3.982   2.362  10.821 -0.2551 -0.0085 -0.1062
  113OSM   H11A11730   3.956   2.468  10.799  0.0344 -0.0201 -0.5003
  113OSM   H11B11731   3.973   2.308  10.724  0.0684  2.6888 -1.7331
  113OSM      P11732   4.182   2.426  10.964  0.0787  0.0856 -0.4125
  113OSM    O1311733   4.098   2.440  11.084 -0.0126 -0.4463  0.6171
  113OSM    O1411734   4.321   2.370  10.993  0.1863  0.3815  0.1679
  113OSM    O1111735   4.191   2.569  10.891 -0.0406  0.0341 -0.3351
  113OSM    O1211736   4.120   2.334  10.851 -0.3696  0.0996 -0.0827
  113OSM    C1S11737   4.297   2.588  10.795 -0.5810 -0.2061  0.6766
  113OSM    H1S11738   4.332   2.493  10.748  0.5101  0.2095  0.6249
  113OSM    H1T11739   4.391   2.619  10.846  0.8811 -2.5803 -0.4102
  113OSM     NF11740   4.379   2.701  10.591  0.5413 -0.1389 -0.2386
  113OSM    HNF11741   4.440   2.779  10.582  0.3061 -0.1030 -1.9209
  113OSM    C2S11742   4.271   2.694  10.687  0.5206 -0.0642  0.2313
  113OSM    H2S11743   4.179   2.665  10.632  0.6715  0.5004 -0.3327
  113OSM    C3S11744   4.231   2.827  10.759  0.3633  0.0787 -0.2582
  113OSM    H3S11745   4.304   2.860  10.835 -1.3546  1.2792  0.9259
  113OSM     O311746   4.113   2.827  10.838  0.0158 -0.2989 -0.3781
  113OSM    HO311747   4.077   2.738  10.826 -1.5016 -0.4518  3.7210
  113OSM    C4S11748   4.219   2.944  10.656 -0.6799 -0.0686 -0.0308
  113OSM    H4S11749   4.305   3.013  10.652 -1.8994  1.8536  3.1674
  113OSM    C5S11750   4.109   2.959  10.579 -0.1992 -0.1832 -0.2478
  113OSM    H5S11751   4.014   2.904  10.590 -0.5074  0.3629 -0.1529
  113OSM    C6S11752   4.096   3.077  10.481  0.5701 -0.1026  0.5585
  113OSM    H6S11753   4.172   3.156  10.498  1.3557 -0.7446  0.0883
  113OSM    H6T11754   4.003   3.137  10.497  0.6398  0.9882 -2.5541
  113OSM    C7S11755   4.107   3.031  10.336  0.1831  0.1315  0.0188
  113OSM    H7S11756   4.066   3.122  10.289 -0.8656  2.2163  4.4477
  113OSM    H7T11757   4.043   2.944  10.312 -0.3594  0.4816  0.1926
  113OSM    C8S11758   4.247   3.022  10.282 -0.3156  0.6640 -0.4545
  113OSM    H8S11759   4.308   2.953  10.344 -0.5121 -0.1643 -1.1651
  113OSM    H8T11760   4.298   3.120  10.291 -0.1775  0.5732 -0.2337
  113OSM    C9S11761   4.262   2.978  10.137  1.0155  0.5331 -0.6909
  113OSM    H9S11762   4.226   3.058  10.069  0.9286  3.5513  2.6055
  113OSM    H9T11763   4.219   2.877  10.120 -0.2106  0.8602  0.2311
  113OSM   C10S11764   4.404   2.941  10.098 -0.6824  0.4977  0.0394
  113OSM   H10S11765   4.432   2.853  10.160 -3.2907 -1.8452 -1.8906
  113OSM   H10T11766   4.477   3.020  10.124 -0.6241 -0.0631  1.7076
  113OSM   C11S11767   4.411   2.906   9.945 -1.2013 -0.2126 -0.4646
  113OSM   H11S11768   4.365   2.989   9.887  2.1822  2.2829  0.0954
  113OSM   H11T11769   4.348   2.817   9.926 -2.4439  0.0084  2.1231
  113OSM   C12S11770   4.551   2.883   9.887  0.5138 -0.3192 -0.2229
  113OSM   H12S11771   4.591   2.800   9.950 -1.3985 -0.7782  0.4529
  113OSM   H12T11772   4.620   2.969   9.898 -1.0396  0.9294 -0.0070
  113OSM   C13S11773   4.549   2.829   9.746 -0.1644  0.1519 -0.4775
  113OSM   H13S11774   4.521   2.905   9.670  0.7472 -0.1585 -1.1465
  113OSM   H13T11775   4.463   2.759   9.742  0.6727 -0.8747 -1.1170
  113OSM   C14S11776   4.682   2.781   9.698 -0.6544  0.2818 -0.8197
  113OSM   H14S11777   4.711   2.690   9.755  0.3416  0.9594 -0.2203
  113OSM   H14T11778   4.749   2.866   9.720 -0.1251 -0.4614  0.5625
  113OSM   C15S11779   4.698   2.743   9.549 -0.5273  0.5704 -0.1285
  113OSM   H15S11780   4.654   2.643   9.531  0.8751 -0.4275  1.5911
  113OSM   H15T11781   4.807   2.728   9.535 -0.5854 -3.2167  2.2336
  113OSM   C16S11782   4.629   2.839   9.450 -0.4907 -0.6524  0.3852
  113OSM   H16S11783   4.664   2.941   9.479 -1.3616 -0.3165  0.2857
  113OSM   H16T11784   4.519   2.828   9.447 -0.5753  0.1881 -0.2566
  113OSM   C17S11785   4.689   2.801   9.310  0.6603 -0.1974 -0.0518
  113OSM   H17S11786   4.610   2.815   9.233  0.0056 -1.1653  0.4250
  113OSM   H17T11787   4.707   2.694   9.288 -0.4269  0.0378 -2.4473
  113OSM   C18S11788   4.812   2.883   9.282 -0.0651  0.0802 -0.3836
  113OSM   H18S11789   4.800   2.994   9.279 -0.7845  0.0007 -0.6616
  113OSM   H18T11790   4.862   2.851   9.188  2.9455  0.6491  0.9151
  113OSM   H18U11791   4.887   2.858   9.360  0.1511 -0.0077 -0.6164
  113OSM    C1F11792   4.421   2.590  10.522  0.3646  0.3732 -0.2037
  113OSM     OF11793   4.344   2.498  10.517 -0.5430 -0.2615 -0.7617
  113OSM    C2F11794   4.549   2.593  10.457  0.1642  0.7550 -0.1371
  113OSM    H2F11795   4.634   2.619  10.524  0.8607 -1.9345  0.1178
  113OSM    H2G11796   4.535   2.665  10.373 -0.1935 -1.0922 -1.7282
  113OSM    C3F11797   4.591   2.452  10.402 -0.3452  0.0035  0.6098
  113OSM    H3F11798   4.506   2.412  10.343  0.2809 -0.2699 -0.1226
  113OSM    H3G11799   4.609   2.387  10.490  1.9063 -1.2394 -0.6837
  113OSM    C4F11800   4.716   2.458  10.322  0.4622 -0.6016  0.0774
  113OSM    H4F11801   4.800   2.504  10.378  2.2531 -1.2137 -1.9290
  113OSM    H4G11802   4.696   2.519  10.232 -0.1676  2.9530  2.4491
  113OSM    C5F11803   4.767   2.318  10.285 -0.0316 -0.0991  0.1959
  113OSM    H5F11804   4.821   2.265  10.365  1.7565 -0.1765 -1.0084
  113OSM    H5G11805   4.846   2.315  10.207  2.9383  1.0617  2.9474
  113OSM    C6F11806   4.660   2.216  10.237  0.1012  0.7468 -0.3186
  113OSM    H6F11807   4.571   2.214  10.304 -0.6105 -0.5959 -1.2514
  113OSM    H6G11808   4.698   2.113  10.254 -0.8292  0.5754  0.8407
  113OSM    C7F11809   4.616   2.230  10.095 -0.4171  0.2912  0.4522
  113OSM    H7F11810   4.607   2.339  10.075 -0.1526  0.2867  0.3138
  113OSM    H7G11811   4.523   2.169  10.086 -0.2613  0.2615 -1.1700
  113OSM    C8F11812   4.711   2.174   9.989 -0.2152  1.5112  0.2941
  113OSM    H8F11813   4.763   2.084  10.030  0.7883  1.6222 -0.7064
  113OSM    H8G11814   4.787   2.253   9.973  1.3472  0.3556  1.6213
  113OSM    C9F11815   4.641   2.136   9.865  0.7869  0.7180  0.1679
  113OSM    H9F11816   4.558   2.066   9.878 -1.1361  2.4930 -1.6929
  113OSM   C10F11817   4.670   2.167   9.738 -0.4112 -0.3142  0.4291
  113OSM   H10F11818   4.600   2.134   9.661 -1.4423  0.3108  1.0768
  113OSM   C11F11819   4.787   2.247   9.688  0.0100 -0.1096  0.1915
  113OSM   H11F11820   4.868   2.192   9.740 -1.0874 -0.8715  1.1626
  113OSM   H11G11821   4.790   2.351   9.729  1.3206  0.3192 -0.9178
  113OSM   C12F11822   4.803   2.244   9.536  0.4844 -0.0965 -0.4257
  113OSM   H12F11823   4.826   2.141   9.503  1.4512 -1.2548  3.3808
  113OSM   H12G11824   4.898   2.299   9.521 -0.0410  1.0590  0.3074
  113OSM   C13F11825   4.692   2.309   9.453  0.1186  0.3166 -0.2588
  113OSM   H13F11826   4.692   2.418   9.473 -1.6294  0.3037 -0.0824
  113OSM   H13G11827   4.593   2.269   9.482  0.2023 -0.6365 -1.2114
  113OSM   C14F11828   4.717   2.283   9.303  0.6401 -0.2955  0.3714
  113OSM   H14F11829   4.624   2.316   9.254  0.4419 -1.7723 -0.3076
  113OSM   H14G11830   4.721   2.172   9.297  1.0731 -0.4277  2.3943
  113OSM   C15F11831   4.838   2.350   9.248 -0.4559  0.1285  0.4686
  113OSM   H15F11832   4.931   2.324   9.302  0.2308  2.5546  0.6037
  113OSM   H15G11833   4.845   2.458   9.275  2.6171 -0.5704  3.0990
  113OSM   C16F11834   4.843   2.322   9.099  0.0227 -0.1197  0.3041
  113OSM   H16F11835   4.747   2.336   9.045  0.5294 -0.5151 -0.7367
  113OSM   H16G11836   4.860   2.212   9.096  2.3967  0.1676  0.9286
  113OSM   C17F11837   4.964   2.387   9.021  0.4838 -0.1194  0.6333
  113OSM   H17F11838   5.061   2.363   9.069  1.3288 -0.5405 -1.1979
  113OSM   H17G11839   4.959   2.497   9.029  2.5764 -0.0003  0.9326
  113OSM   C18F11840   4.999   2.346   8.882 -0.3492 -0.1300  1.1619
  113OSM   H18F11841   4.904   2.340   8.825  1.1160 -0.4446 -1.4407
  113OSM   H18G11842   5.050   2.247   8.876  0.3809  0.2685  0.5833
  113OSM   H18H11843   5.065   2.413   8.823 -2.5959  0.0998 -1.2984
  114OSM      N11844   0.348   5.251  11.039  0.1238 -0.3571  0.9536
  114OSM    C1511845   0.201   5.252  11.035 -0.3377 -0.1884  0.5306
  114OSM   H15A11846   0.167   5.161  11.083  0.6238 -1.1901 -0.6094
  114OSM   H15B11847   0.161   5.234  10.935 -1.7099 -4.3733  1.6055
  114OSM   H15C11848   0.149   5.331  11.087 -0.2409 -0.6972  1.4197
  114OSM    C1411849   0.398   5.358  10.942  0.6515 -0.2073 -0.0075
  114OSM   H14A11850   0.341   5.359  10.850  0.3141  0.5798  0.1985
  114OSM   H14B11851   0.502   5.345  10.917  0.4247  1.0446 -1.7983
  114OSM   H14C11852   0.376   5.452  10.991 -2.5746  0.3053 -2.1446
  114OSM    C1311853   0.391   5.284  11.174  0.4449 -0.5615  0.0972
  114OSM   H13A11854   0.356   5.382  11.206 -0.9814 -0.1892 -2.2798
  114OSM   H13B11855   0.497   5.272  11.183  0.3429 -0.5169  1.5535
  114OSM   H13C11856   0.359   5.215  11.250  0.5394  0.1766  0.8253
  114OSM    C1211857   0.406   5.118  11.000 -0.7932 -0.4736  0.6643
  114OSM   H12A11858   0.375   5.046  11.074 -0.0950 -0.1684  1.2675
  114OSM   H12B11859   0.514   5.109  11.003 -0.6957  0.7666  1.3689
  114OSM    C1111860   0.352   5.050  10.864 -0.7411  0.2304 -0.0151
  114OSM   H11A11861   0.425   4.968  10.848  0.5157  1.3101 -0.0180
  114OSM   H11B11862   0.361   5.113  10.772  1.1639  0.6232  0.3787
  114OSM      P11863   0.194   4.875  10.960 -0.1347 -0.4368  0.2397
  114OSM    O1311864   0.305   4.863  11.057  0.2697  0.0385  0.4809
  114OSM    O1411865   0.059   4.878  11.026 -0.3016 -0.1936  0.0646
  114OSM    O1111866   0.215   4.760  10.855 -0.5339 -0.4980  0.0518
  114OSM    O1211867   0.220   5.011  10.879 -0.3779  0.5493 -0.7513
  114OSM    C1S11868   0.147   4.756  10.727 -0.2831  1.0791  0.0342
  114OSM    H1S11869   0.041   4.787  10.722 -0.3271  0.7550 -3.5434
  114OSM    H1T11870   0.146   4.652  10.688 -0.7297  1.2527 -0.4281
  114OSM     NF11871   0.130   4.864  10.496  0.5544  0.0117 -0.7145
  114OSM    HNF11872   0.139   4.820  10.406 -0.1224 -1.4521 -0.0947
  114OSM    C2S11873   0.220   4.841  10.614  0.5308  0.1310 -0.1663
  114OSM    H2S11874   0.253   4.940  10.652 -0.1075  0.8615 -1.4196
  114OSM    C3S11875   0.347   4.754  10.576  0.0007  0.0406  0.8230
  114OSM    H3S11876   0.306   4.659  10.534 -1.6735  0.7184  0.8655
  114OSM     O311877   0.437   4.727  10.682 -1.3192 -0.2068 -0.2101
  114OSM    HO311878   0.384   4.742  10.760 -0.8475 -1.1476  0.2972
  114OSM    C4S11879   0.422   4.822  10.468  0.1731 -1.1992  0.0175
  114OSM    H4S11880   0.379   4.804  10.369  1.7508 -1.2143 -0.6807
  114OSM    C5S11881   0.538   4.885  10.469 -0.2334  0.0855  0.1745
  114OSM    H5S11882   0.593   4.886  10.564  0.1981 -3.2893  0.0845
  114OSM    C6S11883   0.621   4.950  10.364 -0.4733  0.6134 -0.0696
  114OSM    H6S11884   0.726   4.915  10.370 -1.7057 -3.9539 -1.0508
  114OSM    H6T11885   0.625   5.049  10.414  1.8965  0.2005  0.6678
  114OSM    C7S11886   0.593   4.960  10.215  0.0677 -0.2563  0.2223
  114OSM    H7S11887   0.494   5.006  10.190  0.4242  0.4812  0.1404
  114OSM    H7T11888   0.602   4.859  10.170  3.0697  0.0030  0.0363
  114OSM    C8S11889   0.686   5.058  10.143 -0.0947 -0.0036 -0.0868
  114OSM    H8S11890   0.791   5.023  10.150 -0.5097 -1.7118 -1.6933
  114OSM    H8T11891   0.678   5.159  10.189 -0.3722  0.0062 -0.1586
  114OSM    C9S11892   0.666   5.068   9.987 -0.4849  0.4447 -0.0845
  114OSM    H9S11893   0.752   5.126   9.947 -0.8339  1.6642  0.8838
  114OSM    H9T11894   0.567   5.118   9.973 -0.8861  0.1735  1.6507
  114OSM   C10S11895   0.668   4.932   9.914 -0.0557  0.4239 -0.0344
  114OSM   H10S11896   0.602   4.862   9.970 -0.6995  1.9682  1.2213
  114OSM   H10T11897   0.772   4.893   9.921 -0.3424 -0.1063  1.4123
  114OSM   C11S11898   0.634   4.954   9.767 -1.3026  0.9592 -0.1443
  114OSM   H11S11899   0.706   5.030   9.731 -0.0966 -0.8238 -1.7189
  114OSM   H11T11900   0.531   4.994   9.774 -0.1901  3.7314  2.9866
  114OSM   C12S11901   0.635   4.826   9.678 -0.2104 -0.1088 -0.4898
  114OSM   H12S11902   0.553   4.756   9.704  0.1614  0.1233  1.4554
  114OSM   H12T11903   0.731   4.773   9.690 -0.9338 -0.9056  2.6754
  114OSM   C13S11904   0.611   4.862   9.529  0.4556  0.3218 -0.8075
  114OSM   H13S11905   0.652   4.777   9.470 -0.0284 -0.8216  0.4573
  114OSM   H13T11906   0.667   4.954   9.502 -0.1720  0.1325 -2.9418
  114OSM   C14S11907   0.461   4.865   9.491  0.0963 -0.2234 -0.2984
  114OSM   H14S11908   0.399   4.902   9.576  1.7470  0.1347  0.7808
  114OSM   H14T11909   0.433   4.757   9.492  0.4807 -0.3524 -1.5583
  114OSM   C15S11910   0.435   4.932   9.361  0.2701  0.1479 -0.2424
  114OSM   H15S11911   0.494   4.884   9.280  2.7173  2.4899  0.0115
  114OSM   H15T11912   0.473   5.036   9.371 -0.2320  0.2026  1.4531
  114OSM   C16S11913   0.282   4.944   9.327  0.0047 -0.1800 -0.0994
  114OSM   H16S11914   0.228   4.957   9.423  0.3672 -0.2555  0.1184
  114OSM   H16T11915   0.241   4.857   9.273 -1.6907  1.2676 -1.2635
  114OSM   C17S11916   0.257   5.060   9.228  0.6822 -0.3918 -0.9326
  114OSM   H17S11917   0.291   5.151   9.282 -2.5764  0.0438  0.5907
  114OSM   H17T11918   0.147   5.062   9.217  0.5999 -0.0663 -0.1013
  114OSM   C18S11919   0.326   5.045   9.098 -0.6679  0.3332 -0.4912
  114OSM   H18S11920   0.298   4.954   9.041  0.9231 -0.3934 -0.1439
  114OSM   H18T11921   0.436   5.047   9.109 -0.5925 -0.7427 -0.9219
  114OSM   H18U11922   0.298   5.130   9.032 -0.7787  2.4183  2.1003
  114OSM    C1F11923   0.026   4.946  10.505  0.3311  0.2291  0.1204
  114OSM     OF11924   0.010   5.015  10.604 -0.2460  0.6038 -0.2069
  114OSM    C2F11925  -0.073   4.956  10.394 -0.8186 -0.5455  0.6625
  114OSM    H2F11926  -0.167   4.905  10.425  0.0480 -1.5558  1.7204
  114OSM    H2G11927  -0.030   4.912  10.301  1.7873  0.9934  1.0513
  114OSM    C3F11928  -0.108   5.100  10.362  0.1469  0.7635  0.4551
  114OSM    H3F11929  -0.016   5.154  10.333 -0.1209 -0.2173 -2.5761
  114OSM    H3G11930  -0.163   5.150  10.444 -0.9424 -1.4861  1.1708
  114OSM    C4F11931  -0.204   5.107  10.243 -0.7536  0.3261  0.1559
  114OSM    H4F11932  -0.299   5.055  10.268 -0.2233 -2.9904 -3.6451
  114OSM    H4G11933  -0.167   5.055  10.152 -1.1234  0.7276 -0.2279
  114OSM    C5F11934  -0.234   5.253  10.203 -0.0826 -0.2044  0.4145
  114OSM    H5F11935  -0.292   5.306  10.282  0.6377 -2.5110  2.6086
  114OSM    H5G11936  -0.301   5.244  10.115  3.3236  1.0949 -2.5761
  114OSM    C6F11937  -0.114   5.331  10.155  0.2500  0.0190 -0.2063
  114OSM    H6F11938  -0.067   5.286  10.065 -1.8152 -0.4106 -1.1126
  114OSM    H6G11939  -0.037   5.343  10.234  1.3740  1.0321 -1.4020
  114OSM    C7F11940  -0.141   5.480  10.103 -0.4683  0.4139  0.2542
  114OSM    H7F11941  -0.201   5.540  10.173 -0.8094 -0.9290  1.1483
  114OSM    H7G11942  -0.215   5.462  10.021  1.8720 -2.0118 -1.5118
  114OSM    C8F11943  -0.003   5.539  10.053 -0.0076  0.5498  0.4741
  114OSM    H8F11944   0.042   5.497   9.961 -0.0877  3.6125 -1.1086
  114OSM    H8G11945   0.070   5.520  10.134 -0.7961  1.1458  1.3505
  114OSM    C9F11946  -0.009   5.687  10.024 -0.0399  0.7797 -0.2573
  114OSM    H9F11947   0.039   5.754  10.097  0.2678  1.2469 -0.8739
  114OSM   C10F11948  -0.051   5.742   9.910  0.4020  0.4655 -0.2614
  114OSM   H10F11949  -0.035   5.850   9.902 -0.6301  0.6656  0.1863
  114OSM   C11F11950  -0.117   5.669   9.795  0.0322  0.1169  0.1406
  114OSM   H11F11951  -0.158   5.574   9.833 -1.6921  0.7006 -0.2008
  114OSM   H11G11952  -0.047   5.652   9.711  0.8762 -1.2815  1.0825
  114OSM   C12F11953  -0.249   5.730   9.735  0.2021 -0.5699  0.4965
  114OSM   H12F11954  -0.305   5.791   9.810  0.0198 -0.0973 -0.0186
  114OSM   H12G11955  -0.313   5.645   9.702  1.5216 -1.8618  1.1669
  114OSM   C13F11956  -0.219   5.821   9.617 -0.3324  0.0685 -0.0513
  114OSM   H13F11957  -0.125   5.879   9.627 -0.7781  0.9781 -0.9655
  114OSM   H13G11958  -0.298   5.898   9.614  1.4119  2.1113  2.4683
  114OSM   C14F11959  -0.225   5.745   9.484  0.4290 -0.4144 -0.8455
  114OSM   H14F11960  -0.327   5.704   9.470  0.4595 -1.1302  0.7839
  114OSM   H14G11961  -0.160   5.654   9.486 -1.5817 -1.8963  0.8556
  114OSM   C15F11962  -0.202   5.830   9.362  0.1343 -0.1320 -0.7434
  114OSM   H15F11963  -0.092   5.833   9.344 -0.0406  0.3490 -1.8332
  114OSM   H15G11964  -0.237   5.932   9.389  0.3152 -0.4022  0.5771
  114OSM   C16F11965  -0.260   5.764   9.232  0.4184  0.7530 -0.1432
  114OSM   H16F11966  -0.253   5.843   9.155  1.2318  1.4113  0.5837
  114OSM   H16G11967  -0.369   5.745   9.245  0.4709  0.3921 -0.2163
  114OSM   C17F11968  -0.189   5.636   9.183  0.5406  0.8571  0.3346
  114OSM   H17F11969  -0.200   5.554   9.257  1.8619  0.2329 -0.1254
  114OSM   H17G11970  -0.082   5.666   9.176  0.3518  1.7457  1.1131
  114OSM   C18F11971  -0.244   5.590   9.043 -0.5321  0.3768 -0.2629
  114OSM   H18F11972  -0.351   5.569   9.059 -0.3287 -0.3976  0.1103
  114OSM   H18G11973  -0.183   5.499   9.025  0.5464  0.6706  1.5742
  114OSM   H18H11974  -0.226   5.675   8.973  0.0453  0.2614 -0.2625
  115OSM      N11975   2.500   4.831  11.193 -0.5944 -0.2877  0.5450
  115OSM    C1511976   2.629   4.764  11.220  0.3859  0.3158 -0.4980
  115OSM   H15A11977   2.619   4.669  11.170  1.7862 -0.1894  0.1172
  115OSM   H15B11978   2.643   4.762  11.327 -0.2061 -0.1280 -0.4233
  115OSM   H15C11979   2.716   4.809  11.175  0.5155 -1.3612 -2.0757
  115OSM    C1411980   2.394   4.749  11.254  0.4034 -0.4236 -0.1784
  115OSM   H14A11981   2.379   4.651  11.211  0.7637  0.3061 -2.0500
  115OSM   H14B11982   2.300   4.801  11.248  0.6819 -0.0439 -1.6975
  115OSM   H14C11983   2.417   4.724  11.357  1.0008 -0.2824 -0.2746
  115OSM    C1311984   2.504   4.965  11.261 -0.3066  0.2304 -0.2013
  115OSM   H13A11985   2.406   5.006  11.242 -0.8113 -1.0331 -0.3990
  115OSM   H13B11986   2.574   5.030  11.211  2.1209 -1.0195  1.3863
  115OSM   H13C11987   2.523   4.960  11.367 -0.6488  0.9596 -0.1023
  115OSM    C1211988   2.461   4.859  11.048  0.3040 -0.3693 -0.7644
  115OSM   H12A11989   2.536   4.919  10.999  1.4942 -0.7483  0.5145
  115OSM   H12B11990   2.384   4.934  11.056  1.5915  0.8681  1.0899
  115OSM    C1111991   2.410   4.741  10.960 -0.5436 -0.5015 -0.1479
  115OSM   H11A11992   2.478   4.653  10.960  0.5657  0.3007  1.5699
  115OSM   H11B11993   2.405   4.777  10.855  0.2751  2.4666  0.7354
  115OSM      P11994   2.150   4.784  10.966  0.4703  0.3691  0.0718
  115OSM    O1311995   2.036   4.711  11.026  0.7459  0.6580 -0.1408
  115OSM    O1411996   2.166   4.925  11.005  0.8721 -0.5265  0.0988
  115OSM    O1111997   2.130   4.774  10.805 -0.3908  0.0916  0.1629
  115OSM    O1211998   2.280   4.696  10.991 -0.1836  0.2000  0.0319
  115OSM    C1S11999   2.162   4.650  10.737 -0.1308  1.3715 -0.4519
  115OSM    H1S12000   2.101   4.571  10.785  1.7275  0.6284  0.8033
  115OSM    H1T12001   2.268   4.617  10.745  0.1015  1.1467 -3.3700
  115OSM     NF12002   2.129   4.533  10.518  0.2126 -0.3046 -0.1671
  115OSM    HNF12003   2.212   4.503  10.472  0.7882 -0.4311  0.9204
  115OSM    C2S12004   2.133   4.667  10.586  0.1131 -0.0722 -0.0245
  115OSM    H2S12005   2.034   4.715  10.570  1.4173  2.3855 -1.3405
  115OSM    C3S12006   2.238   4.766  10.518  0.6155 -0.0791 -0.2704
  115OSM    H3S12007   2.332   4.707  10.521 -0.4408 -1.7753  1.1630
  115OSM     O312008   2.255   4.888  10.598  0.2733  0.4540  0.2626
  115OSM    HO312009   2.192   4.888  10.670 -1.3870  1.2953 -1.1313
  115OSM    C4S12010   2.193   4.790  10.375 -0.0223 -0.2455  0.3704
  115OSM    H4S12011   2.199   4.695  10.321 -0.5830 -0.4958  0.7403
  115OSM    C5S12012   2.149   4.910  10.322 -0.4019  0.5632  0.1968
  115OSM    H5S12013   2.156   4.999  10.386 -0.0210 -0.4049  1.5326
  115OSM    C6S12014   2.103   4.935  10.181 -0.2688 -0.5746 -0.2435
  115OSM    H6S12015   2.123   5.040  10.151  0.3364  0.5416  3.4631
  115OSM    H6T12016   1.992   4.939  10.182 -0.3032  0.2387 -2.4217
  115OSM    C7S12017   2.154   4.844  10.069 -0.6039  0.2926  0.5636
  115OSM    H7S12018   2.146   4.736  10.095 -0.1962  0.2668  0.5857
  115OSM    H7T12019   2.262   4.854  10.045 -0.5106 -1.2728  0.1805
  115OSM    C8S12020   2.074   4.862   9.942  0.2403  0.6813  0.9611
  115OSM    H8S12021   2.086   4.966   9.905 -1.4843  0.8640  0.8544
  115OSM    H8T12022   1.973   4.839   9.983  0.8332 -1.3535  1.4220
  115OSM    C9S12023   2.119   4.777   9.822 -0.8411 -0.0382  0.6034
  115OSM    H9S12024   2.093   4.673   9.854  0.7416 -0.6891 -0.1235
  115OSM    H9T12025   2.229   4.774   9.812 -0.9690 -2.6579 -1.0580
  115OSM   C10S12026   2.050   4.810   9.688  0.2783  0.1838 -0.7976
  115OSM   H10S12027   1.947   4.839   9.717 -0.3862  0.1300 -2.9173
  115OSM   H10T12028   2.037   4.719   9.625 -0.8508  2.2168 -3.7319
  115OSM   C11S12029   2.129   4.921   9.611 -0.4924 -0.0712  0.4652
  115OSM   H11S12030   2.182   4.990   9.679 -1.0290  1.1085 -0.2874
  115OSM   H11T12031   2.059   4.991   9.561 -0.9375  1.7019  3.3851
  115OSM   C12S12032   2.217   4.867   9.498 -0.2761  0.1666  0.4599
  115OSM   H12S12033   2.272   4.773   9.516 -1.6994 -0.8605 -0.3019
  115OSM   H12T12034   2.296   4.944   9.485 -1.7119  1.5253 -0.7143
  115OSM   C13S12035   2.131   4.850   9.363 -0.3724  0.4514  0.4940
  115OSM   H13S12036   2.083   4.949   9.347 -0.8402  0.1440 -0.0191
  115OSM   H13T12037   2.046   4.782   9.384 -1.2282  1.2617 -0.2367
  115OSM   C14S12038   2.205   4.817   9.231  0.3807  0.2373 -0.0068
  115OSM   H14S12039   2.287   4.892   9.233 -2.2428  3.3150  0.5584
  115OSM   H14T12040   2.137   4.845   9.148 -1.2730 -2.4641  0.3182
  115OSM   C15S12041   2.250   4.673   9.210  0.4426 -0.1473  0.9821
  115OSM   H15S12042   2.160   4.609   9.216  0.6372 -1.0882 -3.1324
  115OSM   H15T12043   2.322   4.642   9.288  0.4853 -1.3069  0.4946
  115OSM   C16S12044   2.327   4.653   9.072 -0.1579  0.2482 -0.3210
  115OSM   H16S12045   2.283   4.705   8.984  1.2037  0.1811 -1.0748
  115OSM   H16T12046   2.326   4.545   9.044  0.4550 -0.1814  1.2049
  115OSM   C17S12047   2.471   4.703   9.077 -0.0336  0.3144  0.5839
  115OSM   H17S12048   2.530   4.662   9.161 -1.0163 -1.6185  0.3817
  115OSM   H17T12049   2.468   4.813   9.094 -1.2914  0.4626 -0.3953
  115OSM   C18S12050   2.532   4.675   8.936  0.6405  0.2466 -0.1754
  115OSM   H18S12051   2.625   4.732   8.916  0.5532  0.7205  0.7018
  115OSM   H18T12052   2.453   4.703   8.864 -0.6344 -3.1762 -0.2933
  115OSM   H18U12053   2.554   4.566   8.928 -1.1556 -0.1155 -0.5999
  115OSM    C1F12054   2.030   4.454  10.554  1.2291 -0.1566 -0.2567
  115OSM     OF12055   1.930   4.491  10.616  0.0776 -0.0366 -0.1539
  115OSM    C2F12056   2.034   4.305  10.513  0.5812 -0.6648 -0.4188
  115OSM    H2F12057   1.931   4.263  10.523 -0.2686  1.5998  1.2050
  115OSM    H2G12058   2.099   4.273  10.597  1.4702  2.1760  0.0770
  115OSM    C3F12059   2.097   4.284  10.369  0.1237  0.1751 -0.5837
  115OSM    H3F12060   2.207   4.299  10.370  0.0315  0.8965  0.3523
  115OSM    H3G12061   2.065   4.352  10.287 -0.0483  0.4988 -0.2514
  115OSM    C4F12062   2.084   4.137  10.320  0.2354  0.1428 -0.0144
  115OSM    H4F12063   1.980   4.099  10.322 -0.4685  1.9528  1.4198
  115OSM    H4G12064   2.135   4.065  10.387 -1.2732 -1.7865 -0.8533
  115OSM    C5F12065   2.150   4.128  10.180 -0.5433 -0.1771  0.2831
  115OSM    H5F12066   2.150   4.021  10.150  1.5036  0.3851 -1.9844
  115OSM    H5G12067   2.256   4.159  10.192 -1.4536  2.8378  1.5260
  115OSM    C6F12068   2.077   4.199  10.065  0.3303  0.5694  0.4864
  115OSM    H6F12069   2.068   4.309  10.073 -0.9157  0.5321 -0.1540
  115OSM    H6G12070   1.974   4.157  10.070  0.7800 -0.8269 -1.1093
  115OSM    C7F12071   2.143   4.147   9.930  0.4524 -0.1756 -0.2504
  115OSM    H7F12072   2.124   4.038   9.921  0.8369 -0.2844  0.1727
  115OSM    H7G12073   2.253   4.164   9.932  0.0467  2.7717  0.4466
  115OSM    C8F12074   2.085   4.218   9.803 -0.4618 -0.2723  0.2643
  115OSM    H8F12075   2.123   4.323   9.801 -1.1704  0.0928  2.8807
  115OSM    H8G12076   1.975   4.222   9.818 -0.6015  2.6924 -0.7418
  115OSM    C9F12077   2.126   4.148   9.680  0.4307 -0.0664 -0.0761
  115OSM    H9F12078   2.092   4.043   9.674  2.2474 -0.8011  1.3327
  115OSM   C10F12079   2.199   4.190   9.572  0.7660 -0.2231  0.1189
  115OSM   H10F12080   2.224   4.119   9.492  0.5675  0.5133 -0.6147
  115OSM   C11F12081   2.263   4.325   9.545  0.7268 -0.1548  0.1854
  115OSM   H11F12082   2.367   4.338   9.582  1.2009  0.2527 -1.2325
  115OSM   H11G12083   2.204   4.404   9.597 -1.3482 -0.9709 -0.8264
  115OSM   C12F12084   2.268   4.351   9.395  0.0883 -0.1704  0.8312
  115OSM   H12F12085   2.300   4.457   9.397 -0.9279  0.1359  2.5299
  115OSM   H12G12086   2.165   4.351   9.354  0.4675  0.0446 -0.1627
  115OSM   C13F12087   2.356   4.248   9.320 -0.2427  0.5410 -0.4083
  115OSM   H13F12088   2.306   4.149   9.310  2.5142 -0.9146 -0.5953
  115OSM   H13G12089   2.450   4.230   9.376 -0.1944  0.2888 -0.5683
  115OSM   C14F12090   2.395   4.280   9.172  0.7942  0.2484 -0.2999
  115OSM   H14F12091   2.444   4.380   9.174 -0.2228  0.7424  0.6230
  115OSM   H14G12092   2.297   4.303   9.126 -1.3610 -1.6514  2.9540
  115OSM   C15F12093   2.484   4.181   9.095  0.5023  0.1898  0.3255
  115OSM   H15F12094   2.417   4.096   9.073  0.2509  0.0241  1.6547
  115OSM   H15G12095   2.562   4.139   9.162 -0.1659 -1.4701  0.1024
  115OSM   C16F12096   2.553   4.229   8.959  0.1067  0.2803 -0.4042
  115OSM   H16F12097   2.489   4.318   8.940  1.8952  2.0283  1.3155
  115OSM   H16G12098   2.543   4.155   8.877 -0.0437  0.1718 -0.2893
  115OSM   C17F12099   2.697   4.288   8.967 -0.4506 -0.5296  0.2891
  115OSM   H17F12100   2.696   4.337   9.067 -0.8462  0.5273 -0.2300
  115OSM   H17G12101   2.709   4.362   8.885 -0.4697  0.0936  0.8435
  115OSM   C18F12102   2.811   4.176   8.967  0.2260  0.3616 -0.2940
  115OSM   H18F12103   2.816   4.141   8.861 -0.3715  0.5707 -0.3962
  115OSM   H18G12104   2.775   4.101   9.039  2.7606  0.5602  1.2963
  115OSM   H18H12105   2.915   4.207   8.992  1.8450 -4.0482 -0.6547
  116OSM      N12106   6.685   1.542  10.961 -1.1582 -0.7649  0.1113
  116OSM    C1512107   6.536   1.531  10.999  0.6995  0.5598 -0.2044
  116OSM   H15A12108   6.474   1.598  10.940 -1.7965  0.3143  1.9608
  116OSM   H15B12109   6.514   1.554  11.102 -1.1017  0.8937 -0.6268
  116OSM   H15C12110   6.501   1.433  10.971 -0.9837  1.0216  0.1782
  116OSM    C1412111   6.737   1.682  10.982 -0.6197  0.8966 -0.1752
  116OSM   H14A12112   6.841   1.692  10.955 -0.4167  2.1686  0.9367
  116OSM   H14B12113   6.747   1.705  11.088 -1.2017 -0.9166  0.3031
  116OSM   H14C12114   6.669   1.743  10.924 -2.0727 -0.6134 -0.1215
  116OSM    C1312115   6.758   1.445  11.047 -0.7386  0.2357  0.5959
  116OSM   H13A12116   6.749   1.470  11.152  1.4755  0.9741  0.6525
  116OSM   H13B12117   6.864   1.447  11.030 -0.5134 -0.1423  1.8574
  116OSM   H13C12118   6.724   1.344  11.029 -0.2259  0.5121 -2.4793
  116OSM    C1212119   6.716   1.505  10.815 -0.5431 -0.2682 -0.2832
  116OSM   H12A12120   6.808   1.550  10.783 -0.4331  1.1316  1.8021
  116OSM   H12B12121   6.633   1.547  10.761 -1.3630 -0.7173  0.5817
  116OSM    C1112122   6.708   1.351  10.770  0.0879 -0.0238 -0.1169
  116OSM   H11A12123   6.786   1.304  10.834  0.2913 -1.0999 -1.1259
  116OSM   H11B12124   6.722   1.353  10.660 -1.5766 -0.0442 -0.3434
  116OSM      P12125   6.572   1.134  10.798  0.0297 -0.1637 -0.2273
  116OSM    O1312126   6.674   1.081  10.890  0.0329  0.5801  0.6785
  116OSM    O1412127   6.426   1.095  10.826 -0.0906  0.2688  0.0810
  116OSM    O1112128   6.604   1.088  10.647  0.3202  0.3343 -0.4984
  116OSM    O1212129   6.579   1.294  10.799 -0.3683  0.3230  0.5647
  116OSM    C1S12130   6.526   1.138  10.541 -0.1541 -0.3134  0.2291
  116OSM    H1S12131   6.505   1.246  10.555  3.5487  0.5328  0.3433
  116OSM    H1T12132   6.426   1.089  10.540 -1.3731  1.9798  0.7124
  116OSM     NF12133   6.555   1.219  10.311  0.2975 -0.4119 -0.5808
  116OSM    HNF12134   6.507   1.177  10.234 -3.1366 -0.2085  1.2547
  116OSM    C2S12135   6.615   1.128  10.410  0.0119 -1.3111  0.3090
  116OSM    H2S12136   6.717   1.168  10.433 -1.3252  1.4590  1.9344
  116OSM    C3S12137   6.625   0.981  10.365  0.3846  0.6822  0.0496
  116OSM    H3S12138   6.522   0.945  10.349  0.7656  0.9287 -3.8939
  116OSM     O312139   6.680   0.890  10.459 -0.0204  0.1222  0.2893
  116OSM    HO312140   6.729   0.957  10.507 -0.2396  2.3780 -2.3752
  116OSM    C4S12141   6.696   0.970  10.227  0.4699  0.6995 -0.9556
  116OSM    H4S12142   6.628   0.914  10.161 -2.2790  1.5121  1.0087
  116OSM    C5S12143   6.816   1.021  10.188 -0.0627  0.5104 -1.1108
  116OSM    H5S12144   6.884   1.079  10.252  0.7012  0.8098 -2.1625
  116OSM    C6S12145   6.883   0.989  10.054 -0.7923 -0.2697 -0.3262
  116OSM    H6S12146   6.969   0.921  10.070  1.0561  1.4093 -2.4315
  116OSM    H6T12147   6.941   1.077  10.017  1.5072 -1.4538  0.3077
  116OSM    C7S12148   6.796   0.937   9.936 -0.3843 -0.9277 -0.5905
  116OSM    H7S12149   6.721   1.019   9.936 -0.7131 -1.1772  1.5504
  116OSM    H7T12150   6.759   0.836   9.963  0.8406 -0.7710  1.9619
  116OSM    C8S12151   6.888   0.931   9.813  0.2145  0.9459  0.1314
  116OSM    H8S12152   6.965   0.853   9.828  0.4654  1.1603 -0.0317
  116OSM    H8T12153   6.944   1.026   9.800  0.9534  0.6322  0.9292
  116OSM    C9S12154   6.794   0.904   9.696  0.7177  0.2096 -0.2330
  116OSM    H9S12155   6.719   0.986   9.695  1.5314  0.9770  0.3075
  116OSM    H9T12156   6.727   0.816   9.706  1.1272 -0.3211 -1.8633
  116OSM   C10S12157   6.869   0.885   9.557  0.2772 -0.3305  0.0072
  116OSM   H10S12158   6.937   0.797   9.554 -1.7718 -1.9429 -1.9101
  116OSM   H10T12159   6.922   0.980   9.534  1.2914 -1.0159 -0.5829
  116OSM   C11S12160   6.776   0.863   9.440 -0.5865  0.0664  0.4999
  116OSM   H11S12161   6.702   0.946   9.439 -1.8015 -0.9510  1.6082
  116OSM   H11T12162   6.707   0.776   9.449 -0.5819 -0.0976 -0.8464
  116OSM   C12S12163   6.836   0.867   9.299 -0.4656  0.1245  0.1106
  116OSM   H12S12164   6.931   0.810   9.293  0.1669  1.1215  0.4410
  116OSM   H12T12165   6.865   0.973   9.285  1.1634 -0.3391 -0.2204
  116OSM   C13S12166   6.737   0.821   9.195  0.0134 -0.0964  0.5423
  116OSM   H13S12167   6.641   0.875   9.209 -0.4895 -1.1334  1.2462
  116OSM   H13T12168   6.708   0.719   9.229 -0.4527  0.4284  1.7902
  116OSM   C14S12169   6.776   0.833   9.043 -0.1899 -0.2546 -0.2188
  116OSM   H14S12170   6.747   0.934   9.006  1.1679  0.1181 -0.3426
  116OSM   H14T12171   6.709   0.773   8.978 -0.0260  1.2219 -1.8171
  116OSM   C15S12172   6.928   0.789   9.017  0.6379 -0.0481 -0.1508
  116OSM   H15S12173   6.952   0.695   9.069 -1.1212 -1.2476 -1.3955
  116OSM   H15T12174   6.989   0.878   9.046  0.3402  0.1693 -0.1832
  116OSM   C16S12175   6.947   0.764   8.869  0.2596  0.5478  0.7045
  116OSM   H16S12176   6.909   0.847   8.804  1.2647  0.5262  0.0669
  116OSM   H16T12177   6.872   0.689   8.837 -1.1646  2.1259  0.1367
  116OSM   C17S12178   7.085   0.736   8.818  0.1969 -0.4297 -0.0189
  116OSM   H17S12179   7.131   0.651   8.873  1.2002 -0.4193 -0.7984
  116OSM   H17T12180   7.142   0.825   8.854  0.7468 -1.5709  2.0901
  116OSM   C18S12181   7.083   0.714   8.667  0.7657  0.1725 -0.7642
  116OSM   H18S12182   7.064   0.810   8.615  1.1467  0.7968  0.2160
  116OSM   H18T12183   7.001   0.642   8.646 -1.0626  2.2576 -1.1664
  116OSM   H18U12184   7.178   0.663   8.642  1.2844  0.5428  0.3610
  116OSM    C1F12185   6.564   1.348  10.312  0.2001 -0.8332  0.1680
  116OSM     OF12186   6.644   1.405  10.382 -0.3156  0.1824 -0.0026
  116OSM    C2F12187   6.480   1.418  10.214  0.5207 -0.0031  0.7345
  116OSM    H2F12188   6.391   1.357  10.186 -2.7738  5.5890 -2.8599
  116OSM    H2G12189   6.544   1.423  10.123 -2.0914  2.3191 -1.1596
  116OSM    C3F12190   6.429   1.555  10.257  0.8934 -0.4360 -0.2762
  116OSM    H3F12191   6.518   1.620  10.272  1.9360 -2.3716  2.9853
  116OSM    H3G12192   6.387   1.545  10.359 -3.7234  0.4017 -1.8691
  116OSM    C4F12193   6.317   1.614  10.173 -0.5596  0.4089 -0.2721
  116OSM    H4F12194   6.270   1.690  10.240 -2.5616  1.5942 -2.8419
  116OSM    H4G12195   6.240   1.537  10.151 -1.6695  1.4445 -0.1402
  116OSM    C5F12196   6.373   1.684  10.047  0.1469  0.1905 -0.3699
  116OSM    H5F12197   6.420   1.610   9.979 -1.4139  0.1925 -1.5120
  116OSM    H5G12198   6.455   1.745  10.090  0.3125 -0.6124  0.4832
  116OSM    C6F12199   6.275   1.767   9.964  0.0665 -0.3224  0.1358
  116OSM    H6F12200   6.202   1.822  10.026 -1.3908 -3.9745  1.9781
  116OSM    H6G12201   6.221   1.693   9.900  1.5110 -0.9309 -0.4063
  116OSM    C7F12202   6.355   1.845   9.864  0.4103 -0.2187  0.0559
  116OSM    H7F12203   6.428   1.779   9.814 -0.2566 -0.3702 -0.7423
  116OSM    H7G12204   6.424   1.916   9.914 -0.6534  0.8488  0.0570
  116OSM    C8F12205   6.269   1.924   9.766 -0.5165 -0.2652 -0.4610
  116OSM    H8F12206   6.332   1.994   9.707 -0.9226  2.4859  2.0831
  116OSM    H8G12207   6.197   1.985   9.826 -0.7351 -1.3100  0.3783
  116OSM    C9F12208   6.193   1.836   9.670  0.0754  0.2351  0.3133
  116OSM    H9F12209   6.116   1.772   9.716 -0.5905 -1.0019 -2.3059
  116OSM   C10F12210   6.200   1.845   9.530 -0.5550 -0.3012  0.6711
  116OSM   H10F12211   6.139   1.778   9.468 -1.1585  0.4490  0.4325
  116OSM   C11F12212   6.283   1.934   9.434 -0.6763 -0.3578  0.2996
  116OSM   H11F12213   6.379   1.884   9.406  0.1880 -0.6430  3.4041
  116OSM   H11G12214   6.320   2.024   9.489 -0.3351 -0.9957  1.1362
  116OSM   C12F12215   6.205   1.985   9.311  0.2705 -0.2736  0.1824
  116OSM   H12F12216   6.238   2.086   9.279 -0.3580  0.2382  1.0939
  116OSM   H12G12217   6.097   1.981   9.336 -0.0288  0.6996 -0.8780
  116OSM   C13F12218   6.223   1.887   9.190 -0.6895 -1.0763 -0.9751
  116OSM   H13F12219   6.207   1.781   9.221  4.9577 -2.2567 -0.9195
  116OSM   H13G12220   6.325   1.889   9.145 -0.2953  0.3642 -0.0681
  116OSM   C14F12221   6.124   1.917   9.079  0.1070 -0.3441 -0.6384
  116OSM   H14F12222   6.143   2.022   9.050 -0.6154  1.0803  3.3307
  116OSM   H14G12223   6.026   1.924   9.132  0.3656 -1.3586  0.0098
  116OSM   C15F12224   6.126   1.818   8.967 -0.0695 -0.3737  0.8728
  116OSM   H15F12225   6.039   1.814   8.898  1.9495  1.3240 -2.0330
  116OSM   H15G12226   6.137   1.711   8.997  1.2084 -0.6964 -0.5822
  116OSM   C16F12227   6.242   1.832   8.861 -0.0723 -0.2243  0.6868
  116OSM   H16F12228   6.230   1.750   8.787  0.2505  0.9164 -0.6747
  116OSM   H16G12229   6.337   1.810   8.915 -0.1272 -2.5510 -0.0878
  116OSM   C17F12230   6.256   1.968   8.790  0.0947  0.0201  0.1117
  116OSM   H17F12231   6.344   1.950   8.724 -0.7008 -0.8690 -0.7606
  116OSM   H17G12232   6.277   2.048   8.863  1.3235  0.3279 -0.5494
  116OSM   C18F12233   6.137   2.010   8.705 -0.3056 -0.5261  0.3731
  116OSM   H18F12234   6.139   2.119   8.687 -0.0434 -0.1676  2.3628
  116OSM   H18G12235   6.038   2.012   8.757 -1.8482 -2.2715 -2.2571
  116OSM   H18H12236   6.134   1.947   8.614  2.1606  0.1870 -0.2728
  117OSM      N12237   3.649   0.870  11.255  0.6219 -0.0211  0.4367
  117OSM    C1512238   3.508   0.848  11.294 -0.5553 -0.4382  0.2779
  117OSM   H15A12239   3.472   0.948  11.317 -0.4352 -0.3222 -0.0325
  117OSM   H15B12240   3.487   0.782  11.376 -0.7052 -0.1510  0.4721
  117OSM   H15C12241   3.449   0.825  11.207 -1.9608  0.5265  0.9426
  117OSM    C1412242   3.718   0.957  11.355  0.2144 -0.5783  0.2599
  117OSM   H14A12243   3.688   1.060  11.344 -2.0854 -1.2569 -0.2708
  117OSM   H14B12244   3.825   0.950  11.343 -0.1054 -3.2467 -2.5163
  117OSM   H14C12245   3.688   0.916  11.450  0.5070  1.2492  1.1629
  117OSM    C1312246   3.717   0.740  11.241 -0.7035 -0.9997  0.0983
  117OSM   H13A12247   3.825   0.753  11.247 -1.0393  1.8836  2.4227
  117OSM   H13B12248   3.684   0.678  11.159  0.2531 -1.0005 -0.3069
  117OSM   H13C12249   3.705   0.673  11.325 -0.6782 -0.5199  0.4932
  117OSM    C1212250   3.646   0.944  11.120 -0.0674  0.4190 -0.9679
  117OSM   H12A12251   3.749   0.956  11.091  0.5125 -2.8697 -0.6437
  117OSM   H12B12252   3.600   1.042  11.128 -0.1651  0.3747 -0.9799
  117OSM    C1112253   3.574   0.886  10.991 -0.5944 -0.5574  0.7280
  117OSM   H11A12254   3.628   0.795  10.958 -1.2020 -0.2329 -1.3423
  117OSM   H11B12255   3.586   0.957  10.906 -1.6404 -2.0598 -0.7341
  117OSM      P12256   3.329   0.949  10.925  0.4858  0.3749  0.4802
  117OSM    O1312257   3.196   0.878  10.913 -0.3532 -0.4015 -0.1660
  117OSM    O1412258   3.329   1.080  10.989 -0.1762 -0.3714 -0.2072
  117OSM    O1112259   3.389   0.961  10.783 -0.2961 -0.4415  0.1211
  117OSM    O1212260   3.433   0.855  11.000 -0.4037 -0.9647  0.6306
  117OSM    C1S12261   3.401   0.850  10.690  0.4424  0.0241  0.5640
  117OSM    H1S12262   3.299   0.811  10.666  0.3558 -0.9132  2.3021
  117OSM    H1T12263   3.469   0.775  10.735  1.3954  0.4166 -0.1905
  117OSM     NF12264   3.436   0.813  10.444 -0.3478 -0.1796  0.0001
  117OSM    HNF12265   3.499   0.735  10.441 -0.0318  0.0969 -0.7972
  117OSM    C2S12266   3.456   0.905  10.558  0.1923  0.0861  0.6978
  117OSM    H2S12267   3.406   0.999  10.526 -1.4791 -0.9118  0.2472
  117OSM    C3S12268   3.610   0.940  10.569  0.4084 -0.5309  0.2768
  117OSM    H3S12269   3.680   0.857  10.594  1.2293 -0.1215 -0.5757
  117OSM     O312270   3.643   1.033  10.668  0.8466 -0.1994 -0.0918
  117OSM    HO312271   3.570   1.020  10.729  0.1992 -0.8164 -0.9849
  117OSM    C4S12272   3.657   1.002  10.438  0.3275 -0.0422  0.3714
  117OSM    H4S12273   3.606   1.093  10.402 -0.7393 -1.0348 -0.7397
  117OSM    C5S12274   3.756   0.956  10.368 -0.2195  0.7687 -0.3605
  117OSM    H5S12275   3.802   0.863  10.404  1.8682  1.6343 -0.6542
  117OSM    C6S12276   3.826   1.002  10.239  0.3995  0.2025  0.3167
  117OSM    H6S12277   3.840   0.915  10.173  1.3105  0.5674  0.0119
  117OSM    H6T12278   3.931   1.035  10.255  0.3312  2.2529 -2.6856
  117OSM    C7S12279   3.743   1.109  10.162 -0.1858  0.3158 -0.0399
  117OSM    H7S12280   3.720   1.199  10.222 -1.7331 -0.5437  0.7118
  117OSM    H7T12281   3.650   1.055  10.135  0.8663 -0.5405 -2.1964
  117OSM    C8S12282   3.807   1.154  10.025 -0.3201 -1.0280 -0.0465
  117OSM    H8S12283   3.905   1.198  10.055 -0.8389  0.4683 -0.4508
  117OSM    H8T12284   3.738   1.228   9.979 -0.4456 -1.4247 -0.4997
  117OSM    C9S12285   3.834   1.034   9.934 -0.1106  0.1014 -0.4975
  117OSM    H9S12286   3.740   0.978   9.916  1.1286 -2.0521 -0.6728
  117OSM    H9T12287   3.897   0.964   9.993  0.1086  2.1238  1.8077
  117OSM   C10S12288   3.897   1.081   9.802 -0.6409  0.5425  0.1476
  117OSM   H10S12289   3.995   1.133   9.813  0.4378 -0.7054 -2.6753
  117OSM   H10T12290   3.831   1.147   9.743  1.0205  1.0623 -1.2140
  117OSM   C11S12291   3.925   0.967   9.705  0.2295 -0.6896 -0.1332
  117OSM   H11S12292   3.831   0.910   9.697  0.7906 -1.6106 -0.2643
  117OSM   H11T12293   3.994   0.888   9.742  1.2958  0.5554  0.6193
  117OSM   C12S12294   3.975   1.022   9.566  0.5632 -0.3047 -0.1803
  117OSM   H12S12295   4.063   1.089   9.582 -0.9258  2.0749 -1.3196
  117OSM   H12T12296   3.897   1.090   9.525  0.4410 -1.2237 -1.5408
  117OSM   C13S12297   3.994   0.914   9.459  0.1137  0.5294  0.2986
  117OSM   H13S12298   3.916   0.835   9.451  0.9269 -0.2565 -0.0330
  117OSM   H13T12299   4.083   0.854   9.485  0.5898  0.6592 -0.9686
  117OSM   C14S12300   4.010   0.965   9.312  0.0882 -0.3781  0.3495
  117OSM   H14S12301   4.086   1.046   9.305 -1.4611  0.9381 -2.5296
  117OSM   H14T12302   3.924   1.029   9.285  1.0433  1.4087  1.3132
  117OSM   C15S12303   4.029   0.857   9.197  0.7291  1.0180  0.3891
  117OSM   H15S12304   3.969   0.764   9.213 -0.0615  1.0097 -2.1347
  117OSM   H15T12305   4.134   0.824   9.183 -0.1357 -1.6885 -0.3598
  117OSM   C16S12306   3.984   0.919   9.067  0.3862  0.3982 -0.1212
  117OSM   H16S12307   4.062   0.997   9.055  0.3203  0.9661  2.4861
  117OSM   H16T12308   3.887   0.973   9.073  1.0996  1.6970 -0.0699
  117OSM   C17S12309   3.981   0.814   8.956 -1.2503 -0.0862  0.4038
  117OSM   H17S12310   3.901   0.826   8.879  0.8140 -1.2993 -2.1099
  117OSM   H17T12311   3.964   0.715   9.003  1.9270 -1.1961 -0.5207
  117OSM   C18S12312   4.105   0.812   8.871 -0.4973  0.3172 -0.7577
  117OSM   H18S12313   4.134   0.910   8.827 -0.6599  0.8983  0.3794
  117OSM   H18T12314   4.088   0.755   8.778 -0.3048  2.1559 -1.9679
  117OSM   H18U12315   4.187   0.756   8.921 -1.4003 -3.0238 -2.7003
  117OSM    C1F12316   3.321   0.800  10.381  0.7357  0.1426  0.3180
  117OSM     OF12317   3.248   0.901  10.374  0.1960 -0.2114  0.0939
  117OSM    C2F12318   3.295   0.666  10.316  0.2880 -0.9454  0.1580
  117OSM    H2F12319   3.206   0.624  10.368 -0.5741  0.3230 -0.2542
  117OSM    H2G12320   3.383   0.600  10.332  0.7484 -0.2782  0.4379
  117OSM    C3F12321   3.253   0.677  10.166  0.2136  0.1070 -0.0286
  117OSM    H3F12322   3.148   0.713  10.162 -0.9694 -3.1146 -1.3285
  117OSM    H3G12323   3.248   0.571  10.133  0.3724  0.0053  0.2684
  117OSM    C4F12324   3.343   0.759  10.082 -0.5705 -0.4008  0.3310
  117OSM    H4F12325   3.450   0.737  10.101  0.5955  3.2416 -1.2532
  117OSM    H4G12326   3.323   0.866  10.103  1.9100  0.0943  0.4585
  117OSM    C5F12327   3.309   0.738   9.931 -0.3369 -0.0754  0.8015
  117OSM    H5F12328   3.202   0.760   9.910  0.4002  1.7753 -1.4023
  117OSM    H5G12329   3.331   0.635   9.896 -1.7629 -1.0003  2.4721
  117OSM    C6F12330   3.383   0.829   9.830  0.7272  1.0951  0.0213
  117OSM    H6F12331   3.491   0.802   9.829  0.3806 -0.7452 -2.9858
  117OSM    H6G12332   3.369   0.927   9.879  3.4679  0.7532  1.7144
  117OSM    C7F12333   3.315   0.844   9.699 -0.4893  0.5150 -0.0037
  117OSM    H7F12334   3.345   0.935   9.643 -0.2434 -0.0375 -0.7871
  117OSM    H7G12335   3.206   0.838   9.714 -0.1355 -0.8963  2.6441
  117OSM    C8F12336   3.346   0.722   9.611 -0.2680  0.0443 -0.3870
  117OSM    H8F12337   3.317   0.630   9.665  1.7281  0.3299  1.2980
  117OSM    H8G12338   3.456   0.713   9.598  0.0247 -1.0828  2.2123
  117OSM    C9F12339   3.269   0.733   9.480 -0.7568  0.2517  0.7735
  117OSM    H9F12340   3.161   0.718   9.492 -0.7000  0.8991  2.3932
  117OSM   C10F12341   3.312   0.750   9.358  0.3090 -0.1424 -0.1953
  117OSM   H10F12342   3.239   0.758   9.276  1.3867  1.1156 -1.0888
  117OSM   C11F12343   3.450   0.760   9.307  0.0161 -0.5145  0.2677
  117OSM   H11F12344   3.493   0.660   9.288  1.3564  0.3510 -1.6385
  117OSM   H11G12345   3.513   0.810   9.383 -1.1682  2.0045 -0.3026
  117OSM   C12F12346   3.460   0.849   9.179  0.2980  0.1821 -0.2915
  117OSM   H12F12347   3.568   0.875   9.173  0.4610 -0.5454 -0.5725
  117OSM   H12G12348   3.403   0.944   9.192 -1.2369 -0.5891 -1.1696
  117OSM   C13F12349   3.415   0.783   9.049 -0.1270 -0.5527  0.3659
  117OSM   H13F12350   3.304   0.780   9.060 -0.4134  1.5172 -1.4314
  117OSM   H13G12351   3.445   0.676   9.057 -1.6766 -0.9946  0.6014
  117OSM   C14F12352   3.472   0.837   8.920  0.9224 -0.4017  0.6337
  117OSM   H14F12353   3.583   0.846   8.926  1.0008 -0.6916 -0.2348
  117OSM   H14G12354   3.427   0.939   8.915 -2.1414 -1.6396  0.8772
  117OSM   C15F12355   3.429   0.758   8.799 -0.6876  0.2844 -0.0692
  117OSM   H15F12356   3.319   0.766   8.781 -0.5623 -0.8647 -1.5276
  117OSM   H15G12357   3.447   0.654   8.832 -3.2307 -0.3023 -0.2511
  117OSM   C16F12358   3.490   0.798   8.656 -0.2552 -0.1300 -0.8284
  117OSM   H16F12359   3.446   0.736   8.575  2.8579 -1.1016 -1.8764
  117OSM   H16G12360   3.599   0.778   8.652 -0.1968  0.0929 -0.3890
  117OSM   C17F12361   3.455   0.947   8.629 -0.0004 -0.1460  0.1439
  117OSM   H17F12362   3.498   1.007   8.712 -2.4976  1.2139  0.5622
  117OSM   H17G12363   3.350   0.984   8.632  0.6076  1.6923  0.3813
  117OSM   C18F12364   3.498   0.998   8.494 -0.0338  0.0433  0.2859
  117OSM   H18F12365   3.465   1.102   8.477  0.8915  0.3739  0.4267
  117OSM   H18G12366   3.457   0.946   8.405  2.0101 -0.8011 -0.2242
  117OSM   H18H12367   3.607   0.987   8.476 -0.3060 -1.2131 -0.7721
  118OSM      N12368   3.728   3.726  11.276  0.0386  0.7414  0.0263
  118OSM    C1512369   3.637   3.604  11.289  0.1087  0.2210  0.3675
  118OSM   H15A12370   3.671   3.541  11.208 -0.6789  0.4725 -0.1672
  118OSM   H15B12371   3.534   3.632  11.270  0.4281 -0.0828 -2.1127
  118OSM   H15C12372   3.651   3.562  11.388  0.3635 -0.2423  0.1390
  118OSM    C1412373   3.678   3.827  11.371  0.1403 -0.4422  0.8809
  118OSM   H14A12374   3.762   3.889  11.400  0.1030  0.6766 -1.1822
  118OSM   H14B12375   3.645   3.773  11.458  1.7434 -1.8733  0.6526
  118OSM   H14C12376   3.597   3.876  11.319 -0.1414  0.2966  1.9700
  118OSM    C1312377   3.867   3.691  11.318  0.5277 -0.2455  0.6094
  118OSM   H13A12378   3.928   3.778  11.336  1.0554 -0.8012  1.6163
  118OSM   H13B12379   3.910   3.639  11.233  0.4117  0.0644  0.3592
  118OSM   H13C12380   3.866   3.621  11.401 -1.5317 -0.6357  0.3163
  118OSM    C1212381   3.720   3.782  11.132  0.0989  0.1650 -0.1955
  118OSM   H12A12382   3.800   3.854  11.124 -1.1838  1.9511  1.8468
  118OSM   H12B12383   3.631   3.843  11.120 -0.3271 -0.5529 -0.7966
  118OSM    C1112384   3.736   3.683  11.013 -0.0260  0.4837  0.4985
  118OSM   H11A12385   3.745   3.732  10.913  0.0418  0.6795  0.6011
  118OSM   H11B12386   3.647   3.617  11.010  2.1683 -2.7707  1.9626
  118OSM      P12387   3.864   3.452  11.005  0.4359  0.1887 -0.3675
  118OSM    O1312388   3.999   3.408  11.016 -0.6167  0.2175  0.5023
  118OSM    O1412389   3.762   3.382  11.096  0.0145 -0.4207  0.4224
  118OSM    O1112390   3.811   3.436  10.861 -0.4302 -0.0163 -0.5947
  118OSM    O1212391   3.856   3.605  11.030  0.3523 -0.3181  0.5812
  118OSM    C1S12392   3.890   3.496  10.757 -0.9286 -0.6165 -0.0303
  118OSM    H1S12393   3.993   3.454  10.753  0.0228  1.7009 -2.1457
  118OSM    H1T12394   3.901   3.605  10.773  0.5059 -0.3948 -2.0614
  118OSM     NF12395   3.911   3.550  10.513 -0.1756 -0.4258 -0.0988
  118OSM    HNF12396   3.865   3.629  10.472  0.8402  0.0513 -0.3600
  118OSM    C2S12397   3.834   3.483  10.613 -0.0973 -0.0154 -0.1118
  118OSM    H2S12398   3.836   3.375  10.585 -1.8841 -0.8292  2.4552
  118OSM    C3S12399   3.688   3.537  10.609  0.4464 -0.0060  0.5811
  118OSM    H3S12400   3.692   3.646  10.592  0.3098 -0.1503 -0.4851
  118OSM     O312401   3.605   3.521  10.730  0.1444  0.5865 -0.1613
  118OSM    HO312402   3.655   3.494  10.807 -1.8107  0.1921  1.0526
  118OSM    C4S12403   3.606   3.480  10.497  0.0613 -0.1315  0.3472
  118OSM    H4S12404   3.616   3.370  10.489  0.6693  0.0184 -1.2679
  118OSM    C5S12405   3.520   3.540  10.416 -0.4554 -0.8349  0.7130
  118OSM    H5S12406   3.536   3.648  10.399  3.2303 -0.8817  2.8790
  118OSM    C6S12407   3.444   3.470  10.310 -1.0457  0.9994  0.0828
  118OSM    H6S12408   3.413   3.534  10.225 -0.1965  0.7107 -0.4527
  118OSM    H6T12409   3.352   3.432  10.360 -0.1222 -1.0966  0.2985
  118OSM    C7S12410   3.520   3.348  10.251  0.3790  0.3303 -0.1880
  118OSM    H7S12411   3.535   3.280  10.337 -2.1553  0.2790  0.2812
  118OSM    H7T12412   3.620   3.386  10.220  0.0497  3.2651  1.9881
  118OSM    C8S12413   3.450   3.287  10.137  0.2910  0.7179 -0.1085
  118OSM    H8S12414   3.342   3.264  10.151 -0.2476 -0.3258 -4.4302
  118OSM    H8T12415   3.483   3.183  10.117 -0.1549  0.8307 -1.5491
  118OSM    C9S12416   3.463   3.363  10.004  0.0473 -0.2566  0.2736
  118OSM    H9S12417   3.566   3.400   9.985  0.1990 -0.9233 -0.2166
  118OSM    H9T12418   3.401   3.454   9.992 -1.6227 -1.2596  0.9196
  118OSM   C10S12419   3.430   3.268   9.886 -0.3260 -0.4002  0.0534
  118OSM   H10S12420   3.321   3.258   9.870 -0.8159  1.4978  1.7142
  118OSM   H10T12421   3.480   3.174   9.916  1.7911  0.9510  1.0011
  118OSM   C11S12422   3.493   3.324   9.763 -0.4422  0.1828  0.0768
  118OSM   H11S12423   3.603   3.326   9.777 -0.4035  0.6494 -0.2652
  118OSM   H11T12424   3.465   3.430   9.748 -1.6952  0.0842  1.5269
  118OSM   C12S12425   3.468   3.230   9.646 -1.1659 -0.0797  0.5189
  118OSM   H12S12426   3.363   3.197   9.628 -0.5746 -0.9383 -1.8453
  118OSM   H12T12427   3.528   3.138   9.665 -1.2927  0.0334  1.4874
  118OSM   C13S12428   3.512   3.308   9.519 -0.0723  0.7116 -0.3069
  118OSM   H13S12429   3.523   3.416   9.545 -0.8165  0.4444  1.2185
  118OSM   H13T12430   3.428   3.301   9.446 -0.8646  1.0662  0.5403
  118OSM   C14S12431   3.636   3.254   9.452  0.2555  0.0632  0.3472
  118OSM   H14S12432   3.624   3.149   9.416 -1.8372  0.9609 -1.8487
  118OSM   H14T12433   3.714   3.247   9.531  1.1199 -2.2961 -0.6060
  118OSM   C15S12434   3.685   3.342   9.336 -0.1781 -0.1966 -0.3039
  118OSM   H15S12435   3.792   3.318   9.322  0.2839  0.0136  2.3114
  118OSM   H15T12436   3.673   3.450   9.361 -1.3094 -0.2847 -0.4015
  118OSM   C16S12437   3.608   3.316   9.201 -0.5271  0.7369  1.0975
  118OSM   H16S12438   3.497   3.314   9.208 -0.5884  0.2240  0.0762
  118OSM   H16T12439   3.641   3.218   9.162  1.5433  1.4587  0.8645
  118OSM   C17S12440   3.643   3.414   9.089 -0.1411  0.2862 -0.4060
  118OSM   H17S12441   3.749   3.394   9.062 -0.3263 -0.5348 -0.5382
  118OSM   H17T12442   3.637   3.521   9.117  1.0136 -0.1006  1.5514
  118OSM   C18S12443   3.548   3.396   8.972  1.0701 -0.3075  0.1427
  118OSM   H18S12444   3.586   3.458   8.888 -0.8746  0.3927 -0.2706
  118OSM   H18T12445   3.447   3.439   8.990 -0.1758 -3.2430  0.6566
  118OSM   H18U12446   3.533   3.288   8.953  0.3096  0.0756 -1.6094
  118OSM    C1F12447   4.029   3.500  10.467  0.8419 -0.4898  0.1417
  118OSM     OF12448   4.065   3.384  10.492 -0.1724  0.3965  0.2387
  118OSM    C2F12449   4.114   3.596  10.387 -0.1696 -0.4387 -0.2741
  118OSM    H2F12450   4.200   3.630  10.448  0.3224  3.8567 -2.9036
  118OSM    H2G12451   4.060   3.688  10.355  1.5362  0.1815 -1.5558
  118OSM    C3F12452   4.167   3.514  10.265  0.1307  0.4268  0.2187
  118OSM    H3F12453   4.215   3.417  10.291 -1.3783 -1.0065 -1.9498
  118OSM    H3G12454   4.244   3.572  10.212  0.7113  0.0733  0.6619
  118OSM    C4F12455   4.045   3.481  10.172  0.0108  0.0613 -0.1309
  118OSM    H4F12456   3.988   3.573  10.148  0.1123  0.3150  0.5851
  118OSM    H4G12457   3.978   3.407  10.222  0.9390 -1.6166 -1.2561
  118OSM    C5F12458   4.092   3.425  10.040  0.6192  1.2470 -0.3975
  118OSM    H5F12459   4.131   3.322  10.060  0.2547  1.4879  1.8695
  118OSM    H5G12460   4.166   3.491   9.989  0.7472  1.3330 -0.1033
  118OSM    C6F12461   3.975   3.400   9.935 -0.0615  0.2060 -0.5156
  118OSM    H6F12462   3.910   3.490   9.931 -0.8351 -0.3262 -0.0291
  118OSM    H6G12463   3.912   3.322   9.983  1.7242 -0.5991  0.6454
  118OSM    C7F12464   4.034   3.363   9.800  0.2696 -0.9092  0.7721
  118OSM    H7F12465   4.096   3.273   9.819  2.3406  0.0267 -1.1481
  118OSM    H7G12466   4.114   3.437   9.780  0.3367 -0.6184  2.0294
  118OSM    C8F12467   3.940   3.345   9.681 -0.1358  0.2942 -0.3995
  118OSM    H8F12468   3.865   3.269   9.709  0.7142 -1.2871 -2.1933
  118OSM    H8G12469   3.993   3.285   9.604  0.5642  0.2393  0.1198
  118OSM    C9F12470   3.885   3.471   9.631  0.1801 -0.0505  0.0814
  118OSM    H9F12471   3.800   3.509   9.690 -0.6902 -1.1473 -0.4157
  118OSM   C10F12472   3.932   3.544   9.522 -0.0521  0.0518 -0.1229
  118OSM   H10F12473   3.895   3.645   9.499 -2.2117 -0.4927  0.7699
  118OSM   C11F12474   4.045   3.494   9.433 -0.0081 -0.3044 -0.6488
  118OSM   H11F12475   4.068   3.385   9.436  1.4932 -0.0087  1.8110
  118OSM   H11G12476   4.149   3.524   9.461 -0.1703 -0.8308  0.6186
  118OSM   C12F12477   4.016   3.552   9.298  0.5653 -0.0320  0.1372
  118OSM   H12F12478   4.032   3.662   9.297 -1.0794  0.3210  2.8833
  118OSM   H12G12479   3.911   3.526   9.275 -0.4817  0.7684  3.5125
  118OSM   C13F12480   4.100   3.483   9.190  0.2660 -0.7360  0.6150
  118OSM   H13F12481   4.075   3.376   9.201 -0.8369 -0.3813  1.7934
  118OSM   H13G12482   4.210   3.483   9.208  0.3920 -0.7111 -0.1127
  118OSM   C14F12483   4.082   3.549   9.050 -0.2654 -0.7780 -0.8163
  118OSM   H14F12484   4.163   3.624   9.041 -0.4144 -0.2098  1.7700
  118OSM   H14G12485   3.989   3.611   9.050 -0.3841 -0.8830 -2.9844
  118OSM   C15F12486   4.083   3.446   8.944  0.0157 -0.3264 -0.4133
  118OSM   H15F12487   4.003   3.369   8.949  0.7002 -1.0742 -0.6292
  118OSM   H15G12488   4.174   3.386   8.968  1.1648  1.3298 -0.4108
  118OSM   C16F12489   4.090   3.510   8.804  0.1250 -0.1081 -0.2881
  118OSM   H16F12490   4.074   3.437   8.722 -1.3332 -0.2334  0.0860
  118OSM   H16G12491   4.191   3.555   8.797  1.2732 -1.7799  3.1347
  118OSM   C17F12492   3.999   3.633   8.778  0.1339 -0.0069  1.1139
  118OSM   H17F12493   4.033   3.676   8.681 -4.3363 -2.4571 -1.9247
  118OSM   H17G12494   4.011   3.701   8.864 -0.0891 -0.4786  1.5251
  118OSM   C18F12495   3.864   3.577   8.750  0.7801 -0.2908  0.1007
  118OSM   H18F12496   3.848   3.486   8.812 -2.0305 -1.1216 -1.6504
  118OSM   H18G12497   3.856   3.557   8.641 -0.7647  0.2962  0.0827
  118OSM   H18H12498   3.787   3.655   8.767  0.1444 -0.6510 -1.0451
  119OSM      N12499   4.930   1.798  11.371 -0.6057 -0.1719 -0.4114
  119OSM    C1512500   4.874   1.738  11.500  0.4097  0.3713 -0.0873
  119OSM   H15A12501   4.771   1.707  11.488 -0.1684  1.0434  2.5647
  119OSM   H15B12502   4.866   1.810  11.580 -0.9308  0.3131 -0.1467
  119OSM   H15C12503   4.928   1.650  11.530 -2.5357 -0.9954  1.6149
  119OSM    C1412504   4.869   1.936  11.359  0.2989  0.0946  0.0907
  119OSM   H14A12505   4.887   1.993  11.449 -2.1713  2.4468 -0.7761
  119OSM   H14B12506   4.766   1.943  11.327 -0.0451  2.1513  1.4426
  119OSM   H14C12507   4.933   1.995  11.295 -3.9472  4.1692 -0.9398
  119OSM    C1312508   5.076   1.819  11.380  0.1780 -0.5522 -0.5542
  119OSM   H13A12509   5.099   1.881  11.466  1.0680  0.0274 -1.1902
  119OSM   H13B12510   5.120   1.858  11.289 -0.1939 -0.3893 -0.6682
  119OSM   H13C12511   5.119   1.723  11.403 -0.9309 -0.5549  1.7682
  119OSM    C1212512   4.897   1.719  11.250  0.2136  1.0710 -0.6073
  119OSM   H12A12513   4.791   1.699  11.247  0.5782 -1.1033 -1.2268
  119OSM   H12B12514   4.953   1.626  11.249  0.6024  1.3034 -0.5877
  119OSM    C1112515   4.920   1.785  11.111  0.3475 -0.0600 -0.8324
  119OSM   H11A12516   4.867   1.882  11.107  2.7023  1.3171 -0.3152
  119OSM   H11B12517   4.868   1.721  11.037 -1.0823 -1.3063  1.1413
  119OSM      P12518   5.143   1.685  11.053  0.0630  0.2248  0.2859
  119OSM    O1312519   5.264   1.698  11.132 -0.7169 -0.2527 -0.0730
  119OSM    O1412520   5.065   1.560  11.065  0.7176 -0.1987  0.4507
  119OSM    O1112521   5.179   1.705  10.898  0.4097 -0.4574  0.1259
  119OSM    O1212522   5.056   1.815  11.080  0.0284  0.2154  0.0199
  119OSM    C1S12523   5.083   1.673  10.798 -0.3178 -0.3311 -0.4727
  119OSM    H1S12524   4.983   1.714  10.826  0.0287 -0.4654  1.0596
  119OSM    H1T12525   5.074   1.563  10.797 -0.5825 -0.3167  0.0207
  119OSM     NF12526   5.006   1.729  10.570 -0.2467 -0.6399  0.1264
  119OSM    HNF12527   5.000   1.661  10.498  1.4538  2.1472 -2.9170
  119OSM    C2S12528   5.125   1.728  10.657 -0.1495  0.3515 -0.1097
  119OSM    H2S12529   5.157   1.832  10.675 -1.2241  1.2007 -2.6423
  119OSM    C3S12530   5.255   1.654  10.607 -0.6136 -0.3751 -0.2418
  119OSM    H3S12531   5.227   1.547  10.594 -1.2879 -0.3006  0.4642
  119OSM     O312532   5.368   1.655  10.698 -0.0389  0.2137  0.7504
  119OSM    HO312533   5.335   1.685  10.783 -1.0218 -0.1928  0.5306
  119OSM    C4S12534   5.309   1.701  10.482 -0.0534 -0.2829  0.8337
  119OSM    H4S12535   5.315   1.811  10.483 -1.0747 -0.2223  1.8471
  119OSM    C5S12536   5.341   1.624  10.376  0.0871 -0.2463 -0.0279
  119OSM    H5S12537   5.356   1.515  10.378  2.2925 -0.1221 -3.1424
  119OSM    C6S12538   5.391   1.667  10.236  0.2491 -0.0224  0.6832
  119OSM    H6S12539   5.419   1.774  10.236  2.4590 -0.5108 -1.1462
  119OSM    H6T12540   5.301   1.656  10.172 -0.9544  0.1172  2.3073
  119OSM    C7S12541   5.510   1.586  10.174 -1.0277 -0.3298 -0.4464
  119OSM    H7S12542   5.479   1.481  10.159 -0.1984 -0.4743 -1.2505
  119OSM    H7T12543   5.602   1.590  10.237 -1.4758  1.5975  0.1631
  119OSM    C8S12544   5.545   1.637  10.030 -0.3839  0.0209  0.1996
  119OSM    H8S12545   5.642   1.586  10.011  0.2398  0.9080  0.9404
  119OSM    H8T12546   5.573   1.743  10.045  1.1314 -0.5723  1.9704
  119OSM    C9S12547   5.428   1.604   9.936  0.2054 -0.5801 -0.7119
  119OSM    H9S12548   5.357   1.689   9.947  0.4439 -0.6441  1.8896
  119OSM    H9T12549   5.375   1.510   9.960 -1.3955 -0.3509 -3.0105
  119OSM   C10S12550   5.478   1.591   9.795 -0.7473  0.6995 -0.3967
  119OSM   H10S12551   5.548   1.506   9.810 -1.6987  0.0597  0.5357
  119OSM   H10T12552   5.522   1.689   9.765 -0.2481  0.6029  0.0069
  119OSM   C11S12553   5.364   1.560   9.695 -0.5142  0.4368  0.3732
  119OSM   H11S12554   5.279   1.629   9.712 -1.9470 -1.1485 -0.0803
  119OSM   H11T12555   5.335   1.458   9.729  1.1349 -0.1743 -0.0011
  119OSM   C12S12556   5.405   1.560   9.549 -0.3488 -0.5028  0.5088
  119OSM   H12S12557   5.493   1.492   9.543  0.3940  0.4172  0.7248
  119OSM   H12T12558   5.447   1.660   9.525 -3.3907  1.1775  1.5722
  119OSM   C13S12559   5.305   1.504   9.453  0.3688  0.1153  0.3382
  119OSM   H13S12560   5.212   1.562   9.473  0.9913  1.1855  0.1924
  119OSM   H13T12561   5.302   1.394   9.467 -2.4538  0.0567 -0.1694
  119OSM   C14S12562   5.363   1.525   9.311 -0.4428 -0.0153 -0.0644
  119OSM   H14S12563   5.456   1.465   9.303  0.5322  1.6205 -1.8777
  119OSM   H14T12564   5.397   1.630   9.300 -1.9677  0.4349 -0.6947
  119OSM   C15S12565   5.257   1.483   9.209  0.1375 -0.3527  0.0879
  119OSM   H15S12566   5.184   1.565   9.223  2.0037  1.3101  0.4258
  119OSM   H15T12567   5.222   1.382   9.241 -0.7824  0.5912  2.2182
  119OSM   C16S12568   5.302   1.497   9.064 -0.3000  0.6939 -1.0150
  119OSM   H16S12569   5.370   1.411   9.048 -0.5903 -0.1090  1.5607
  119OSM   H16T12570   5.365   1.588   9.058  0.1030  0.3284 -2.8253
  119OSM   C17S12571   5.196   1.500   8.963  0.3924  0.7531  0.0854
  119OSM   H17S12572   5.118   1.575   8.989 -0.8514 -0.8087  1.0894
  119OSM   H17T12573   5.131   1.409   8.966 -0.5381  1.4128  0.5244
  119OSM   C18S12574   5.250   1.536   8.824  0.5239  0.2575  0.0454
  119OSM   H18S12575   5.157   1.546   8.763  1.4715  0.8608 -1.3632
  119OSM   H18T12576   5.304   1.450   8.779 -0.7466 -1.2650  1.3058
  119OSM   H18U12577   5.316   1.625   8.821 -1.0337  1.4275 -1.1120
  119OSM    C1F12578   4.901   1.818  10.588  0.2277  0.1547 -0.8950
  119OSM     OF12579   4.888   1.882  10.693 -0.3836  0.2227  0.0027
  119OSM    C2F12580   4.799   1.838  10.477  0.4670 -0.0988  0.1374
  119OSM    H2F12581   4.778   1.946  10.468 -2.2038 -0.5735  0.0396
  119OSM    H2G12582   4.711   1.776  10.505 -0.1178  0.7221  0.1249
  119OSM    C3F12583   4.858   1.786  10.337  0.3296  0.0433 -0.2275
  119OSM    H3F12584   4.865   1.675  10.347 -3.4712 -0.3888 -1.1175
  119OSM    H3G12585   4.959   1.832  10.327  0.3735 -0.3351 -1.7747
  119OSM    C4F12586   4.781   1.817  10.206 -0.1095 -0.3051  0.2852
  119OSM    H4F12587   4.798   1.923  10.178 -1.2880  0.1264  1.1072
  119OSM    H4G12588   4.673   1.812  10.232 -0.4256  0.8667 -0.7277
  119OSM    C5F12589   4.822   1.711  10.103 -0.3656 -0.7351  0.1965
  119OSM    H5F12590   4.739   1.696  10.030  0.4595 -0.2530 -0.8602
  119OSM    H5G12591   4.829   1.619  10.164 -2.3860  0.0788  1.7797
  119OSM    C6F12592   4.958   1.743  10.033 -0.5585 -0.8117  0.0404
  119OSM    H6F12593   5.029   1.749  10.118  0.5296 -1.4684 -0.7929
  119OSM    H6G12594   4.955   1.843   9.984  1.7088 -0.8939 -0.3764
  119OSM    C7F12595   5.005   1.636   9.933 -0.1905  0.3053 -0.0259
  119OSM    H7F12596   4.994   1.534   9.975  1.0716  1.0255  2.2045
  119OSM    H7G12597   5.112   1.658   9.914  0.0397 -1.0141 -0.3882
  119OSM    C8F12598   4.925   1.644   9.806 -0.8151  0.2025 -0.2940
  119OSM    H8F12599   4.948   1.741   9.758  2.2166 -0.3115 -0.0750
  119OSM    H8G12600   4.818   1.636   9.835 -0.5721 -1.4320  0.2945
  119OSM    C9F12601   4.951   1.541   9.699  0.4371 -0.6090 -1.3239
  119OSM    H9F12602   5.008   1.459   9.743  1.1034  0.1086 -0.8250
  119OSM   C10F12603   4.903   1.535   9.568  0.6068  0.1509 -0.3867
  119OSM   H10F12604   4.923   1.445   9.508 -0.6920 -1.2600  1.1702
  119OSM   C11F12605   4.823   1.629   9.489 -0.2173 -0.4588 -0.0354
  119OSM   H11F12606   4.765   1.703   9.549  0.0982 -1.9719  2.2431
  119OSM   H11G12607   4.742   1.570   9.442  0.6168  0.2511 -2.5689
  119OSM   C12F12608   4.907   1.720   9.392  0.4305 -0.8333  0.0336
  119OSM   H12F12609   4.975   1.652   9.335  2.9266  0.7576  0.9188
  119OSM   H12G12610   4.971   1.790   9.450 -0.8930  0.9463 -0.5448
  119OSM   C13F12611   4.827   1.799   9.285  0.3732 -0.2971 -0.4050
  119OSM   H13F12612   4.818   1.904   9.320 -0.6048 -0.5801  0.2626
  119OSM   H13G12613   4.727   1.753   9.269 -0.0886  0.3177  0.6067
  119OSM   C14F12614   4.893   1.806   9.146  0.3109  0.4907  0.1354
  119OSM   H14F12615   4.879   1.705   9.102  1.2053  1.0386 -1.4642
  119OSM   H14G12616   4.999   1.839   9.145  0.3741  0.2990  0.3509
  119OSM   C15F12617   4.822   1.915   9.054  0.0860 -0.1419 -0.1870
  119OSM   H15F12618   4.820   2.010   9.110  1.1153 -0.0181 -0.3536
  119OSM   H15G12619   4.713   1.897   9.043 -0.4672  2.3013  0.6765
  119OSM   C16F12620   4.892   1.937   8.923 -0.5145  0.0227 -1.0615
  119OSM   H16F12621   4.935   1.849   8.871 -0.4919  0.1032 -1.1802
  119OSM   H16G12622   4.982   1.999   8.943 -0.4989  0.1057 -1.3860
  119OSM   C17F12623   4.809   2.028   8.831  0.1573 -0.0601 -0.4020
  119OSM   H17F12624   4.800   2.128   8.877  0.4175 -0.9924  1.7828
  119OSM   H17G12625   4.707   1.988   8.814  1.3064 -2.9412 -1.2642
  119OSM   C18F12626   4.881   2.044   8.693 -0.0926  0.3084 -0.3500
  119OSM   H18F12627   4.817   2.108   8.629  2.1744  3.5365  0.3930
  119OSM   H18G12628   4.870   1.942   8.650 -1.3513  0.4641 -0.4359
  119OSM   H18H12629   4.985   2.081   8.691 -0.1266  0.4196 -0.1374
  120OSM      N12630   5.807   4.751  10.761 -0.1489 -0.0647 -0.5323
  120OSM    C1512631   5.813   4.895  10.804  0.6152 -0.5547  0.0797
  120OSM   H15A12632   5.902   4.921  10.860  0.9531  1.8077 -1.4401
  120OSM   H15B12633   5.735   4.928  10.872  2.7652  1.3913  1.7508
  120OSM   H15C12634   5.809   4.956  10.715  0.4181  0.5690  0.8352
  120OSM    C1412635   5.948   4.713  10.727  0.1758 -0.0474 -0.3754
  120OSM   H14A12636   5.973   4.758  10.632  0.9268 -0.7099 -0.4984
  120OSM   H14B12637   5.961   4.607  10.715 -1.2546 -0.5713  2.0229
  120OSM   H14C12638   6.016   4.744  10.805 -0.2653 -0.2004  0.0755
  120OSM    C1312639   5.748   4.672  10.877 -0.0594 -0.1391 -0.1358
  120OSM   H13A12640   5.745   4.566  10.856  0.7608 -0.3994  0.9414
  120OSM   H13B12641   5.652   4.706  10.912 -0.2498  0.1850 -0.9466
  120OSM   H13C12642   5.816   4.694  10.958  0.3103  1.5507 -0.8558
  120OSM    C1212643   5.729   4.733  10.634 -0.1569 -0.1659 -0.5044
  120OSM   H12A12644   5.626   4.756  10.659  0.3332  2.2710 -0.4494
  120OSM   H12B12645   5.736   4.634  10.592 -0.5708 -0.2223 -0.4527
  120OSM    C1112646   5.741   4.842  10.523  0.3007  0.3107 -0.2497
  120OSM   H11A12647   5.719   4.788  10.429  1.8050  3.4928 -2.5861
  120OSM   H11B12648   5.844   4.878  10.503  0.6177  0.7923  1.9765
  120OSM      P12649   5.502   4.951  10.538  0.1628  0.1908 -0.1182
  120OSM    O1312650   5.459   4.812  10.549  0.5142 -0.0642 -0.3505
  120OSM    O1412651   5.439   5.042  10.634  0.1253  0.0070 -0.1652
  120OSM    O1112652   5.465   5.004  10.392 -0.4415 -0.0447 -0.1512
  120OSM    O1212653   5.658   4.954  10.553  0.0142 -0.5704 -0.9370
  120OSM    C1S12654   5.549   5.088  10.319 -0.2221  0.5194 -0.0406
  120OSM    H1S12655   5.658   5.089  10.341 -0.6775  1.0905  2.4003
  120OSM    H1T12656   5.510   5.190  10.335  0.0509  0.2476  2.8636
  120OSM     NF12657   5.570   5.157  10.077 -0.4043 -0.1448 -0.8829
  120OSM    HNF12658   5.502   5.229  10.065  0.2071  0.6466  0.3109
  120OSM    C2S12659   5.535   5.047  10.164  0.2147 -1.1213 -0.1832
  120OSM    H2S12660   5.604   4.962  10.150  1.0670 -0.6438  0.9149
  120OSM    C3S12661   5.389   5.006  10.131  0.4060  0.4350  0.3140
  120OSM    H3S12662   5.333   5.101  10.148  1.0270  0.4472  2.6427
  120OSM     O312663   5.322   4.908  10.209 -0.4069 -0.4083  0.0426
  120OSM    HO312664   5.374   4.918  10.289  1.7997  1.1768 -1.4839
  120OSM    C4S12665   5.385   4.967   9.993  0.4750  0.2421  0.6493
  120OSM    H4S12666   5.438   4.872   9.976  1.3178  0.8934 -0.4572
  120OSM    C5S12667   5.310   5.014   9.886 -0.5595 -0.4300 -0.6982
  120OSM    H5S12668   5.244   5.102   9.892 -1.4385 -1.0197 -1.4727
  120OSM    C6S12669   5.315   4.963   9.747  0.0714 -0.2645  0.0715
  120OSM    H6S12670   5.326   5.053   9.683 -0.1152 -0.3980 -0.1433
  120OSM    H6T12671   5.232   4.892   9.730  0.4807 -0.4214 -1.4152
  120OSM    C7S12672   5.434   4.872   9.712 -0.2346 -0.1562  0.1700
  120OSM    H7S12673   5.444   4.789   9.785  0.1346 -0.7882 -0.5818
  120OSM    H7T12674   5.526   4.933   9.722 -0.6527  0.4804  0.2176
  120OSM    C8S12675   5.432   4.808   9.572 -0.3648  0.2215  0.3369
  120OSM    H8S12676   5.342   4.745   9.557  1.3691 -2.4797  0.6020
  120OSM    H8T12677   5.507   4.730   9.547 -2.4797 -1.8348  0.1083
  120OSM    C9S12678   5.451   4.911   9.453  0.4532  0.6676 -0.6674
  120OSM    H9S12679   5.511   4.997   9.489 -0.6835  1.8752 -1.5532
  120OSM    H9T12680   5.349   4.944   9.422 -0.5756 -1.1794  0.5659
  120OSM   C10S12681   5.503   4.846   9.323  0.4131 -0.0405  0.1127
  120OSM   H10S12682   5.598   4.792   9.343  1.0225  0.6911 -0.7496
  120OSM   H10T12683   5.518   4.909   9.233  0.2891 -1.3153 -0.8212
  120OSM   C11S12684   5.404   4.735   9.285 -0.3380 -0.0653 -0.1881
  120OSM   H11S12685   5.305   4.773   9.254 -0.0893 -1.2015 -2.5968
  120OSM   H11T12686   5.390   4.658   9.365 -0.7560  0.7760  0.5696
  120OSM   C12S12687   5.446   4.649   9.164  0.2195  0.0788 -0.3296
  120OSM   H12S12688   5.375   4.564   9.167  1.8209 -1.2961  0.4251
  120OSM   H12T12689   5.549   4.608   9.178  0.7651  1.3746 -0.4205
  120OSM   C13S12690   5.426   4.711   9.022  0.0853 -0.7118  0.0174
  120OSM   H13S12691   5.454   4.818   9.017  0.1058 -0.7597 -1.6180
  120OSM   H13T12692   5.318   4.714   8.997  0.3178  2.3020 -1.0339
  120OSM   C14S12693   5.505   4.639   8.907 -0.8778  0.2937 -0.6941
  120OSM   H14S12694   5.475   4.532   8.899  2.2510 -0.6609 -1.4565
  120OSM   H14T12695   5.608   4.637   8.950 -0.2968 -1.7057 -1.9741
  120OSM   C15S12696   5.496   4.698   8.765  0.1784 -0.2751 -0.0347
  120OSM   H15S12697   5.561   4.639   8.697  0.4678 -0.0426  0.0383
  120OSM   H15T12698   5.535   4.802   8.775 -1.1622  0.1684  0.8473
  120OSM   C16S12699   5.354   4.683   8.711  1.1533 -0.2700  0.4806
  120OSM   H16S12700   5.275   4.750   8.751  1.0697  0.1686 -0.3922
  120OSM   H16T12701   5.321   4.578   8.725 -0.2196 -0.0659 -0.9507
  120OSM   C17S12702   5.343   4.696   8.555  0.1347 -1.1057 -0.0394
  120OSM   H17S12703   5.377   4.797   8.521 -2.1221 -0.2274  0.1539
  120OSM   H17T12704   5.237   4.681   8.528 -0.0800  1.1814 -0.6895
  120OSM   C18S12705   5.414   4.594   8.463  0.4105 -0.4712  0.1189
  120OSM   H18S12706   5.374   4.491   8.476 -1.2893  0.3467  1.8092
  120OSM   H18T12707   5.518   4.584   8.502 -0.7854 -0.5084  3.7117
  120OSM   H18U12708   5.417   4.617   8.355  0.8864  1.1337  0.4511
  120OSM    C1F12709   5.698   5.190  10.062 -0.4485 -0.6348  0.4348
  120OSM     OF12710   5.782   5.124  10.124 -0.6253 -0.5142 -0.2299
  120OSM    C2F12711   5.729   5.307   9.972  0.0851  0.4920 -0.5851
  120OSM    H2F12712   5.778   5.383  10.036  0.2042 -0.0263 -0.0491
  120OSM    H2G12713   5.632   5.338   9.927  0.9026 -1.6359 -4.2356
  120OSM    C3F12714   5.824   5.267   9.855  0.2797  0.4203 -0.0497
  120OSM    H3F12715   5.919   5.218   9.886 -0.4485  0.5516  2.7155
  120OSM    H3G12716   5.855   5.359   9.802 -0.3465  1.3210  1.0886
  120OSM    C4F12717   5.765   5.173   9.747  0.2320 -0.0587  1.0453
  120OSM    H4F12718   5.662   5.208   9.726 -0.0458 -1.4192  0.0487
  120OSM    H4G12719   5.755   5.073   9.794 -0.0088 -0.7804 -0.4896
  120OSM    C5F12720   5.859   5.180   9.620  0.3446  0.0431  0.2156
  120OSM    H5F12721   5.961   5.141   9.642  1.6061  3.8798  1.9128
  120OSM    H5G12722   5.872   5.288   9.602 -0.4864  0.0968 -0.1193
  120OSM    C6F12723   5.795   5.113   9.499  0.2934 -0.1769 -0.3266
  120OSM    H6F12724   5.685   5.129   9.498  0.4411  1.0087  0.1003
  120OSM    H6G12725   5.810   5.004   9.514 -0.7291 -0.1305  1.2842
  120OSM    C7F12726   5.863   5.160   9.366 -0.2536 -0.2509  0.5381
  120OSM    H7F12727   5.866   5.271   9.361  0.7922 -0.1054  2.7724
  120OSM    H7G12728   5.788   5.131   9.289 -2.0113 -0.4097  2.2180
  120OSM    C8F12729   6.012   5.116   9.337  0.6686 -0.5890 -0.9826
  120OSM    H8F12730   6.080   5.152   9.418 -3.1305  1.1728  1.7804
  120OSM    H8G12731   6.040   5.171   9.245  0.7896  0.9638 -0.0619
  120OSM    C9F12732   6.039   4.970   9.331 -0.0984  0.5386  0.3403
  120OSM    H9F12733   6.085   4.926   9.421 -1.7636 -3.1467 -0.4431
  120OSM   C10F12734   6.020   4.886   9.222  0.8753 -1.1004 -0.0454
  120OSM   H10F12735   6.042   4.779   9.230  1.8684 -1.0133 -1.2730
  120OSM   C11F12736   5.960   4.935   9.091  0.0493 -0.0923  0.3521
  120OSM   H11F12737   5.956   5.046   9.081  0.4172 -0.0762  0.3364
  120OSM   H11G12738   5.853   4.909   9.078 -0.5019  3.0049 -2.8021
  120OSM   C12F12739   6.043   4.867   8.978 -0.5788 -0.5836  0.4767
  120OSM   H12F12740   6.037   4.756   8.987 -0.2877 -0.9807 -3.0414
  120OSM   H12G12741   6.146   4.910   8.978 -0.9640  0.6676 -3.1057
  120OSM   C13F12742   5.991   4.890   8.834  0.4265 -0.7112 -0.7258
  120OSM   H13F12743   6.053   4.823   8.771  1.3332  0.4933 -1.1406
  120OSM   H13G12744   6.015   4.992   8.797  1.5448 -0.5191  0.4500
  120OSM   C14F12745   5.843   4.882   8.818 -0.4481  0.0813 -1.2715
  120OSM   H14F12746   5.785   4.951   8.882 -0.5112  0.7731 -2.0550
  120OSM   H14G12747   5.802   4.783   8.847 -2.3563  1.4814  1.2659
  120OSM   C15F12748   5.798   4.927   8.678  0.6887  0.4680  0.3064
  120OSM   H15F12749   5.845   5.015   8.628 -2.3965  0.5823 -2.8215
  120OSM   H15G12750   5.691   4.955   8.689  0.0905 -1.7306  0.5546
  120OSM   C16F12751   5.800   4.814   8.572 -0.1710 -0.3171 -0.0967
  120OSM   H16F12752   5.766   4.725   8.629 -0.7243  1.5722  2.7472
  120OSM   H16G12753   5.902   4.789   8.537  0.0413  1.7294 -1.0583
  120OSM   C17F12754   5.713   4.845   8.447 -0.7726 -0.5936 -0.2515
  120OSM   H17F12755   5.713   4.953   8.422  1.2223 -0.6427 -0.6546
  120OSM   H17G12756   5.613   4.810   8.480 -1.2474  0.7402 -0.2307
  120OSM   C18F12757   5.752   4.747   8.325  0.1247 -0.7565  0.3215
  120OSM   H18F12758   5.698   4.772   8.231  0.1272  1.5061  0.8628
  120OSM   H18G12759   5.731   4.642   8.356  0.5840 -0.7465  0.6853
  120OSM   H18H12760   5.861   4.762   8.307  0.1544 -1.1570  0.1603
  121OSM      N12761   3.444   1.409  10.748 -0.4440  0.0844 -0.4592
  121OSM    C1512762   3.414   1.513  10.856  0.9643  0.4477  0.0383
  121OSM   H15A12763   3.485   1.595  10.863 -0.8667  2.3314 -1.9874
  121OSM   H15B12764   3.402   1.462  10.950  1.7138 -1.0983 -0.6775
  121OSM   H15C12765   3.320   1.557  10.828  0.9912 -0.0102 -0.7995
  121OSM    C1412766   3.336   1.305  10.768 -0.9132  0.1630  0.2367
  121OSM   H14A12767   3.240   1.345  10.737 -1.5292  1.2973  3.2616
  121OSM   H14B12768   3.328   1.281  10.873 -1.2822 -0.9227 -0.0148
  121OSM   H14C12769   3.347   1.215  10.709 -2.4998  0.2659 -0.2661
  121OSM    C1312770   3.423   1.447  10.607  0.2764 -0.2649 -0.2378
  121OSM   H13A12771   3.506   1.502  10.564 -1.6870  0.1046 -3.8975
  121OSM   H13B12772   3.336   1.510  10.593  0.3679  0.2906  1.4083
  121OSM   H13C12773   3.401   1.371  10.534 -0.4898  0.6705 -1.0104
  121OSM    C1212774   3.585   1.352  10.761 -0.6120 -0.4199 -0.1588
  121OSM   H12A12775   3.652   1.433  10.737 -1.8195  0.0768 -2.0700
  121OSM   H12B12776   3.593   1.276  10.684 -1.9066  0.9597 -1.7395
  121OSM    C1112777   3.618   1.285  10.897  0.4994  0.0711  0.0576
  121OSM   H11A12778   3.714   1.230  10.897  0.3913 -0.3368  3.4573
  121OSM   H11B12779   3.538   1.209  10.909 -1.2003  1.5381 -1.3152
  121OSM      P12780   3.751   1.445  11.051 -0.2594 -0.1469 -0.0498
  121OSM    O1312781   3.714   1.550  11.148 -0.3946 -0.0841  0.4170
  121OSM    O1412782   3.847   1.344  11.096 -0.0021  0.0192  0.7579
  121OSM    O1112783   3.790   1.513  10.911  0.0517 -0.0190  0.3262
  121OSM    O1212784   3.617   1.360  11.021 -0.5580 -0.7399  0.0870
  121OSM    C1S12785   3.918   1.497  10.850  0.0364  0.0896  0.5889
  121OSM    H1S12786   3.933   1.389  10.833  0.3399  0.3231 -0.7381
  121OSM    H1T12787   3.993   1.525  10.927  1.3309 -2.3206  0.2919
  121OSM     NF12788   4.041   1.540  10.640 -0.0585  0.1805 -0.4463
  121OSM    HNF12789   4.132   1.570  10.668 -0.1120 -1.4009  1.6761
  121OSM    C2S12790   3.938   1.587  10.721  0.5696  0.4510  0.0174
  121OSM    H2S12791   3.854   1.576  10.650  0.5244  1.2674 -0.0638
  121OSM    C3S12792   3.955   1.731  10.768  0.6252  0.5188 -0.4646
  121OSM    H3S12793   4.043   1.735  10.835  0.0546 -1.9814  0.5442
  121OSM     O312794   3.855   1.776  10.863 -0.5896 -0.1326 -0.2416
  121OSM    HO312795   3.824   1.691  10.893 -1.9953 -0.1158 -1.5525
  121OSM    C4S12796   3.953   1.826  10.654  0.4343  0.4050  0.3652
  121OSM    H4S12797   3.850   1.840  10.620  1.3946  0.1373 -2.9949
  121OSM    C5S12798   4.058   1.898  10.607  0.2095  0.2076 -0.1431
  121OSM    H5S12799   4.158   1.872  10.644  0.1513  3.4331  2.8576
  121OSM    C6S12800   4.058   1.983  10.480 -0.6375 -0.6645  0.1183
  121OSM    H6S12801   4.095   2.084  10.507 -3.3989  0.2263  0.9082
  121OSM    H6T12802   3.949   1.999  10.464 -0.9714  0.7819  3.1102
  121OSM    C7S12803   4.137   1.931  10.363 -0.6951 -1.0300  0.5296
  121OSM    H7S12804   4.124   1.991  10.271  0.2700 -1.0287  0.3893
  121OSM    H7T12805   4.101   1.830  10.336 -1.2670 -0.7382  0.1647
  121OSM    C8S12806   4.290   1.910  10.391 -0.2804  0.6210  0.2920
  121OSM    H8S12807   4.311   1.867  10.491  0.1546 -1.0059 -0.4736
  121OSM    H8T12808   4.331   2.013  10.396  0.1269  0.7063 -2.8288
  121OSM    C9S12809   4.361   1.818  10.292  0.6132 -0.1095 -0.2471
  121OSM    H9S12810   4.295   1.729  10.285  0.3561  0.1272 -0.9853
  121OSM    H9T12811   4.459   1.777  10.324 -0.3535 -0.9693  1.7892
  121OSM   C10S12812   4.381   1.883  10.153 -0.5340  0.1803  0.1594
  121OSM   H10S12813   4.479   1.934  10.140  0.1395 -1.2346 -0.6593
  121OSM   H10T12814   4.300   1.954  10.126 -1.4676 -0.7074  0.5786
  121OSM   C11S12815   4.381   1.767  10.045  0.7750  0.1872 -0.2919
  121OSM   H11S12816   4.281   1.721  10.031  0.4487 -0.1233  2.3953
  121OSM   H11T12817   4.449   1.687  10.081  1.2785 -0.6500 -2.9570
  121OSM   C12S12818   4.433   1.813   9.911  0.2720  0.0048 -0.6109
  121OSM   H12S12819   4.534   1.853   9.931  0.3319 -0.9946  1.4092
  121OSM   H12T12820   4.360   1.877   9.857 -0.8696 -0.6157  0.1379
  121OSM   C13S12821   4.448   1.686   9.825  1.0431  0.0771 -0.1642
  121OSM   H13S12822   4.346   1.645   9.806  0.4402  1.6114 -0.3590
  121OSM   H13T12823   4.515   1.618   9.882  0.2076 -0.2834  0.4230
  121OSM   C14S12824   4.513   1.713   9.688 -0.8168 -0.0631 -0.7746
  121OSM   H14S12825   4.526   1.618   9.633  0.7643  0.0393 -0.6132
  121OSM   H14T12826   4.616   1.738   9.722 -0.5516 -0.4499 -1.2874
  121OSM   C15S12827   4.460   1.826   9.601 -0.4935 -0.6591 -0.5833
  121OSM   H15S12828   4.491   1.915   9.659 -0.7560 -1.0748  0.2131
  121OSM   H15T12829   4.349   1.819   9.595 -0.3852 -3.3172 -0.6062
  121OSM   C16S12830   4.520   1.835   9.461  0.2894  0.2784  0.0772
  121OSM   H16S12831   4.508   1.743   9.400  0.5744  1.4040 -1.7601
  121OSM   H16T12832   4.630   1.844   9.476  0.7574  0.5285 -2.8727
  121OSM   C17S12833   4.453   1.951   9.383 -0.5573 -0.2114  0.9429
  121OSM   H17S12834   4.475   2.049   9.430  1.4066  0.5611 -1.3920
  121OSM   H17T12835   4.342   1.941   9.386 -0.8699  1.3765 -1.6883
  121OSM   C18S12836   4.492   1.962   9.234 -0.8173 -0.5129  0.1105
  121OSM   H18S12837   4.441   2.052   9.192 -0.0315 -0.2432 -0.2905
  121OSM   H18T12838   4.457   1.867   9.189 -0.5278 -0.1081 -0.9857
  121OSM   H18U12839   4.603   1.968   9.233 -0.7727 -1.4407 -0.7851
  121OSM    C1F12840   4.028   1.427  10.572  0.0062  0.1619 -0.0787
  121OSM     OF12841   3.921   1.368  10.566 -0.3635  0.6433 -0.2408
  121OSM    C2F12842   4.148   1.361  10.513  0.3485 -0.1696  0.4172
  121OSM    H2F12843   4.188   1.290  10.588 -0.7324 -0.9288  0.2975
  121OSM    H2G12844   4.219   1.443  10.488 -1.5305  0.9025 -1.8234
  121OSM    C3F12845   4.115   1.296  10.376  0.7778  0.0401  0.1964
  121OSM    H3F12846   4.058   1.202  10.392  0.0218  0.4419 -0.0797
  121OSM    H3G12847   4.210   1.276  10.322 -0.7820 -2.1870 -1.9627
  121OSM    C4F12848   4.042   1.383  10.279 -0.3330 -0.1300  0.0807
  121OSM    H4F12849   3.951   1.422  10.330 -0.7690  0.7748 -1.3167
  121OSM    H4G12850   3.995   1.323  10.199  0.0497  1.0128 -1.0523
  121OSM    C5F12851   4.113   1.506  10.216 -0.1724  0.0777 -0.7440
  121OSM    H5F12852   4.191   1.466  10.148  0.2969  0.7336 -0.6024
  121OSM    H5G12853   4.163   1.569  10.293  0.1240 -0.0568 -0.8276
  121OSM    C6F12854   4.020   1.606  10.141 -0.1983 -0.0531  0.2958
  121OSM    H6F12855   4.072   1.701  10.117  0.5526 -0.4197  0.4274
  121OSM    H6G12856   3.950   1.631  10.223  0.3088 -1.0402  1.0520
  121OSM    C7F12857   3.949   1.553  10.021  0.7701  0.2923 -0.1035
  121OSM    H7F12858   3.890   1.633   9.971 -1.8615  0.6285  3.2143
  121OSM    H7G12859   3.878   1.475  10.056 -0.5481  0.9835 -1.1174
  121OSM    C8F12860   4.043   1.482   9.920 -0.0920 -0.1401 -0.0335
  121OSM    H8F12861   4.099   1.399   9.968 -1.7895 -1.3787 -0.1160
  121OSM    H8G12862   4.117   1.556   9.884  0.6211 -1.6106 -1.6826
  121OSM    C9F12863   3.963   1.419   9.809  0.5037 -1.2066  0.7637
  121OSM    H9F12864   3.865   1.379   9.839  0.0677 -1.7258 -1.2637
  121OSM   C10F12865   3.994   1.396   9.684 -0.3249  0.3531 -0.2533
  121OSM   H10F12866   3.917   1.357   9.616  1.4835 -0.0303 -2.2091
  121OSM   C11F12867   4.127   1.414   9.620  0.0395 -0.0648 -0.0623
  121OSM   H11F12868   4.148   1.332   9.547  1.3924  0.0866  0.1398
  121OSM   H11G12869   4.214   1.412   9.688  1.1753  0.1287 -1.4557
  121OSM   C12F12870   4.122   1.551   9.552  0.3462  0.3222 -0.0931
  121OSM   H12F12871   4.137   1.627   9.632  1.1754  0.7759 -0.6625
  121OSM   H12G12872   4.026   1.569   9.498 -0.0509  1.2586  0.8907
  121OSM   C13F12873   4.225   1.584   9.447 -0.0453 -0.6687  0.3537
  121OSM   H13F12874   4.329   1.574   9.488 -0.1081 -1.9391  0.2612
  121OSM   H13G12875   4.212   1.691   9.421 -1.8211 -0.7950  0.6370
  121OSM   C14F12876   4.225   1.496   9.324  0.0378  0.4111 -0.1441
  121OSM   H14F12877   4.169   1.403   9.347 -1.9511  1.2333 -1.4652
  121OSM   H14G12878   4.332   1.468   9.315 -0.1223  0.0535 -0.9081
  121OSM   C15F12879   4.160   1.553   9.200  0.4356 -0.3802 -0.3295
  121OSM   H15F12880   4.064   1.602   9.225  1.8306  1.4745  1.7716
  121OSM   H15G12881   4.131   1.464   9.140 -1.4711  0.5648 -0.8764
  121OSM   C16F12882   4.263   1.642   9.127 -0.8223 -0.2264  0.0527
  121OSM   H16F12883   4.363   1.599   9.106  0.0350  1.6068  0.1948
  121OSM   H16G12884   4.279   1.731   9.191 -0.6417 -1.9244  2.4837
  121OSM   C17F12885   4.216   1.705   8.991 -0.3491 -0.4254 -0.1874
  121OSM   H17F12886   4.122   1.758   9.016  0.1865  1.8054 -2.5236
  121OSM   H17G12887   4.179   1.627   8.921 -1.2466  0.7435 -1.0417
  121OSM   C18F12888   4.312   1.805   8.924  0.1456 -0.3481  0.2527
  121OSM   H18F12889   4.252   1.861   8.850  1.3152 -0.0961 -0.5279
  121OSM   H18G12890   4.391   1.763   8.858 -0.2486  0.2177 -0.6047
  121OSM   H18H12891   4.364   1.869   8.998  1.7880 -3.4656  2.0213
  122OSM      N12892   4.254   6.478  11.156 -0.4264  0.7035  0.5550
  122OSM    C1512893   4.337   6.458  11.034  0.1908  0.2241 -0.1579
  122OSM   H15A12894   4.289   6.404  10.953 -0.6845  1.3521 -0.4079
  122OSM   H15B12895   4.429   6.407  11.059 -0.4964 -2.3270 -2.3488
  122OSM   H15C12896   4.365   6.547  10.980 -0.2405 -0.1893 -1.0871
  122OSM    C1412897   4.239   6.349  11.226  0.9608 -0.8148  0.6282
  122OSM   H14A12898   4.157   6.289  11.188  0.3660 -0.5073  1.3972
  122OSM   H14B12899   4.202   6.381  11.322 -0.8564  0.6470 -0.4924
  122OSM   H14C12900   4.328   6.288  11.232  2.9993  1.7720 -1.0766
  122OSM    C1312901   4.332   6.571  11.248  0.6862 -0.4230  0.0602
  122OSM   H13A12902   4.413   6.518  11.296  0.2961  1.7601  3.4143
  122OSM   H13B12903   4.274   6.600  11.334  1.2115 -0.9623  0.6093
  122OSM   H13C12904   4.381   6.650  11.194  0.5338 -0.1638  0.2993
  122OSM    C1212905   4.124   6.555  11.114  0.1709 -0.0658  0.2395
  122OSM   H12A12906   4.139   6.649  11.062  1.4672  0.4924  1.5443
  122OSM   H12B12907   4.063   6.579  11.200  0.2062  2.4179 -0.3317
  122OSM    C1112908   4.039   6.484  11.009  0.6063  0.4344 -0.0532
  122OSM   H11A12909   3.988   6.394  11.050 -2.1356  1.4362 -1.0394
  122OSM   H11B12910   4.092   6.448  10.918  2.1461  1.4354  0.3997
  122OSM      P12911   3.948   6.694  10.884 -0.1737 -0.0431 -0.2133
  122OSM    O1312912   3.827   6.772  10.893  0.0510  0.5318  0.1158
  122OSM    O1412913   4.075   6.764  10.905 -0.0269 -0.5410 -0.3896
  122OSM    O1112914   3.945   6.628  10.746 -0.1077  0.2466  0.4402
  122OSM    O1212915   3.935   6.575  10.987 -0.2461 -0.3379  0.0253
  122OSM    C1S12916   3.850   6.522  10.716  0.3518 -0.5563  0.1278
  122OSM    H1S12917   3.748   6.555  10.744  1.0378 -0.6147  3.0096
  122OSM    H1T12918   3.885   6.428  10.762 -3.8572 -2.5826 -0.3737
  122OSM     NF12919   3.765   6.381  10.528  0.7295  0.2079  0.8289
  122OSM    HNF12920   3.790   6.289  10.557 -0.7204  0.2804  2.3875
  122OSM    C2S12921   3.860   6.479  10.565 -0.0475  0.8627  0.2125
  122OSM    H2S12922   3.843   6.570  10.503 -0.9734  0.5050 -0.0761
  122OSM    C3S12923   4.014   6.432  10.530  0.4322  0.1803  0.4465
  122OSM    H3S12924   4.050   6.337  10.574  0.0901  0.4769  1.3794
  122OSM     O312925   4.115   6.518  10.583  0.4130  0.0101  0.2575
  122OSM    HO312926   4.063   6.591  10.617 -3.3981 -2.4570  0.4366
  122OSM    C4S12927   4.028   6.419  10.374  0.2441  0.1761  0.2502
  122OSM    H4S12928   3.971   6.334  10.333  0.5793 -0.7703  1.6840
  122OSM    C5S12929   4.085   6.510  10.292 -0.3719  0.8092  0.2177
  122OSM    H5S12930   4.153   6.588  10.329  1.6543 -0.8129  0.1550
  122OSM    C6S12931   4.100   6.506  10.141  0.2584 -0.2475  0.0670
  122OSM    H6S12932   4.206   6.519  10.111  0.5465 -0.2661  1.0621
  122OSM    H6T12933   4.048   6.587  10.086 -2.5373 -0.8974  1.5913
  122OSM    C7S12934   4.068   6.369  10.079  0.0113 -0.1697 -0.1183
  122OSM    H7S12935   3.970   6.330  10.114  1.1260 -3.6263 -0.4892
  122OSM    H7T12936   4.145   6.300  10.121  0.3135 -0.5930 -1.3338
  122OSM    C8S12937   4.064   6.377   9.924  0.1507 -0.3847  0.8874
  122OSM    H8S12938   4.035   6.482   9.898  0.4312  0.1607  2.6822
  122OSM    H8T12939   3.983   6.310   9.887  0.4109 -0.7308  0.9478
  122OSM    C9S12940   4.192   6.352   9.848  0.7002  0.1804  0.1854
  122OSM    H9S12941   4.251   6.264   9.881 -2.3270 -2.5836 -1.2123
  122OSM    H9T12942   4.260   6.440   9.855  0.4717  0.3967 -0.2091
  122OSM   C10S12943   4.169   6.338   9.693 -0.1554  0.0955 -0.5058
  122OSM   H10S12944   4.093   6.411   9.656  0.4165  1.7072  1.3333
  122OSM   H10T12945   4.124   6.239   9.671  2.1333 -0.9442 -0.7073
  122OSM   C11S12946   4.289   6.359   9.594  0.8743  0.1534 -0.6436
  122OSM   H11S12947   4.368   6.283   9.616  0.5339  0.2157  0.8935
  122OSM   H11T12948   4.342   6.455   9.606  2.5601 -0.9929  2.1703
  122OSM   C12S12949   4.248   6.332   9.448 -0.3894  0.3362  0.3425
  122OSM   H12S12950   4.187   6.415   9.408  0.6302  0.3062 -1.3903
  122OSM   H12T12951   4.191   6.237   9.456 -0.2370  0.2878  0.8947
  122OSM   C13S12952   4.372   6.309   9.357 -0.1077 -0.0548 -1.0048
  122OSM   H13S12953   4.424   6.219   9.396 -1.5545 -1.0306 -1.2664
  122OSM   H13T12954   4.438   6.397   9.376 -0.5568  0.0823  0.0268
  122OSM   C14S12955   4.335   6.281   9.209 -0.5773  0.4594 -0.7176
  122OSM   H14S12956   4.429   6.298   9.152 -1.1408  2.8162 -1.0671
  122OSM   H14T12957   4.266   6.364   9.182 -3.4626 -0.3808  3.2020
  122OSM   C15S12958   4.270   6.152   9.184  0.2538  0.2796 -0.0444
  122OSM   H15S12959   4.171   6.141   9.234 -1.2976  0.0488 -2.9261
  122OSM   H15T12960   4.345   6.082   9.226  1.9378  2.8605  1.5910
  122OSM   C16S12961   4.242   6.119   9.040 -0.1806 -0.1893  0.1428
  122OSM   H16S12962   4.318   6.168   8.976 -1.6068  0.5701 -1.0289
  122OSM   H16T12963   4.150   6.170   9.004  0.0888 -1.6261 -2.9130
  122OSM   C17S12964   4.218   5.968   9.008 -0.0351 -0.5016 -0.2570
  122OSM   H17S12965   4.146   5.930   9.084  0.9430 -1.0379  0.4223
  122OSM   H17T12966   4.307   5.906   9.030 -0.5526 -0.4712  2.2080
  122OSM   C18S12967   4.153   5.936   8.873  0.3119  0.5740  0.1448
  122OSM   H18S12968   4.044   5.959   8.867  0.3734  0.5343 -1.9225
  122OSM   H18T12969   4.165   5.829   8.847 -1.1637  0.4255 -0.0453
  122OSM   H18U12970   4.204   5.996   8.794 -0.9602 -0.5974 -1.6563
  122OSM    C1F12971   3.640   6.410  10.509  0.5506  0.5067  0.7517
  122OSM     OF12972   3.607   6.523  10.540 -0.1660 -0.5709  0.1234
  122OSM    C2F12973   3.545   6.299  10.466 -0.5275  0.4464 -0.4870
  122OSM    H2F12974   3.476   6.273  10.549  2.1058 -3.2031  0.8052
  122OSM    H2G12975   3.602   6.205  10.452  1.5660  1.5223  0.4180
  122OSM    C3F12976   3.462   6.343  10.346 -0.4298  0.6463  0.2432
  122OSM    H3F12977   3.529   6.376  10.264 -0.0927  0.9754  0.6448
  122OSM    H3G12978   3.405   6.430  10.386  0.2678 -0.1160  3.0831
  122OSM    C4F12979   3.377   6.227  10.287 -0.5796 -0.3041 -0.2092
  122OSM    H4F12980   3.300   6.205  10.363  2.2386  2.4247  3.8845
  122OSM    H4G12981   3.434   6.135  10.262  3.4217  2.0992 -0.9864
  122OSM    C5F12982   3.311   6.279  10.161 -0.3332 -0.7207  0.3072
  122OSM    H5F12983   3.388   6.324  10.094 -0.4297 -0.7796  0.1573
  122OSM    H5G12984   3.245   6.364  10.190 -1.0534 -1.2090  0.1166
  122OSM    C6F12985   3.221   6.184  10.088  0.0649 -0.2103 -0.5331
  122OSM    H6F12986   3.145   6.146  10.161  0.5330  0.0323  0.0920
  122OSM    H6G12987   3.274   6.090  10.061 -0.6507 -1.9508  3.3433
  122OSM    C7F12988   3.141   6.254   9.979 -0.3828  0.0546 -0.4484
  122OSM    H7F12989   3.221   6.305   9.920 -0.6141 -1.6993 -2.3893
  122OSM    H7G12990   3.085   6.339  10.024  0.6736  0.3639  0.3325
  122OSM    C8F12991   3.039   6.168   9.899  0.3485  0.2830 -0.1011
  122OSM    H8F12992   2.996   6.241   9.827 -0.3120  0.0901  0.0966
  122OSM    H8G12993   2.953   6.140   9.963 -0.4151  4.2295  0.8611
  122OSM    C9F12994   3.100   6.050   9.831 -0.2264 -0.4371 -0.0590
  122OSM    H9F12995   3.167   5.985   9.889 -1.4653 -0.6469  1.1915
  122OSM   C10F12996   3.096   6.019   9.706 -0.1876 -0.4738  0.4030
  122OSM   H10F12997   3.152   5.931   9.669 -0.1134 -0.2187 -0.1071
  122OSM   C11F12998   3.029   6.099   9.597  0.6126  0.2699  0.0907
  122OSM   H11F12999   3.110   6.149   9.540  0.1359  1.6351  0.5709
  122OSM   H11G13000   2.968   6.181   9.641 -1.3805 -0.4483 -1.2001
  122OSM   C12F13001   2.939   6.017   9.494 -0.0150 -0.1705 -0.3522
  122OSM   H12F13002   2.848   5.992   9.553  0.9483  3.2008  2.9877
  122OSM   H12G13003   2.995   5.923   9.476  1.1104  0.2667  0.7504
  122OSM   C13F13004   2.915   6.101   9.367  0.3022  0.5503 -0.1102
  122OSM   H13F13005   3.021   6.121   9.340  0.3686  0.0818 -0.2074
  122OSM   H13G13006   2.875   6.201   9.396 -1.2110  0.3577 -1.4206
  122OSM   C14F13007   2.837   6.039   9.253  0.0029 -0.0874  0.2023
  122OSM   H14F13008   2.732   6.035   9.288 -0.1561  2.4144  0.2264
  122OSM   H14G13009   2.860   5.933   9.228 -1.9447 -0.3249 -0.7526
  122OSM   C15F13010   2.842   6.118   9.120 -0.4220  0.4829 -0.7583
  122OSM   H15F13011   2.948   6.112   9.089  0.5055 -0.8293  2.3413
  122OSM   H15G13012   2.827   6.227   9.129  0.4462  0.6131 -0.8483
  122OSM   C16F13013   2.741   6.075   9.015 -0.3728 -0.1844  0.2990
  122OSM   H16F13014   2.726   5.969   8.988 -0.5015  0.7867 -4.1099
  122OSM   H16G13015   2.777   6.110   8.916  0.6565  0.7205  0.9712
  122OSM   C17F13016   2.604   6.119   9.057  0.7784  0.6944 -0.2501
  122OSM   H17F13017   2.604   6.227   9.034  1.6466  0.9639  0.8857
  122OSM   H17G13018   2.591   6.112   9.167  0.2346  1.9646 -0.2195
  122OSM   C18F13019   2.480   6.040   8.997 -0.9912  0.1329 -1.1178
  122OSM   H18F13020   2.390   6.086   9.044 -0.8777 -1.7145  1.1118
  122OSM   H18G13021   2.478   5.933   9.028 -0.2639  0.0881 -1.2098
  122OSM   H18H13022   2.485   6.038   8.886  1.7177 -0.5157 -1.0463
  123OSM      N13023   1.977   6.653   5.992 -0.5232  0.6228  0.5080
  123OSM    C1513024   2.002   6.692   5.857  0.2421  0.5128 -0.0394
  123OSM   H15A13025   2.028   6.610   5.793 -0.1346 -1.3086  2.0158
  123OSM   H15B13026   2.076   6.769   5.842  0.7993 -0.5352 -3.4055
  123OSM   H15C13027   1.905   6.726   5.823  0.0675 -0.6306 -0.7254
  123OSM    C1413028   1.898   6.762   6.068 -0.4486  0.1151 -0.5819
  123OSM   H14A13029   1.882   6.737   6.172  1.3058  0.4552 -0.1922
  123OSM   H14B13030   1.796   6.767   6.034 -0.8100 -0.2343  0.4151
  123OSM   H14C13031   1.950   6.856   6.054 -1.1077  0.3715 -1.4035
  123OSM    C1313032   1.886   6.529   5.996  0.0530  0.0629 -0.1126
  123OSM   H13A13033   1.885   6.488   6.096  0.9232 -0.8353 -0.4567
  123OSM   H13B13034   1.916   6.443   5.938  0.7303  0.1373  0.1207
  123OSM   H13C13035   1.784   6.551   5.968 -0.1995  0.6895  1.2063
  123OSM    C1213036   2.105   6.614   6.070  0.1351 -0.3713 -0.1632
  123OSM   H12A13037   2.072   6.583   6.168 -0.4976 -0.4903 -0.4080
  123OSM   H12B13038   2.168   6.701   6.076 -1.1044  0.4745  1.7750
  123OSM    C1113039   2.201   6.515   6.012 -0.0449  0.2563 -0.3599
  123OSM   H11A13040   2.304   6.517   6.051  0.0631 -2.0712 -0.3614
  123OSM   H11B13041   2.226   6.548   5.909 -0.4504  0.8063 -0.2876
  123OSM      P13042   2.109   6.282   6.129 -0.1385  0.5519  0.4433
  123OSM    O1313043   1.980   6.217   6.086  0.9261 -0.0371  0.3666
  123OSM    O1413044   2.217   6.183   6.163  0.2348  0.6155 -0.2784
  123OSM    O1113045   2.091   6.377   6.247 -0.1101  0.4288  0.5672
  123OSM    O1213046   2.155   6.374   6.010 -0.1280 -0.0579  0.4137
  123OSM    C1S13047   2.147   6.345   6.375  0.0764  0.3398  0.1192
  123OSM    H1S13048   2.258   6.351   6.379  0.1066 -0.3281  0.3977
  123OSM    H1T13049   2.118   6.240   6.395  2.1934 -0.5762 -1.3396
  123OSM     NF13050   2.165   6.359   6.620  0.2898 -0.4382 -0.9167
  123OSM    HNF13051   2.117   6.305   6.689  1.2473  0.6707  0.6736
  123OSM    C2S13052   2.088   6.418   6.505  1.0204  0.5354  0.3449
  123OSM    H2S13053   2.107   6.527   6.495 -2.3497  1.0456 -2.6524
  123OSM    C3S13054   1.930   6.403   6.517  0.4246 -0.3181 -0.2157
  123OSM    H3S13055   1.912   6.294   6.524 -0.1812 -0.2107 -0.1011
  123OSM     O313056   1.865   6.447   6.402 -0.4006  0.4153 -0.0274
  123OSM    HO313057   1.933   6.445   6.335 -1.6774  0.8458 -1.3773
  123OSM    C4S13058   1.886   6.471   6.637 -0.0284 -1.1777  0.0496
  123OSM    H4S13059   1.936   6.433   6.727  1.2244 -0.1157 -0.1640
  123OSM    C5S13060   1.798   6.578   6.648  0.0517 -0.8532  0.2956
  123OSM    H5S13061   1.747   6.626   6.564 -3.0967  0.1309  2.5721
  123OSM    C6S13062   1.769   6.658   6.770 -0.2335  0.6060  0.5205
  123OSM    H6S13063   1.658   6.671   6.766 -0.2252  0.7321  0.6879
  123OSM    H6T13064   1.807   6.762   6.770 -0.5726  0.7338  1.0876
  123OSM    C7S13065   1.797   6.587   6.905 -0.0486 -0.8699 -0.3793
  123OSM    H7S13066   1.768   6.480   6.898  1.1497 -1.1799 -0.6924
  123OSM    H7T13067   1.734   6.644   6.976 -1.3343 -2.6759 -0.0015
  123OSM    C8S13068   1.943   6.601   6.947 -0.7231  0.6534  0.3467
  123OSM    H8S13069   1.960   6.706   6.979 -0.9121  0.1859  2.0862
  123OSM    H8T13070   2.017   6.566   6.872 -0.5120 -2.4862  1.8637
  123OSM    C9S13071   1.974   6.516   7.077 -0.1700 -0.0909  0.5920
  123OSM    H9S13072   1.985   6.408   7.053  0.2908 -0.0255  0.4947
  123OSM    H9T13073   1.893   6.522   7.152 -0.9993  2.2407 -0.4128
  123OSM   C10S13074   2.106   6.561   7.144  0.3318 -0.6563  0.2862
  123OSM   H10S13075   2.195   6.581   7.081 -0.0820  0.1135 -0.0703
  123OSM   H10T13076   2.127   6.474   7.209 -1.2981 -0.7442  0.7344
  123OSM   C11S13077   2.089   6.682   7.241  0.1265  0.0231 -0.5343
  123OSM   H11S13078   2.012   6.650   7.314  0.5491  0.8923  0.3138
  123OSM   H11T13079   2.037   6.773   7.204 -1.4612 -0.1980  1.0496
  123OSM   C12S13080   2.209   6.721   7.323 -0.4393 -0.1400  0.3318
  123OSM   H12S13081   2.268   6.627   7.326 -2.1215 -1.2736 -0.5288
  123OSM   H12T13082   2.186   6.746   7.429  2.2072  0.0933  0.9332
  123OSM   C13S13083   2.291   6.839   7.276  0.2062 -1.0419  0.2110
  123OSM   H13S13084   2.233   6.932   7.289  0.2854 -1.2709  2.5475
  123OSM   H13T13085   2.311   6.837   7.166  4.7166  2.1916  0.6918
  123OSM   C14S13086   2.431   6.854   7.344  0.2992 -0.4210 -0.2041
  123OSM   H14S13087   2.489   6.934   7.293 -0.5015  0.8458  0.8330
  123OSM   H14T13088   2.485   6.757   7.341 -0.5068 -0.8572 -1.3999
  123OSM   C15S13089   2.418   6.891   7.495 -0.8253  0.5249 -0.7474
  123OSM   H15S13090   2.384   6.800   7.548  0.7748 -0.7411 -1.7755
  123OSM   H15T13091   2.356   6.983   7.503 -0.0540  1.0247 -0.3972
  123OSM   C16S13092   2.558   6.918   7.555 -0.4377  0.2195 -0.1411
  123OSM   H16S13093   2.583   7.012   7.501  1.6220 -0.5183 -0.5763
  123OSM   H16T13094   2.628   6.835   7.530 -1.2834 -1.0967  1.6334
  123OSM   C17S13095   2.539   6.950   7.699  0.2541  0.4776 -0.5020
  123OSM   H17S13096   2.466   6.881   7.746  1.3703 -1.0038 -0.8901
  123OSM   H17T13097   2.498   7.052   7.719 -0.0039  0.4455 -0.8484
  123OSM   C18S13098   2.675   6.939   7.776  0.2312 -0.5764  0.1664
  123OSM   H18S13099   2.723   6.841   7.757  1.4544 -0.1209  0.8629
  123OSM   H18T13100   2.652   6.936   7.884 -0.0701  2.2657  0.2654
  123OSM   H18U13101   2.749   7.019   7.757  0.0189 -0.5624 -0.6689
  123OSM    C1F13102   2.285   6.388   6.648  1.0317  0.1100  0.0695
  123OSM     OF13103   2.353   6.456   6.572  0.8577 -0.5829  0.1113
  123OSM    C2F13104   2.334   6.345   6.780  0.4104  0.0292 -0.2046
  123OSM    H2F13105   2.402   6.257   6.766 -2.6329 -2.5872  0.3732
  123OSM    H2G13106   2.249   6.313   6.844  1.2505 -1.3567  0.2904
  123OSM    C3F13107   2.410   6.455   6.853 -0.3492  0.6720  0.2156
  123OSM    H3F13108   2.360   6.550   6.883 -0.5999  0.4387  0.5399
  123OSM    H3G13109   2.487   6.489   6.780  1.8892 -1.5997  1.3408
  123OSM    C4F13110   2.491   6.415   6.972  0.3436 -0.1700  0.0133
  123OSM    H4F13111   2.563   6.335   6.947  0.9874  0.2755  0.3855
  123OSM    H4G13112   2.426   6.370   7.050  2.0448 -1.5796  0.6602
  123OSM    C5F13113   2.562   6.530   7.035  0.7600 -0.0617 -0.2526
  123OSM    H5F13114   2.485   6.605   7.062 -1.0874 -2.2214  0.8185
  123OSM    H5G13115   2.626   6.567   6.952  1.8893 -1.2389  0.0498
  123OSM    C6F13116   2.653   6.489   7.156  0.4242  0.3048 -0.3056
  123OSM    H6F13117   2.718   6.574   7.185  1.9303 -1.2783  1.2311
  123OSM    H6G13118   2.724   6.406   7.133  2.3623  1.2392  1.9344
  123OSM    C7F13119   2.562   6.449   7.278  0.5786 -0.5676 -0.2116
  123OSM    H7F13120   2.519   6.352   7.247  0.2079 -0.1721 -0.9447
  123OSM    H7G13121   2.478   6.521   7.288  0.7922 -0.1380 -1.4590
  123OSM    C8F13122   2.625   6.448   7.413 -0.3824  0.1179  0.5790
  123OSM    H8F13123   2.708   6.375   7.399  0.2792  0.5059  2.1809
  123OSM    H8G13124   2.560   6.406   7.493  0.7478 -0.2935  1.3114
  123OSM    C9F13125   2.688   6.571   7.479 -0.4834 -0.0104  0.1028
  123OSM    H9F13126   2.668   6.660   7.417  0.1801 -1.0352 -1.6602
  123OSM   C10F13127   2.741   6.573   7.603  0.1708 -0.2475  0.2705
  123OSM   H10F13128   2.788   6.667   7.635  1.1084 -0.1832 -1.2136
  123OSM   C11F13129   2.754   6.456   7.700 -0.8211 -0.4533  0.6230
  123OSM   H11F13130   2.848   6.461   7.759  0.7454  1.4446 -1.8175
  123OSM   H11G13131   2.754   6.365   7.636 -1.0769 -0.2222  0.2888
  123OSM   C12F13132   2.630   6.448   7.790 -0.3463 -0.1451  0.1594
  123OSM   H12F13133   2.547   6.412   7.725  0.2187  1.7007 -1.7185
  123OSM   H12G13134   2.619   6.555   7.819  5.1604  0.8884 -0.4818
  123OSM   C13F13135   2.650   6.355   7.906  0.9123  0.0375  0.4310
  123OSM   H13F13136   2.566   6.374   7.977 -0.0237  0.3415 -0.7351
  123OSM   H13G13137   2.749   6.376   7.950 -0.2853  0.2902  3.2423
  123OSM   C14F13138   2.634   6.206   7.874 -0.6201  0.0834 -0.2429
  123OSM   H14F13139   2.701   6.169   7.793 -0.5901 -0.5995  0.0850
  123OSM   H14G13140   2.535   6.180   7.832 -0.9580  1.2456 -0.2099
  123OSM   C15F13141   2.647   6.117   8.001  0.6950  0.2861  0.6534
  123OSM   H15F13142   2.652   6.010   7.974 -0.5616 -0.3444  2.7310
  123OSM   H15G13143   2.551   6.122   8.058 -1.0306 -1.8988 -1.8113
  123OSM   C16F13144   2.770   6.144   8.080 -0.3822 -0.5259 -0.0963
  123OSM   H16F13145   2.753   6.246   8.121 -2.1355  0.1785 -2.3358
  123OSM   H16G13146   2.850   6.129   8.004 -0.6198 -2.4732  0.0040
  123OSM   C17F13147   2.782   6.040   8.187 -0.4786 -0.5587  0.4960
  123OSM   H17F13148   2.729   5.952   8.146  0.4887  0.2080 -2.6605
  123OSM   H17G13149   2.728   6.078   8.276  1.2246 -0.9080  1.7209
  123OSM   C18F13150   2.925   5.999   8.214  0.3810  0.6796  0.0799
  123OSM   H18F13151   2.977   6.089   8.251 -2.0224  0.9458  3.2380
  123OSM   H18G13152   2.967   5.953   8.122 -3.3542  0.7317 -1.8349
  123OSM   H18H13153   2.927   5.921   8.293 -2.0923 -0.7052 -1.0868
  124OSM      N13154   3.988   4.973   6.138  0.2067 -0.3847 -0.1631
  124OSM    C1513155   4.120   4.905   6.157  0.7480  0.2535 -0.8826
  124OSM   H15A13156   4.116   4.797   6.163 -1.4508  0.3026 -0.6639
  124OSM   H15B13157   4.150   4.932   6.257 -1.1239 -0.7888  0.0166
  124OSM   H15C13158   4.187   4.946   6.083  1.3689 -0.5314 -0.7672
  124OSM    C1413159   4.009   5.126   6.114  0.2010  0.4032 -0.4256
  124OSM   H14A13160   4.064   5.146   6.024 -0.2311 -0.0371 -0.7969
  124OSM   H14B13161   4.053   5.176   6.199 -0.8025  2.1524 -0.8836
  124OSM   H14C13162   3.914   5.176   6.100 -0.3375  0.1927  1.9068
  124OSM    C1313163   3.909   4.922   6.022  0.4225 -0.3432  0.1753
  124OSM   H13A13164   3.962   4.949   5.932 -0.4867 -0.5098 -0.4235
  124OSM   H13B13165   3.810   4.959   6.000  0.4938 -0.8474 -1.0880
  124OSM   H13C13166   3.898   4.816   6.033 -1.5178 -0.1565  0.4055
  124OSM    C1213167   3.891   4.971   6.257  0.0749  0.3924  0.0402
  124OSM   H12A13168   3.798   5.022   6.238 -0.3430 -0.6633 -0.8434
  124OSM   H12B13169   3.944   5.017   6.339  1.3052 -3.4289  1.6456
  124OSM    C1113170   3.866   4.835   6.320  0.0932  0.4151  0.0290
  124OSM   H11A13171   3.811   4.854   6.415 -1.0435  0.5473 -0.6421
  124OSM   H11B13172   3.960   4.778   6.335 -0.4939 -1.3152 -2.2476
  124OSM      P13173   3.629   4.794   6.217 -0.1042 -0.6075 -0.0559
  124OSM    O1313174   3.612   4.928   6.266  0.8000  0.0729 -0.0552
  124OSM    O1413175   3.577   4.774   6.077 -0.0582  0.4185  0.3863
  124OSM    O1113176   3.548   4.692   6.315 -0.3764  0.0098 -0.9360
  124OSM    O1213177   3.789   4.753   6.228  0.6025  0.0798 -0.0383
  124OSM    C1S13178   3.623   4.594   6.385  0.2577 -0.5993  0.1484
  124OSM    H1S13179   3.733   4.596   6.370  0.1508  0.2478 -0.6382
  124OSM    H1T13180   3.599   4.488   6.361  1.8018 -0.9380 -0.0506
  124OSM     NF13181   3.687   4.505   6.612 -0.4143 -0.7971  0.2872
  124OSM    HNF13182   3.650   4.413   6.621 -3.1425  0.1572 -0.2076
  124OSM    C2S13183   3.600   4.592   6.544  0.3867  0.4560 -0.0156
  124OSM    H2S13184   3.616   4.697   6.576  0.2042  0.2526  0.7751
  124OSM    C3S13185   3.449   4.557   6.575 -0.2411  0.2864  0.1781
  124OSM    H3S13186   3.424   4.450   6.563 -2.4414  0.9032 -1.4188
  124OSM     O313187   3.360   4.607   6.471  0.6474  0.5996 -0.1443
  124OSM    HO313188   3.422   4.644   6.407 -0.4815 -1.0659 -2.3849
  124OSM    C4S13189   3.414   4.601   6.716  0.1071 -0.2618  0.0746
  124OSM    H4S13190   3.411   4.522   6.792  3.2087  1.2466  1.9801
  124OSM    C5S13191   3.375   4.725   6.763  0.8454  0.3050 -0.2538
  124OSM    H5S13192   3.369   4.805   6.687 -1.4148  0.6954  0.2675
  124OSM    C6S13193   3.348   4.770   6.905 -0.6591  0.5659  0.2296
  124OSM    H6S13194   3.238   4.783   6.915 -0.7020  0.3408  0.0547
  124OSM    H6T13195   3.406   4.865   6.916  3.7800 -1.4835 -2.7234
  124OSM    C7S13196   3.409   4.674   7.014  0.5653 -0.1030 -0.0341
  124OSM    H7S13197   3.518   4.665   6.996  0.7596 -1.2035  1.4917
  124OSM    H7T13198   3.362   4.574   7.003 -0.1613  0.2179  0.0680
  124OSM    C8S13199   3.391   4.719   7.153 -0.5857  0.7621 -0.1528
  124OSM    H8S13200   3.283   4.716   7.177 -0.5421 -2.6537  0.0846
  124OSM    H8T13201   3.420   4.824   7.178 -0.5939  0.8860 -0.6490
  124OSM    C9S13202   3.442   4.623   7.256  1.2854  0.5828  0.0558
  124OSM    H9S13203   3.552   4.633   7.258  1.3182  0.1148  0.9967
  124OSM    H9T13204   3.411   4.518   7.235 -1.5890  0.9797  1.8112
  124OSM   C10S13205   3.395   4.662   7.399  0.1746  0.0146  0.0190
  124OSM   H10S13206   3.284   4.664   7.394  0.1314  0.6237  0.8942
  124OSM   H10T13207   3.433   4.763   7.426  0.9622 -0.7569  2.0288
  124OSM   C11S13208   3.453   4.571   7.507 -0.3770 -0.1772 -1.2099
  124OSM   H11S13209   3.562   4.590   7.511 -0.4065 -0.0491 -0.9540
  124OSM   H11T13210   3.434   4.465   7.479 -3.2998 -0.0996  0.0602
  124OSM   C12S13211   3.386   4.599   7.642 -0.5901  0.8681  0.2583
  124OSM   H12S13212   3.280   4.565   7.639 -0.8523  1.7257 -1.1676
  124OSM   H12T13213   3.402   4.705   7.670  0.8415  0.8064 -0.2708
  124OSM   C13S13214   3.455   4.531   7.769  0.1488 -0.0010  0.0296
  124OSM   H13S13215   3.394   4.543   7.861  1.2591 -3.0696  1.2575
  124OSM   H13T13216   3.551   4.582   7.792 -1.0151  1.2126  2.5598
  124OSM   C14S13217   3.474   4.381   7.737 -0.3326 -0.1962 -0.4267
  124OSM   H14S13218   3.515   4.362   7.635 -2.1410 -1.6262 -0.9265
  124OSM   H14T13219   3.373   4.336   7.743 -0.6943  0.0701 -3.2220
  124OSM   C15S13220   3.560   4.304   7.843  0.7722 -0.0113  0.5069
  124OSM   H15S13221   3.525   4.319   7.948 -1.2384 -1.7959  0.1702
  124OSM   H15T13222   3.664   4.339   7.829  0.5442  0.9108  1.0728
  124OSM   C16S13223   3.555   4.155   7.829  0.4125 -0.2757 -0.3427
  124OSM   H16S13224   3.626   4.112   7.903 -1.1552 -0.8195  0.9089
  124OSM   H16T13225   3.582   4.137   7.723  0.3118 -1.0837 -0.2377
  124OSM   C17S13226   3.415   4.099   7.862  0.3786 -0.0723  0.2132
  124OSM   H17S13227   3.363   4.174   7.925  0.2603 -1.9646  2.5094
  124OSM   H17T13228   3.425   4.010   7.928  0.4559  0.0514  0.3683
  124OSM   C18S13229   3.341   4.060   7.740  0.3825  0.0735 -0.4967
  124OSM   H18S13230   3.399   3.986   7.680  0.5994 -0.9538  0.9280
  124OSM   H18T13231   3.318   4.145   7.672  1.6357  1.9640  1.3219
  124OSM   H18U13232   3.252   4.002   7.773  0.5787  0.2639  0.3892
  124OSM    C1F13233   3.813   4.539   6.628  0.0228  0.2808 -0.5085
  124OSM     OF13234   3.854   4.657   6.610 -0.1137  0.5020  0.0200
  124OSM    C2F13235   3.901   4.427   6.675  0.1249 -0.6541 -0.2137
  124OSM    H2F13236   3.995   4.417   6.617  0.4172 -1.7721  0.4255
  124OSM    H2G13237   3.841   4.335   6.658 -1.3808  0.3041 -0.2975
  124OSM    C3F13238   3.935   4.438   6.832  0.2185  0.1770  0.2869
  124OSM    H3F13239   3.967   4.538   6.866 -1.5798  0.5427  1.0060
  124OSM    H3G13240   4.005   4.353   6.852 -1.2908 -0.8068  1.7468
  124OSM    C4F13241   3.811   4.396   6.913  0.2362  0.0966 -0.7308
  124OSM    H4F13242   3.780   4.295   6.877 -3.0261  0.7075 -0.0054
  124OSM    H4G13243   3.733   4.470   6.885  0.2752 -0.0452 -1.2363
  124OSM    C5F13244   3.836   4.380   7.068  0.4175 -0.6120  0.0355
  124OSM    H5F13245   3.876   4.472   7.116 -0.2630 -0.5133  0.4177
  124OSM    H5G13246   3.905   4.294   7.082  1.3250  0.3099  1.4024
  124OSM    C6F13247   3.705   4.352   7.150 -0.2531  0.0350  0.7080
  124OSM    H6F13248   3.677   4.248   7.126  0.0310 -0.4049  2.1971
  124OSM    H6G13249   3.633   4.429   7.114 -0.4914 -0.0296  1.0435
  124OSM    C7F13250   3.730   4.354   7.303  0.0806  0.6911 -0.0950
  124OSM    H7F13251   3.632   4.331   7.350  0.4728 -0.2902  0.2632
  124OSM    H7G13252   3.749   4.459   7.334 -1.1950  0.4794  1.5056
  124OSM    C8F13253   3.844   4.269   7.361  0.0017 -0.2413  0.4796
  124OSM    H8F13254   3.929   4.337   7.342 -0.2648 -0.4043 -1.4900
  124OSM    H8G13255   3.862   4.175   7.303 -0.7928 -0.7481  1.0296
  124OSM    C9F13256   3.822   4.230   7.507  0.7995 -0.4165  0.5252
  124OSM    H9F13257   3.765   4.139   7.531 -0.2457  0.6604  2.3841
  124OSM   C10F13258   3.892   4.277   7.611 -0.3399  0.5246  0.4517
  124OSM   H10F13259   3.866   4.232   7.708 -2.8509 -1.3916 -0.9842
  124OSM   C11F13260   3.987   4.395   7.609  1.5791  0.0873 -0.0921
  124OSM   H11F13261   3.975   4.441   7.509  0.4092 -0.0305 -0.0173
  124OSM   H11G13262   4.091   4.357   7.615  1.1066 -1.6464 -1.9598
  124OSM   C12F13263   3.968   4.502   7.723  0.4384 -0.6989  0.0556
  124OSM   H12F13264   3.862   4.537   7.724  0.7722  0.3928 -0.9086
  124OSM   H12G13265   4.029   4.590   7.694 -1.0383  0.0010 -1.0666
  124OSM   C13F13266   4.025   4.467   7.859  0.1111  0.1168 -0.3872
  124OSM   H13F13267   4.135   4.455   7.850  0.6194  3.3033  0.5563
  124OSM   H13G13268   3.982   4.374   7.901  0.4212  1.1052  2.3080
  124OSM   C14F13269   4.000   4.584   7.958  0.6586  0.2481 -0.0456
  124OSM   H14F13270   3.900   4.575   8.006  1.3194 -0.9356  1.1693
  124OSM   H14G13271   4.012   4.682   7.908 -1.9512  0.4327 -0.4555
  124OSM   C15F13272   4.097   4.582   8.083 -0.2307 -0.6760 -0.1096
  124OSM   H15F13273   4.201   4.569   8.046 -0.2602 -0.0621 -0.4369
  124OSM   H15G13274   4.079   4.490   8.142  2.1954 -0.7016  0.7007
  124OSM   C16F13275   4.092   4.712   8.164  0.5592 -0.0180 -0.5488
  124OSM   H16F13276   4.138   4.695   8.264  0.1637 -0.3630 -0.4220
  124OSM   H16G13277   3.986   4.739   8.182  1.3039  2.9777 -0.1986
  124OSM   C17F13278   4.168   4.831   8.100 -1.0251 -0.5260 -0.4875
  124OSM   H17F13279   4.120   4.858   8.003  0.2728  0.3700 -0.9221
  124OSM   H17G13280   4.271   4.796   8.077 -0.7706 -2.3996  2.9048
  124OSM   C18F13281   4.170   4.967   8.183  0.4615  0.4452  0.1440
  124OSM   H18F13282   4.183   4.953   8.293 -0.7858  2.2883  0.5810
  124OSM   H18G13283   4.070   5.014   8.174  0.2654  0.0718  0.3451
  124OSM   H18H13284   4.252   5.032   8.146  1.7397 -1.0981  0.1470
  125OSM      N13285   5.398   5.582   6.155  0.3270  0.8099 -0.8443
  125OSM    C1513286   5.415   5.618   6.016  0.3624  0.1178 -0.0197
  125OSM   H15A13287   5.328   5.672   5.980 -1.2248 -1.0861  1.7921
  125OSM   H15B13288   5.414   5.532   5.951 -2.9506  1.1060 -1.5361
  125OSM   H15C13289   5.504   5.678   6.007  2.4106 -2.6245  0.8354
  125OSM    C1413290   5.269   5.517   6.179 -0.2628 -0.4497 -0.1953
  125OSM   H14A13291   5.260   5.447   6.097 -1.1164  0.9494 -1.3487
  125OSM   H14B13292   5.188   5.589   6.176  0.1756  0.1906  1.7042
  125OSM   H14C13293   5.252   5.482   6.280  0.3586  0.1821  0.1344
  125OSM    C1313294   5.495   5.476   6.198 -0.7040 -0.3434 -0.0150
  125OSM   H13A13295   5.598   5.503   6.175 -0.7434 -1.4403 -1.6047
  125OSM   H13B13296   5.478   5.386   6.142 -0.7458 -1.9165  2.3734
  125OSM   H13C13297   5.492   5.445   6.301  0.6658  1.0850  0.5102
  125OSM    C1213298   5.408   5.708   6.244  0.0257  0.5943  0.0774
  125OSM   H12A13299   5.474   5.784   6.205  1.4301 -0.0327  1.1505
  125OSM   H12B13300   5.468   5.687   6.331 -0.5291  3.3655  1.2190
  125OSM    C1113301   5.272   5.766   6.291 -0.4411 -0.2186 -0.3678
  125OSM   H11A13302   5.294   5.846   6.364  1.4051 -1.0441  0.0322
  125OSM   H11B13303   5.203   5.698   6.346 -2.2543  0.5125 -1.6220
  125OSM      P13304   5.058   5.860   6.179 -0.1573  0.3962  0.0438
  125OSM    O1313305   5.034   5.992   6.123 -0.3035  0.1298  0.3148
  125OSM    O1413306   4.986   5.746   6.114  0.4061  0.4103  0.0168
  125OSM    O1113307   5.017   5.860   6.335  0.2697 -0.1854 -0.3669
  125OSM    O1213308   5.210   5.816   6.179  0.2096  0.6562 -0.0316
  125OSM    C1S13309   5.024   5.985   6.407  0.1298  0.0084  0.0163
  125OSM    H1S13310   4.941   6.045   6.363  1.1847 -0.4243 -2.7729
  125OSM    H1T13311   5.119   6.041   6.393 -0.4839  0.7771 -1.3260
  125OSM     NF13312   4.982   6.097   6.623  0.6269 -0.2977 -0.3740
  125OSM    HNF13313   5.059   6.134   6.674 -0.2572  3.8471 -1.6774
  125OSM    C2S13314   4.997   5.960   6.559 -0.0658 -1.2788  0.3647
  125OSM    H2S13315   4.899   5.908   6.564 -0.7800  0.0377  0.4810
  125OSM    C3S13316   5.106   5.868   6.625 -0.1592  0.1099  0.0208
  125OSM    H3S13317   5.209   5.908   6.613  0.4064 -1.6434 -1.3752
  125OSM     O313318   5.117   5.737   6.574  0.3065 -0.3182  0.9328
  125OSM    HO313319   5.055   5.737   6.501  1.1461 -0.3359  0.2001
  125OSM    C4S13320   5.074   5.870   6.772 -0.1990 -0.2299 -0.1963
  125OSM    H4S13321   5.105   5.961   6.825  1.2511  0.5237 -2.2236
  125OSM    C5S13322   5.024   5.767   6.851 -0.1770  0.5160  0.0203
  125OSM    H5S13323   5.002   5.670   6.805  1.0737  0.5811 -0.7461
  125OSM    C6S13324   5.006   5.787   6.992 -0.5534  0.1090 -0.1686
  125OSM    H6S13325   5.075   5.721   7.049 -1.1499 -0.1825  0.2296
  125OSM    H6T13326   4.906   5.742   7.013  0.5354 -3.8678 -2.3656
  125OSM    C7S13327   5.021   5.926   7.065 -0.1343 -1.0808  0.0001
  125OSM    H7S13328   4.955   5.997   7.011  2.8781  1.2795 -0.8290
  125OSM    H7T13329   5.122   5.966   7.044  0.6507 -1.5231  2.5472
  125OSM    C8S13330   5.014   5.927   7.218  0.0196 -0.0759 -0.1322
  125OSM    H8S13331   5.103   5.876   7.260 -0.0490 -1.9762 -2.0730
  125OSM    H8T13332   4.919   5.874   7.242  0.7071 -1.0930  0.4203
  125OSM    C9S13333   5.003   6.063   7.282  0.1086 -0.4330  0.7021
  125OSM    H9S13334   4.900   6.098   7.261  0.6589  0.8911  0.1021
  125OSM    H9T13335   5.071   6.139   7.239 -2.8213  1.6516 -0.6276
  125OSM   C10S13336   4.994   6.057   7.434 -0.5115  0.2420  0.3242
  125OSM   H10S13337   4.938   5.966   7.462 -0.4166  0.6006  1.7552
  125OSM   H10T13338   4.936   6.141   7.478 -2.3363 -0.1770 -1.1667
  125OSM   C11S13339   5.138   6.051   7.487  0.6132  0.4628 -0.1566
  125OSM   H11S13340   5.193   6.134   7.438  0.2823  0.8796  0.1738
  125OSM   H11T13341   5.186   5.956   7.455 -1.3294 -0.5516 -0.2307
  125OSM   C12S13342   5.143   6.064   7.642 -0.3749 -0.0853  0.4855
  125OSM   H12S13343   5.072   6.007   7.706 -1.2131 -1.6542 -1.7197
  125OSM   H12T13344   5.124   6.173   7.647 -0.5189  0.0816 -2.2253
  125OSM   C13S13345   5.275   6.023   7.699 -0.3392 -0.0492 -0.0113
  125OSM   H13S13346   5.354   6.027   7.621 -2.1571 -0.1830 -1.9360
  125OSM   H13T13347   5.279   5.923   7.749 -1.3375  0.6733  1.5911
  125OSM   C14S13348   5.332   6.128   7.813  0.5861  0.5676  1.0233
  125OSM   H14S13349   5.246   6.136   7.883  0.3322  1.1707  0.6537
  125OSM   H14T13350   5.348   6.230   7.772  1.8318 -0.5779 -1.5550
  125OSM   C15S13351   5.451   6.077   7.884  0.2172 -0.3469  0.0753
  125OSM   H15S13352   5.532   6.047   7.814 -0.4001 -1.9569  0.0107
  125OSM   H15T13353   5.435   5.984   7.942  2.0163 -0.3280  0.6706
  125OSM   C16S13354   5.503   6.181   7.987 -0.0368 -0.5515  0.3523
  125OSM   H16S13355   5.427   6.208   8.063 -1.6518  0.8206 -1.6285
  125OSM   H16T13356   5.528   6.278   7.938  2.0117  0.1801  2.6688
  125OSM   C17S13357   5.630   6.129   8.054  0.4669 -0.3181 -0.4875
  125OSM   H17S13358   5.720   6.122   7.989  2.0722 -3.0603  1.8167
  125OSM   H17T13359   5.609   6.030   8.099 -0.7205  0.9671  1.9616
  125OSM   C18S13360   5.669   6.223   8.171  0.0194 -0.3305  0.1502
  125OSM   H18S13361   5.697   6.319   8.123  0.4015  0.1453  1.2972
  125OSM   H18T13362   5.760   6.177   8.214 -0.7742 -0.6935  1.4872
  125OSM   H18U13363   5.584   6.235   8.241 -0.3747  1.5431 -0.5821
  125OSM    C1F13364   4.887   6.188   6.589 -0.5614 -0.4460 -0.5835
  125OSM     OF13365   4.781   6.148   6.532 -0.3191 -0.4423 -0.2375
  125OSM    C2F13366   4.906   6.337   6.620  0.0629 -0.2123  0.2645
  125OSM    H2F13367   4.904   6.395   6.525 -0.8799  0.2209  0.5359
  125OSM    H2G13368   5.005   6.352   6.668 -0.6250  1.3020  1.2715
  125OSM    C3F13369   4.798   6.379   6.727 -0.4397 -0.0483  0.0427
  125OSM    H3F13370   4.701   6.344   6.685 -0.2093 -0.8073  0.1403
  125OSM    H3G13371   4.795   6.490   6.725 -1.4553 -0.0669  0.1050
  125OSM    C4F13372   4.837   6.329   6.871 -0.3945  0.3001  0.3273
  125OSM    H4F13373   4.943   6.343   6.901 -0.1635  1.3792 -0.9352
  125OSM    H4G13374   4.813   6.220   6.868  1.4825 -0.1244 -1.6116
  125OSM    C5F13375   4.757   6.395   6.975  0.0647 -0.0257 -0.0904
  125OSM    H5F13376   4.653   6.382   6.938 -0.3064  2.6743 -0.2329
  125OSM    H5G13377   4.774   6.505   6.980  0.8653 -0.0254 -2.1825
  125OSM    C6F13378   4.770   6.328   7.112  0.2046 -0.2311 -0.7364
  125OSM    H6F13379   4.864   6.366   7.156  0.3123 -1.7688  0.4679
  125OSM    H6G13380   4.780   6.217   7.106  2.6702 -0.1953  1.1820
  125OSM    C7F13381   4.653   6.358   7.208  0.5024 -0.2040  0.0654
  125OSM    H7F13382   4.554   6.322   7.171 -0.5550 -0.0848  2.5836
  125OSM    H7G13383   4.634   6.467   7.199 -1.1287 -0.4886 -0.2410
  125OSM    C8F13384   4.683   6.306   7.351  0.8548  0.2052 -0.0466
  125OSM    H8F13385   4.778   6.348   7.389  1.2977 -0.1901 -0.6955
  125OSM    H8G13386   4.698   6.196   7.345  3.4569  0.3829  1.8204
  125OSM    C9F13387   4.568   6.337   7.439  0.1705  0.4279  0.6397
  125OSM    H9F13388   4.476   6.279   7.418 -0.8168  1.1392  2.7178
  125OSM   C10F13389   4.562   6.413   7.548 -1.2334 -0.0191  0.5635
  125OSM   H10F13390   4.471   6.421   7.609 -1.7516  0.1230 -0.2150
  125OSM   C11F13391   4.678   6.494   7.596 -0.7471 -0.5008 -0.0917
  125OSM   H11F13392   4.651   6.581   7.660  0.6466  0.1960 -0.4201
  125OSM   H11G13393   4.724   6.557   7.518 -0.7725 -0.1947  0.1369
  125OSM   C12F13394   4.795   6.412   7.659 -0.5966 -0.2679  0.1487
  125OSM   H12F13395   4.876   6.488   7.657  0.1829 -0.9142 -4.4565
  125OSM   H12G13396   4.820   6.322   7.598 -1.8342 -2.1829  2.3264
  125OSM   C13F13397   4.758   6.364   7.802  0.2733 -0.1409 -0.3462
  125OSM   H13F13398   4.672   6.294   7.804 -0.3437  0.5848 -1.0219
  125OSM   H13G13399   4.728   6.441   7.875 -1.3209 -1.6978  0.6997
  125OSM   C14F13400   4.870   6.274   7.869 -0.0356  0.3790  0.2998
  125OSM   H14F13401   4.969   6.325   7.861 -0.5312  1.1949 -0.9705
  125OSM   H14G13402   4.868   6.172   7.826 -2.5864  0.1928  0.7194
  125OSM   C15F13403   4.856   6.261   8.027  0.4871 -0.8408  0.8430
  125OSM   H15F13404   4.763   6.203   8.051  1.0961 -2.3848 -0.3208
  125OSM   H15G13405   4.854   6.363   8.071 -0.7170  0.4189 -1.8716
  125OSM   C16F13406   4.978   6.186   8.067 -0.2460 -0.2827  1.2697
  125OSM   H16F13407   5.076   6.240   8.058  0.9505 -2.3411  1.3352
  125OSM   H16G13408   4.992   6.109   7.989 -1.2611  0.3977  0.3881
  125OSM   C17F13409   4.961   6.103   8.192  0.5573  0.3326 -0.8776
  125OSM   H17F13410   4.870   6.042   8.174 -0.8744  2.7063 -2.1117
  125OSM   H17G13411   4.932   6.183   8.263 -2.2820 -0.0121 -1.5507
  125OSM   C18F13412   5.080   6.016   8.240 -0.2404  0.5887  0.2561
  125OSM   H18F13413   5.168   6.078   8.267  2.2533 -1.8887 -1.6197
  125OSM   H18G13414   5.126   5.965   8.154  1.5704  0.6876  1.1276
  125OSM   H18H13415   5.052   5.952   8.327  0.8122 -0.8266 -0.4141
  126OSM      N13416   1.838   5.471   6.601 -0.5979  0.3319  0.8348
  126OSM    C1513417   1.725   5.544   6.543 -0.2547  0.1047 -0.4469
  126OSM   H15A13418   1.638   5.543   6.607 -0.6658  1.8375 -0.9360
  126OSM   H15B13419   1.693   5.502   6.449 -0.1942  0.4081 -0.6049
  126OSM   H15C13420   1.756   5.647   6.531 -2.1437  0.8221  0.4511
  126OSM    C1413421   1.854   5.519   6.741 -0.2439  0.2394 -0.1387
  126OSM   H14A13422   1.923   5.467   6.807 -0.2025  0.3448 -0.0982
  126OSM   H14B13423   1.756   5.525   6.787 -0.9320  0.6627 -1.6106
  126OSM   H14C13424   1.888   5.621   6.734 -1.7574  0.7845  0.1030
  126OSM    C1313425   1.809   5.326   6.592  0.3288 -0.2764  0.2335
  126OSM   H13A13426   1.891   5.262   6.621  0.1573 -1.1947 -1.2072
  126OSM   H13B13427   1.802   5.314   6.485  3.7632 -0.4936 -0.0777
  126OSM   H13C13428   1.722   5.283   6.640  0.9335 -1.6178  0.1920
  126OSM    C1213429   1.974   5.508   6.527  0.1786 -0.0582  0.3625
  126OSM   H12A13430   1.986   5.451   6.436  4.2938 -0.8824  1.2421
  126OSM   H12B13431   2.058   5.491   6.592  0.0777 -2.4880 -0.0470
  126OSM    C1113432   1.979   5.652   6.474 -0.2190  0.3226 -0.2896
  126OSM   H11A13433   1.901   5.661   6.395  1.1538 -0.8100 -1.8648
  126OSM   H11B13434   2.077   5.670   6.425  0.8163  2.8710  2.4702
  126OSM      P13435   1.913   5.889   6.556  0.2937 -0.0665 -0.1028
  126OSM    O1313436   1.983   5.966   6.449 -0.0376 -0.0710  0.1589
  126OSM    O1413437   1.766   5.886   6.533  0.1011  0.1070 -0.7154
  126OSM    O1113438   1.942   5.950   6.697  0.0280 -0.2473  0.6924
  126OSM    O1213439   1.969   5.747   6.579  0.0239 -0.0866  0.0812
  126OSM    C1S13440   1.863   5.933   6.814 -0.0496 -0.8578  0.5903
  126OSM    H1S13441   1.830   5.827   6.804 -0.4546 -0.5670 -1.7091
  126OSM    H1T13442   1.770   5.992   6.804  1.3609  1.1193 -3.0382
  126OSM     NF13443   1.899   5.907   7.055 -0.1017 -0.0078  0.7859
  126OSM    HNF13444   1.826   5.959   7.099  0.6971  0.2316  1.8524
  126OSM    C2S13445   1.954   5.969   6.935  0.3683  0.1278  0.6470
  126OSM    H2S13446   2.046   5.913   6.909 -0.7098 -1.0052 -0.9394
  126OSM    C3S13447   1.983   6.119   6.945 -0.1030  0.1825 -0.0101
  126OSM    H3S13448   1.888   6.177   6.941 -0.6703 -0.7592 -0.3530
  126OSM     O313449   2.070   6.149   6.831  0.6210 -0.3078  0.5822
  126OSM    HO313450   2.060   6.078   6.768  0.7514 -0.6447  0.9364
  126OSM    C4S13451   2.059   6.152   7.079  0.1032 -0.0903 -0.5705
  126OSM    H4S13452   1.995   6.148   7.168 -0.2292  0.7577 -0.7619
  126OSM    C5S13453   2.196   6.168   7.094 -0.0719 -0.1442 -0.3251
  126OSM    H5S13454   2.260   6.159   7.006 -1.5131  0.7287 -1.5169
  126OSM    C6S13455   2.262   6.207   7.224  0.3611 -0.2024 -0.2055
  126OSM    H6S13456   2.300   6.311   7.212  0.5044 -0.2389 -0.0725
  126OSM    H6T13457   2.343   6.132   7.238 -0.1609 -0.7246  0.0515
  126OSM    C7S13458   2.171   6.208   7.346  0.3487  0.1352 -0.1430
  126OSM    H7S13459   2.136   6.107   7.376  1.8436 -0.1813  0.6086
  126OSM    H7T13460   2.078   6.262   7.318  0.4802 -0.7905 -2.6308
  126OSM    C8S13461   2.235   6.277   7.464  0.3256 -0.1219  0.1933
  126OSM    H8S13462   2.148   6.318   7.520 -0.3978 -2.2374  0.6883
  126OSM    H8T13463   2.299   6.364   7.438 -0.7592  0.9044  0.8492
  126OSM    C9S13464   2.307   6.188   7.567  0.2249  0.1273  0.1245
  126OSM    H9S13465   2.364   6.258   7.632  1.6601  1.2060 -2.1596
  126OSM    H9T13466   2.379   6.125   7.509 -2.0867 -0.4582 -2.2814
  126OSM   C10S13467   2.210   6.101   7.659 -0.2451 -0.4399 -0.2080
  126OSM   H10S13468   2.285   6.030   7.702  1.2225  1.3715  0.3526
  126OSM   H10T13469   2.143   6.039   7.595 -0.1145  0.5548 -1.3420
  126OSM   C11S13470   2.133   6.183   7.761 -0.0326 -0.1710 -0.1940
  126OSM   H11S13471   2.053   6.248   7.720  0.5271  1.2460  0.8804
  126OSM   H11T13472   2.209   6.253   7.802  0.1379 -0.5857  0.2145
  126OSM   C12S13473   2.098   6.105   7.885  1.1526  0.3751 -0.4536
  126OSM   H12S13474   2.017   6.170   7.925  0.6751  1.5028 -2.9894
  126OSM   H12T13475   2.187   6.103   7.951 -0.0205 -2.1479  1.1796
  126OSM   C13S13476   2.051   5.960   7.881  0.8599  0.6993 -0.4555
  126OSM   H13S13477   2.129   5.902   7.826 -1.2259 -1.9540 -0.8095
  126OSM   H13T13478   1.958   5.951   7.820 -0.7552 -1.1614  2.0700
  126OSM   C14S13479   2.028   5.899   8.021 -0.3812  0.5065  0.5199
  126OSM   H14S13480   1.950   5.956   8.076 -1.3816  0.9340 -1.2682
  126OSM   H14T13481   2.124   5.896   8.078 -1.1739  0.4808  1.9005
  126OSM   C15S13482   1.974   5.758   8.008 -0.2098 -0.2653  0.6297
  126OSM   H15S13483   2.024   5.722   7.916 -2.7504  1.0489 -1.4135
  126OSM   H15T13484   1.864   5.764   7.992  0.0456 -0.4654 -1.4803
  126OSM   C16S13485   1.999   5.674   8.137 -0.2441 -0.8374  0.4258
  126OSM   H16S13486   1.946   5.719   8.224  0.1807 -0.6137  0.5713
  126OSM   H16T13487   2.108   5.665   8.157  0.8707 -1.2087 -4.4905
  126OSM   C17S13488   1.949   5.531   8.119 -0.5752 -0.1602  0.4783
  126OSM   H17S13489   1.983   5.496   8.019  2.0691  1.2221  0.8085
  126OSM   H17T13490   1.839   5.545   8.125 -0.4738  0.2378  1.7163
  126OSM   C18S13491   1.979   5.429   8.224  0.6994 -0.0450 -0.2196
  126OSM   H18S13492   2.089   5.420   8.239  0.4688 -2.3319  0.4881
  126OSM   H18T13493   1.941   5.327   8.203  1.3044 -0.9004  2.4350
  126OSM   H18U13494   1.932   5.455   8.321  0.7233  0.3603 -0.3140
  126OSM    C1F13495   1.905   5.776   7.076 -0.1729 -0.2181 -0.4791
  126OSM     OF13496   1.990   5.713   7.019  0.0522  0.5557  0.4662
  126OSM    C2F13497   1.804   5.719   7.167  0.5234  0.4122  0.6209
  126OSM    H2F13498   1.713   5.781   7.152  0.3004 -0.3215 -1.3053
  126OSM    H2G13499   1.848   5.731   7.269  0.7876 -0.4048  0.6154
  126OSM    C3F13500   1.788   5.568   7.136 -0.2792  0.9634  0.1745
  126OSM    H3F13501   1.881   5.517   7.170 -1.6848 -1.6157  0.3748
  126OSM    H3G13502   1.781   5.552   7.026  2.0317  1.7710 -0.1599
  126OSM    C4F13503   1.684   5.488   7.229  0.6351 -0.1322  0.1757
  126OSM    H4F13504   1.599   5.559   7.241  0.5796  0.0710 -1.2220
  126OSM    H4G13505   1.721   5.463   7.330  2.8803  1.3067 -0.2118
  126OSM    C5F13506   1.612   5.368   7.164  0.3872 -0.0746  0.4197
  126OSM    H5F13507   1.541   5.410   7.090 -0.3929 -0.7606  0.7772
  126OSM    H5G13508   1.557   5.327   7.251  1.6329 -4.0781 -0.4558
  126OSM    C6F13509   1.701   5.261   7.099 -0.0439  0.4308  0.1167
  126OSM    H6F13510   1.726   5.185   7.176  0.1518  0.2654 -0.1119
  126OSM    H6G13511   1.786   5.315   7.053 -0.7196 -0.5143 -2.3702
  126OSM    C7F13512   1.631   5.189   6.979 -0.4189  0.1082  0.2122
  126OSM    H7F13513   1.695   5.133   6.908 -4.3210 -0.5384 -3.1773
  126OSM    H7G13514   1.578   5.268   6.922  0.1632 -0.3749 -1.0268
  126OSM    C8F13515   1.521   5.088   7.027  0.1433 -0.1581  0.5058
  126OSM    H8F13516   1.455   5.072   6.940 -1.6892  0.2760  1.7574
  126OSM    H8G13517   1.454   5.135   7.102 -0.9833  0.1076 -0.6326
  126OSM    C9F13518   1.574   4.959   7.064  0.0630  0.7431  0.4859
  126OSM    H9F13519   1.614   4.897   6.983 -0.1112  0.4435  0.6260
  126OSM   C10F13520   1.571   4.904   7.183  0.6084 -0.2675  0.1901
  126OSM   H10F13521   1.616   4.806   7.203  0.7251 -0.4084 -0.7169
  126OSM   C11F13522   1.505   4.966   7.308  0.1356  0.1161 -0.0575
  126OSM   H11F13523   1.396   4.984   7.299  0.4566  1.6978 -1.1733
  126OSM   H11G13524   1.553   5.066   7.311  1.6116 -0.5628  0.0846
  126OSM   C12F13525   1.517   4.880   7.435  0.1753 -0.0157  0.4131
  126OSM   H12F13526   1.449   4.793   7.429 -2.1318  1.7385 -0.2647
  126OSM   H12G13527   1.481   4.948   7.516  0.9125 -0.6936  1.3397
  126OSM   C13F13528   1.656   4.839   7.475  0.1645  0.1309 -0.0616
  126OSM   H13F13529   1.700   4.787   7.388 -1.4812  2.1628 -2.2616
  126OSM   H13G13530   1.645   4.767   7.559  0.2209 -0.3392 -0.4551
  126OSM   C14F13531   1.743   4.961   7.501 -0.1222 -0.4312 -0.1779
  126OSM   H14F13532   1.732   5.038   7.422 -1.6473 -0.9375 -0.5036
  126OSM   H14G13533   1.849   4.928   7.498 -0.5894 -2.1286  0.4964
  126OSM   C15F13534   1.729   5.033   7.642  0.3632 -0.2266  0.6547
  126OSM   H15F13535   1.630   5.036   7.692  0.6867 -0.7013  1.3451
  126OSM   H15G13536   1.737   5.144   7.632 -0.7028 -0.2480 -0.6038
  126OSM   C16F13537   1.844   4.982   7.738 -0.1317 -0.1013  0.3753
  126OSM   H16F13538   1.943   5.000   7.689  0.9694 -1.5032  1.9935
  126OSM   H16G13539   1.825   4.876   7.764 -0.6422  0.2349  1.3865
  126OSM   C17F13540   1.847   5.061   7.873 -0.3014  0.1137  0.0149
  126OSM   H17F13541   1.850   5.171   7.852 -1.0289 -0.2703 -2.4485
  126OSM   H17G13542   1.949   5.042   7.914  0.0897 -1.2338 -1.4965
  126OSM   C18F13543   1.722   5.021   7.959  0.2546 -0.0908  0.2670
  126OSM   H18F13544   1.721   4.911   7.977  1.4428 -0.2222 -0.4376
  126OSM   H18G13545   1.625   5.037   7.907  0.5440 -1.3094 -0.6866
  126OSM   H18H13546   1.713   5.059   8.063 -2.5979 -0.9915  0.4564
  127OSM      N13547   2.118   3.977   6.062 -0.3322  0.5963 -0.1087
  127OSM    C1513548   2.169   3.916   6.190 -0.3717 -0.0843  0.0729
  127OSM   H15A13549   2.218   3.986   6.257 -2.5560  1.0789  0.5356
  127OSM   H15B13550   2.243   3.838   6.177 -2.0134 -1.6536 -0.2099
  127OSM   H15C13551   2.089   3.861   6.237  0.7037 -1.6178  0.2095
  127OSM    C1413552   2.001   4.064   6.091  0.1742  0.6377  0.6868
  127OSM   H14A13553   1.918   4.013   6.137  1.9727 -1.3044  1.9263
  127OSM   H14B13554   1.967   4.109   5.998 -0.3032 -1.6098 -0.2915
  127OSM   H14C13555   2.039   4.141   6.157  0.4175  0.7443  0.4267
  127OSM    C1313556   2.219   4.064   5.985  0.5735 -0.0811 -0.3738
  127OSM   H13A13557   2.186   4.086   5.885 -1.4779 -2.8347 -0.4126
  127OSM   H13B13558   2.314   4.013   5.982  0.0572 -1.2846  1.5374
  127OSM   H13C13559   2.242   4.154   6.041 -0.2565  0.0817 -0.2787
  127OSM    C1213560   2.079   3.857   5.966  0.7913  0.0338 -0.2787
  127OSM   H12A13561   2.171   3.800   5.967  0.8839  0.1741  1.0164
  127OSM   H12B13562   2.047   3.898   5.872 -2.1259  1.4630  1.2057
  127OSM    C1113563   1.969   3.766   6.013 -0.1523 -0.2082  0.1410
  127OSM   H11A13564   1.934   3.700   5.931 -0.9160  0.0728  0.2388
  127OSM   H11B13565   1.881   3.826   6.042  0.6926  1.2129 -0.1217
  127OSM      P13566   1.917   3.579   6.189 -0.2502  0.1119  0.3075
  127OSM    O1313567   1.821   3.622   6.297  0.0057 -0.3338  0.2330
  127OSM    O1413568   1.865   3.496   6.080 -0.1244  0.5039 -0.3899
  127OSM    O1113569   2.031   3.495   6.267 -0.0714 -0.0384  0.1754
  127OSM    O1213570   2.009   3.691   6.131 -0.1274  0.9126  0.0158
  127OSM    C1S13571   2.125   3.575   6.342 -0.5454  0.0357  0.9068
  127OSM    H1S13572   2.144   3.674   6.294 -1.9609 -0.9633 -1.9297
  127OSM    H1T13573   2.225   3.529   6.327  0.3032  1.8840  0.5242
  127OSM     NF13574   2.195   3.668   6.554 -0.3159  0.0758 -0.3456
  127OSM    HNF13575   2.281   3.624   6.581 -0.1416  0.7142  0.1526
  127OSM    C2S13576   2.101   3.577   6.496  1.2987 -0.1634  0.4943
  127OSM    H2S13577   1.998   3.616   6.516  0.8545 -0.4557 -1.1052
  127OSM    C3S13578   2.109   3.437   6.553 -0.5067  0.7355  0.1240
  127OSM    H3S13579   2.213   3.399   6.542 -1.2037 -1.1208 -0.4961
  127OSM     O313580   2.010   3.349   6.500 -0.6483  0.6510  0.0298
  127OSM    HO313581   1.996   3.376   6.409  0.1855 -1.0911 -0.6716
  127OSM    C4S13582   2.086   3.445   6.708 -0.0891  0.8378  0.4502
  127OSM    H4S13583   2.185   3.434   6.755  0.2937  0.4865 -0.4152
  127OSM    C5S13584   1.980   3.463   6.788 -0.0874  0.9544 -0.1912
  127OSM    H5S13585   1.876   3.481   6.757  0.0646 -0.8287 -1.9562
  127OSM    C6S13586   1.988   3.480   6.936 -0.6538  0.1647 -0.9681
  127OSM    H6S13587   1.924   3.409   6.992 -0.1160 -0.0707 -0.6471
  127OSM    H6T13588   1.968   3.587   6.959  0.9417  0.1769  0.4984
  127OSM    C7S13589   2.120   3.464   7.014  0.6149 -0.2596 -0.6104
  127OSM    H7S13590   2.199   3.536   6.984 -0.2542  1.1457  0.3318
  127OSM    H7T13591   2.160   3.362   6.995 -1.8468 -1.1708 -1.2546
  127OSM    C8S13592   2.099   3.485   7.175 -0.1683  0.1168  0.0063
  127OSM    H8S13593   2.076   3.388   7.225  0.4883  1.5814  3.4425
  127OSM    H8T13594   2.022   3.562   7.199  0.0871 -0.4834  3.3291
  127OSM    C9S13595   2.241   3.525   7.235  1.1886 -0.6870 -0.0039
  127OSM    H9S13596   2.267   3.621   7.186  0.1578 -0.0492  0.6299
  127OSM    H9T13597   2.310   3.444   7.203  1.2451 -1.1200  1.1609
  127OSM   C10S13598   2.250   3.521   7.387  0.1407 -0.0620 -0.1366
  127OSM   H10S13599   2.354   3.504   7.422  0.4617 -0.8006 -1.4020
  127OSM   H10T13600   2.196   3.439   7.440 -1.5267  1.6297  0.9405
  127OSM   C11S13601   2.203   3.657   7.453  0.1571 -0.3299 -0.5658
  127OSM   H11S13602   2.108   3.693   7.407  0.3322 -1.5816 -2.0085
  127OSM   H11T13603   2.279   3.733   7.428 -0.7029 -0.0720 -2.6260
  127OSM   C12S13604   2.196   3.660   7.608 -0.4144 -0.3435 -0.0781
  127OSM   H12S13605   2.182   3.765   7.642  0.3309  0.1822 -1.3338
  127OSM   H12T13606   2.294   3.631   7.652  0.0121  0.8460 -0.2099
  127OSM   C13S13607   2.063   3.590   7.652  0.3562  0.0830  0.2702
  127OSM   H13S13608   2.061   3.491   7.602 -1.6595 -1.6747  3.5064
  127OSM   H13T13609   1.989   3.665   7.617  0.6504  0.9334  1.4312
  127OSM   C14S13610   2.049   3.583   7.807 -0.2371 -0.2113 -0.5978
  127OSM   H14S13611   2.128   3.513   7.842 -0.4137 -0.9519 -1.6478
  127OSM   H14T13612   1.953   3.534   7.830 -1.5118  1.6724 -1.6127
  127OSM   C15S13613   2.057   3.719   7.874  0.1730 -0.4291 -0.1126
  127OSM   H15S13614   2.023   3.787   7.793  1.3416 -0.3164 -0.5310
  127OSM   H15T13615   2.160   3.754   7.894 -0.0089  1.0113 -1.4734
  127OSM   C16S13616   1.969   3.743   8.003 -0.5844  0.3448  0.7925
  127OSM   H16S13617   1.867   3.708   7.978  0.2175  0.4339 -3.2514
  127OSM   H16T13618   1.973   3.851   8.031  1.6523 -0.3514  3.6856
  127OSM   C17S13619   2.038   3.672   8.118  0.1861 -1.1028  0.1336
  127OSM   H17S13620   2.145   3.692   8.140  0.7927 -0.5005 -2.9308
  127OSM   H17T13621   2.045   3.564   8.092  3.3831 -0.5338 -1.9809
  127OSM   C18S13622   1.940   3.678   8.238  0.8273  0.2230  0.0536
  127OSM   H18S13623   1.830   3.666   8.221 -0.0068  2.8748  2.8340
  127OSM   H18T13624   1.945   3.784   8.271 -0.6351 -0.2016  1.8240
  127OSM   H18U13625   1.980   3.607   8.313  1.0938 -0.2260 -0.4997
  127OSM    C1F13626   2.177   3.798   6.536 -0.0350 -0.3020  0.1749
  127OSM     OF13627   2.078   3.851   6.485 -0.5585 -0.3533 -0.0104
  127OSM    C2F13628   2.291   3.874   6.579  0.1415  0.1828  0.9595
  127OSM    H2F13629   2.258   3.979   6.587  0.1921  0.5279 -2.0728
  127OSM    H2G13630   2.360   3.872   6.492 -1.2074  0.4605 -0.1514
  127OSM    C3F13631   2.363   3.808   6.699 -0.8727 -0.2776  0.1265
  127OSM    H3F13632   2.453   3.871   6.717  0.0545 -1.2316 -0.9875
  127OSM    H3G13633   2.394   3.707   6.663 -0.5133 -0.6361  1.3728
  127OSM    C4F13634   2.279   3.804   6.826  0.6373 -0.4424  0.5528
  127OSM    H4F13635   2.327   3.739   6.903 -1.8040 -1.6091  1.1714
  127OSM    H4G13636   2.180   3.756   6.818  0.8643 -0.7451 -0.6787
  127OSM    C5F13637   2.259   3.935   6.883 -0.1158  0.0332  0.3860
  127OSM    H5F13638   2.195   4.000   6.820  1.0270  1.4312  0.6375
  127OSM    H5G13639   2.357   3.985   6.891  0.0253 -0.1950  0.0988
  127OSM    C6F13640   2.198   3.942   7.031  0.3811 -0.3831 -0.0419
  127OSM    H6F13641   2.246   3.856   7.082 -1.2107 -1.6137 -0.5281
  127OSM    H6G13642   2.092   3.911   7.025 -0.0272  0.3404  2.4169
  127OSM    C7F13643   2.208   4.082   7.090 -0.4728 -0.0699  0.0751
  127OSM    H7F13644   2.194   4.159   7.010  0.2283 -2.0100 -2.0214
  127OSM    H7G13645   2.309   4.074   7.136 -0.3568 -2.3500 -0.4562
  127OSM    C8F13646   2.093   4.098   7.185 -0.6720  0.0783  0.3864
  127OSM    H8F13647   2.081   4.002   7.240 -1.8270 -0.4774 -0.7892
  127OSM    H8G13648   2.000   4.102   7.125  0.0486  0.9605 -0.7071
  127OSM    C9F13649   2.112   4.214   7.274  0.4543  1.1870  0.2522
  127OSM    H9F13650   2.151   4.307   7.232 -0.7278  1.4967 -0.2240
  127OSM   C10F13651   2.113   4.207   7.406  0.6461 -0.2171  1.2109
  127OSM   H10F13652   2.138   4.298   7.462 -0.9910  0.9172  0.1867
  127OSM   C11F13653   2.082   4.087   7.489  0.4289 -0.2527 -0.2812
  127OSM   H11F13654   2.093   3.992   7.433  1.1283 -0.0447 -0.5080
  127OSM   H11G13655   1.975   4.097   7.516  0.3454 -0.7302 -0.4357
  127OSM   C12F13656   2.169   4.076   7.618  0.2607 -0.2309  0.6312
  127OSM   H12F13657   2.274   4.077   7.580 -0.0441 -0.0456 -0.2272
  127OSM   H12G13658   2.156   3.976   7.666  2.2449 -0.7338  0.2194
  127OSM   C13F13659   2.142   4.173   7.735  0.1705 -0.0100  0.4737
  127OSM   H13F13660   2.097   4.262   7.686 -2.5512 -1.5367  0.0093
  127OSM   H13G13661   2.240   4.204   7.778 -2.0758  3.9390  3.4217
  127OSM   C14F13662   2.041   4.131   7.842  0.8490  1.1467 -0.4335
  127OSM   H14F13663   2.074   4.039   7.894 -2.1848  0.9163  1.3487
  127OSM   H14G13664   1.942   4.102   7.800 -0.4017 -0.0381  2.9953
  127OSM   C15F13665   2.014   4.245   7.944  0.3523  0.3087  0.1286
  127OSM   H15F13666   1.924   4.211   7.999  0.6080 -0.8406 -0.1284
  127OSM   H15G13667   1.985   4.343   7.901 -0.6367 -0.8303 -1.9835
  127OSM   C16F13668   2.133   4.270   8.041  0.3418  0.6112  0.9528
  127OSM   H16F13669   2.214   4.305   7.973  1.3152 -1.8939  0.7062
  127OSM   H16G13670   2.151   4.161   8.054 -1.2012  0.1789 -0.2024
  127OSM   C17F13671   2.106   4.356   8.164  0.0779  0.1479 -0.3594
  127OSM   H17F13672   2.017   4.328   8.224  1.2154  1.4479  2.0791
  127OSM   H17G13673   2.080   4.452   8.114 -0.5311 -1.0830 -2.5902
  127OSM   C18F13674   2.224   4.353   8.254 -0.1215  0.0276  0.1128
  127OSM   H18F13675   2.319   4.387   8.207 -0.6907  1.0678 -0.3214
  127OSM   H18G13676   2.242   4.249   8.289  0.9900  0.9991  2.6268
  127OSM   H18H13677   2.206   4.411   8.346 -1.4981  0.2750 -0.2879
  128OSM      N13678   4.345   0.657   6.013 -0.1573 -0.4722 -0.3292
  128OSM    C1513679   4.344   0.797   6.066 -0.2494  0.1404 -0.2630
  128OSM   H15A13680   4.447   0.824   6.086 -0.5223 -0.7803  2.9199
  128OSM   H15B13681   4.300   0.800   6.164  1.8001 -1.3589  0.7914
  128OSM   H15C13682   4.310   0.866   5.991  2.1771  0.3155 -1.2955
  128OSM    C1413683   4.208   0.632   5.964  0.0626  0.3863 -0.3632
  128OSM   H14A13684   4.210   0.533   5.923 -2.8147  0.2936 -0.4684
  128OSM   H14B13685   4.182   0.696   5.880 -0.0467  0.1242 -0.5306
  128OSM   H14C13686   4.141   0.632   6.049  0.4180 -1.8890 -0.0328
  128OSM    C1313687   4.435   0.658   5.893  0.9894  0.3081  0.3637
  128OSM   H13A13688   4.412   0.746   5.835 -1.3188 -0.1084  0.5682
  128OSM   H13B13689   4.421   0.570   5.831  0.4490 -1.8117  3.2747
  128OSM   H13C13690   4.538   0.656   5.925  1.3338 -2.1809 -0.6587
  128OSM    C1213691   4.385   0.547   6.111 -0.3557 -0.0793  0.5580
  128OSM   H12A13692   4.355   0.456   6.059  0.1586 -0.5832  1.1390
  128OSM   H12B13693   4.319   0.561   6.195  1.0391  1.6114  1.4280
  128OSM    C1113694   4.527   0.532   6.174 -0.3006  0.2602 -0.4504
  128OSM   H11A13695   4.534   0.452   6.251 -1.3506  1.5222  1.0021
  128OSM   H11B13696   4.535   0.627   6.230  0.4458  1.6292 -2.7544
  128OSM      P13697   4.751   0.629   6.080  0.3735  0.0934 -0.2899
  128OSM    O1313698   4.872   0.580   6.006  0.0439  0.1057 -0.0796
  128OSM    O1413699   4.695   0.755   6.023  0.2181  0.3344  0.2546
  128OSM    O1113700   4.796   0.665   6.229  0.5986  0.1121  0.0229
  128OSM    O1213701   4.641   0.517   6.083 -0.2599  0.0349  0.5386
  128OSM    C1S13702   4.826   0.570   6.332 -0.0480 -0.0551 -0.0737
  128OSM    H1S13703   4.910   0.507   6.297 -0.6525  0.0986 -1.9287
  128OSM    H1T13704   4.738   0.505   6.352  0.1326 -0.4500 -0.5394
  128OSM     NF13705   4.889   0.558   6.573 -0.3765 -0.2337 -0.6285
  128OSM    HNF13706   4.823   0.506   6.626 -0.1729 -0.3350 -0.4725
  128OSM    C2S13707   4.842   0.643   6.470  0.3381  0.2246 -0.2874
  128OSM    H2S13708   4.915   0.727   6.469  2.1389 -1.2810 -0.9320
  128OSM    C3S13709   4.709   0.711   6.508  0.1128 -0.2545 -1.4842
  128OSM    H3S13710   4.634   0.633   6.530 -1.3954  1.8335  1.3997
  128OSM     O313711   4.653   0.786   6.403  0.5859  0.2007  0.2749
  128OSM    HO313712   4.710   0.761   6.330  0.5324 -2.6649  1.0761
  128OSM    C4S13713   4.724   0.797   6.634 -0.2547 -0.1622 -0.0117
  128OSM    H4S13714   4.739   0.738   6.726  1.3629 -0.8910 -0.7058
  128OSM    C5S13715   4.736   0.932   6.648  0.2522  0.7581  0.1299
  128OSM    H5S13716   4.742   0.991   6.556  0.6430 -1.4631 -1.3469
  128OSM    C6S13717   4.754   1.006   6.778 -0.5850 -0.1704 -0.1151
  128OSM    H6S13718   4.676   1.085   6.784 -1.3381 -0.9130  0.1471
  128OSM    H6T13719   4.855   1.051   6.775  0.2833 -2.0286 -0.2628
  128OSM    C7S13720   4.742   0.931   6.916 -0.6441  0.0064 -0.0495
  128OSM    H7S13721   4.811   0.844   6.918 -1.4734 -0.6598  0.1399
  128OSM    H7T13722   4.635   0.901   6.915  0.0435 -2.6794  0.2204
  128OSM    C8S13723   4.779   1.028   7.032  0.0934  0.0412 -0.1067
  128OSM    H8S13724   4.760   1.135   7.010  0.1314 -0.5414 -3.4942
  128OSM    H8T13725   4.889   1.023   7.050 -0.1906 -1.8232  1.5319
  128OSM    C9S13726   4.703   0.992   7.165 -0.1087 -0.2757  0.5813
  128OSM    H9S13727   4.710   0.885   7.194  2.7982 -0.1322  0.6995
  128OSM    H9T13728   4.595   1.004   7.142  0.2131  3.1067  0.3078
  128OSM   C10S13729   4.746   1.080   7.280  0.3538  0.2489 -0.3736
  128OSM   H10S13730   4.715   1.184   7.257  2.7733  1.0609 -0.2225
  128OSM   H10T13731   4.856   1.074   7.296  0.0506 -0.9411  1.6575
  128OSM   C11S13732   4.667   1.039   7.407  0.0586  0.1249 -0.6129
  128OSM   H11S13733   4.694   0.938   7.446 -0.9271 -0.7114 -1.9919
  128OSM   H11T13734   4.564   1.014   7.374 -0.4681  0.6670  0.5610
  128OSM   C12S13735   4.682   1.145   7.527  0.0529  0.7567  0.9176
  128OSM   H12S13736   4.637   1.241   7.494 -0.8788 -0.4298 -1.5159
  128OSM   H12T13737   4.790   1.156   7.551  0.4248 -2.1003  0.8280
  128OSM   C13S13738   4.621   1.102   7.656 -0.0733 -0.6159  0.3667
  128OSM   H13S13739   4.682   1.014   7.686  1.4345  0.1950 -0.2084
  128OSM   H13T13740   4.512   1.089   7.638  0.1588 -3.7972  0.5493
  128OSM   C14S13741   4.634   1.215   7.758  0.2621  0.9965  0.1161
  128OSM   H14S13742   4.562   1.295   7.731  0.1087  1.2289  1.1950
  128OSM   H14T13743   4.741   1.245   7.745  0.1971  0.9231 -0.6251
  128OSM   C15S13744   4.608   1.153   7.899  0.1510 -1.0804 -0.0599
  128OSM   H15S13745   4.680   1.070   7.914  1.0352 -0.7690 -2.1769
  128OSM   H15T13746   4.511   1.099   7.896  0.2639 -1.2988  0.2069
  128OSM   C16S13747   4.620   1.245   8.021 -0.0814  0.6392  0.5255
  128OSM   H16S13748   4.548   1.330   8.023  1.1212  1.6769  2.2974
  128OSM   H16T13749   4.723   1.286   8.026  0.0200  0.2531  2.6112
  128OSM   C17S13750   4.608   1.173   8.155 -0.2917 -0.3673  0.1995
  128OSM   H17S13751   4.692   1.101   8.159 -1.2394 -1.5451 -0.2982
  128OSM   H17T13752   4.514   1.114   8.166 -0.5248  0.2360  1.7385
  128OSM   C18S13753   4.633   1.263   8.278  0.3644  0.0130 -0.2621
  128OSM   H18S13754   4.710   1.338   8.252 -1.4091  1.5288 -1.4568
  128OSM   H18T13755   4.664   1.199   8.363 -1.4852  1.2347  1.4204
  128OSM   H18U13756   4.539   1.316   8.302 -0.6694 -2.2477  1.0677
  128OSM    C1F13757   5.014   0.508   6.567  0.1080 -0.0892  0.2137
  128OSM     OF13758   5.096   0.541   6.486 -0.6631  0.8483 -0.0224
  128OSM    C2F13759   5.056   0.413   6.672 -0.6832 -0.9169  0.8595
  128OSM    H2F13760   5.071   0.314   6.623  0.6069 -1.6732  2.6810
  128OSM    H2G13761   4.973   0.412   6.746 -2.0576  1.0462 -0.5327
  128OSM    C3F13762   5.186   0.478   6.744 -0.3571  0.1431  0.6742
  128OSM    H3F13763   5.170   0.581   6.781 -1.2983  1.0445 -2.0199
  128OSM    H3G13764   5.272   0.474   6.673 -0.3306  0.7475  0.6683
  128OSM    C4F13765   5.244   0.412   6.871 -0.9270  0.3188 -0.6575
  128OSM    H4F13766   5.337   0.472   6.879  0.1763 -1.3366 -0.7468
  128OSM    H4G13767   5.281   0.309   6.851  1.1845  0.1282  3.2430
  128OSM    C5F13768   5.168   0.408   7.006 -0.3465 -0.0779  0.2924
  128OSM    H5F13769   5.087   0.333   7.010  1.1457 -1.7972 -0.4597
  128OSM    H5G13770   5.126   0.507   7.036  0.8397  0.3060  0.7744
  128OSM    C6F13771   5.265   0.374   7.117 -0.1683  0.1320  0.1079
  128OSM    H6F13772   5.302   0.469   7.161 -0.1006 -0.6106  1.7436
  128OSM    H6G13773   5.348   0.312   7.076 -1.6715 -2.6392  1.0005
  128OSM    C7F13774   5.198   0.292   7.236  0.7077 -0.0881  0.2308
  128OSM    H7F13775   5.164   0.199   7.186 -1.9090  1.4516 -1.0664
  128OSM    H7G13776   5.102   0.339   7.266 -0.3915 -1.0860 -1.5298
  128OSM    C8F13777   5.287   0.283   7.365  0.0433 -0.2058 -0.2243
  128OSM    H8F13778   5.295   0.388   7.401  0.3049  0.3211 -1.7047
  128OSM    H8G13779   5.382   0.248   7.319  1.3908  0.5883  1.8256
  128OSM    C9F13780   5.232   0.188   7.468  0.4462  0.4557  0.3033
  128OSM    H9F13781   5.233   0.087   7.425  0.7168  1.5633 -2.5266
  128OSM   C10F13782   5.209   0.218   7.596 -0.5175  0.0266 -0.5393
  128OSM   H10F13783   5.168   0.141   7.663  2.5818 -0.1874  1.3073
  128OSM   C11F13784   5.219   0.355   7.646  0.3715  0.3411  0.0740
  128OSM   H11F13785   5.137   0.413   7.598  1.3364  1.1633 -0.6291
  128OSM   H11G13786   5.320   0.402   7.636  0.0944  0.9966  0.2640
  128OSM   C12F13787   5.196   0.368   7.798  0.9916 -0.5579 -0.4111
  128OSM   H12F13788   5.093   0.326   7.808  0.4554  0.3597 -1.7415
  128OSM   H12G13789   5.187   0.477   7.820 -0.1885 -0.4058 -1.5279
  128OSM   C13F13790   5.301   0.296   7.888 -0.0314  1.0951  1.0737
  128OSM   H13F13791   5.405   0.334   7.882  0.1642  0.4134 -0.1973
  128OSM   H13G13792   5.293   0.193   7.847 -0.0576  1.9492 -1.2200
  128OSM   C14F13793   5.272   0.308   8.043  0.5121  0.5183  0.2236
  128OSM   H14F13794   5.338   0.242   8.103 -1.0724 -0.8483  0.5447
  128OSM   H14G13795   5.171   0.267   8.064  0.8178  1.0866  3.2257
  128OSM   C15F13796   5.282   0.452   8.104  0.0242 -0.0964  0.4449
  128OSM   H15F13797   5.192   0.510   8.076 -0.0224 -1.6095 -3.0471
  128OSM   H15G13798   5.371   0.492   8.051 -0.6205 -0.7577 -1.2035
  128OSM   C16F13799   5.314   0.474   8.255  0.3688 -1.2996  0.2641
  128OSM   H16F13800   5.341   0.581   8.265 -2.1212 -0.6938  1.4052
  128OSM   H16G13801   5.392   0.405   8.294  2.5626 -0.5506 -2.5262
  128OSM   C17F13802   5.201   0.447   8.352  0.6965 -0.1045 -0.4787
  128OSM   H17F13803   5.190   0.337   8.355  0.6627 -0.0808  0.9862
  128OSM   H17G13804   5.109   0.499   8.319  0.5953  0.3971  0.5395
  128OSM   C18F13805   5.227   0.495   8.498 -0.9555 -0.2252 -0.1346
  128OSM   H18F13806   5.252   0.603   8.496 -2.1218  0.1322  2.0386
  128OSM   H18G13807   5.313   0.435   8.535 -1.6894  0.0578  2.1990
  128OSM   H18H13808   5.146   0.474   8.570 -2.2122  1.1007 -1.1044
  129OSM      N13809   1.042   2.771   5.926  0.8564  0.3250  0.9599
  129OSM    C1513810   1.120   2.695   5.823  0.4234  0.2497 -0.2160
  129OSM   H15A13811   1.057   2.654   5.746 -1.2074  0.1456  1.1210
  129OSM   H15B13812   1.161   2.604   5.863 -0.8754  0.0902  0.8198
  129OSM   H15C13813   1.195   2.758   5.777  0.0891  1.1614  0.4628
  129OSM    C1413814   1.014   2.910   5.870  0.1772 -0.4841 -0.0479
  129OSM   H14A13815   0.948   2.965   5.935  1.5875  2.3777 -0.8644
  129OSM   H14B13816   0.970   2.902   5.772 -2.5573  2.5974  0.7510
  129OSM   H14C13817   1.103   2.971   5.872  3.5538 -4.8367  1.9204
  129OSM    C1313818   0.916   2.696   5.952  0.3080  0.0368  0.3713
  129OSM   H13A13819   0.946   2.604   6.001  2.0257 -0.1886 -0.9732
  129OSM   H13B13820   0.855   2.681   5.864  0.9243 -1.7229  0.1932
  129OSM   H13C13821   0.846   2.756   6.007 -1.1016  1.7305 -2.9575
  129OSM    C1213822   1.116   2.779   6.056  0.5372 -0.5137 -0.1732
  129OSM   H12A13823   1.212   2.823   6.034 -0.3492  2.4191  1.2298
  129OSM   H12B13824   1.121   2.688   6.113 -2.6193 -0.2091  0.7957
  129OSM    C1113825   1.058   2.870   6.161  0.0089 -0.4086 -0.8881
  129OSM   H11A13826   1.101   2.847   6.261 -0.5775  1.5961 -0.1398
  129OSM   H11B13827   0.952   2.841   6.175  0.1027 -0.7581 -0.8942
  129OSM      P13828   1.203   3.094   6.147 -0.0337 -0.0597  0.5800
  129OSM    O1313829   1.297   3.070   6.035 -0.5817 -0.1310 -0.2168
  129OSM    O1413830   1.173   3.235   6.179  0.6466 -0.1986 -0.5534
  129OSM    O1113831   1.271   3.025   6.272 -0.4673  0.2857  0.2487
  129OSM    O1213832   1.070   3.011   6.122  0.4264  0.4161 -0.6243
  129OSM    C1S13833   1.223   3.059   6.402 -0.2707 -0.1847  0.6477
  129OSM    H1S13834   1.149   2.983   6.435 -0.4142 -1.1608 -1.7421
  129OSM    H1T13835   1.176   3.160   6.405  1.5549  0.8375 -1.7936
  129OSM     NF13836   1.271   3.096   6.636  0.4931 -0.8097 -0.4662
  129OSM    HNF13837   1.255   3.192   6.657  0.2900 -0.5590 -1.6904
  129OSM    C2S13838   1.333   3.067   6.501  0.1035 -0.3641  0.5227
  129OSM    H2S13839   1.379   2.967   6.516  1.9295  0.7463  3.1168
  129OSM    C3S13840   1.449   3.165   6.467  0.2855 -0.2905  0.6573
  129OSM    H3S13841   1.406   3.267   6.468  0.0131 -0.4053  1.6573
  129OSM     O313842   1.515   3.152   6.338  0.1585  0.6966 -0.0903
  129OSM    HO313843   1.449   3.112   6.282 -3.1649  1.1740  3.1007
  129OSM    C4S13844   1.552   3.156   6.576  0.2232 -0.3930 -0.2188
  129OSM    H4S13845   1.519   3.216   6.663  1.3545  1.0131 -0.7295
  129OSM    C5S13846   1.668   3.075   6.581 -0.3028 -0.1183 -0.2026
  129OSM    H5S13847   1.695   3.010   6.496 -1.7476 -0.9279 -0.0908
  129OSM    C6S13848   1.749   3.060   6.710  0.0195 -0.1776 -0.0609
  129OSM    H6S13849   1.857   3.077   6.688  0.0072  0.5797  0.4411
  129OSM    H6T13850   1.741   2.953   6.738 -1.0351 -0.0882  0.0216
  129OSM    C7S13851   1.707   3.144   6.832  0.2896 -0.5317  0.0152
  129OSM    H7S13852   1.599   3.129   6.857  0.1482 -1.9550 -1.3333
  129OSM    H7T13853   1.718   3.252   6.810 -0.0962 -0.1730  1.4367
  129OSM    C8S13854   1.793   3.105   6.951 -0.0118  0.6637 -0.0958
  129OSM    H8S13855   1.899   3.124   6.925  0.3239 -2.1899 -1.1822
  129OSM    H8T13856   1.782   2.997   6.974 -0.7324  0.6029 -0.6948
  129OSM    C9S13857   1.745   3.173   7.082 -0.4551  0.0668 -0.4630
  129OSM    H9S13858   1.641   3.145   7.109 -0.5363 -0.2685 -1.1126
  129OSM    H9T13859   1.754   3.284   7.081  0.7581 -0.0161 -1.8405
  129OSM   C10S13860   1.838   3.126   7.196  0.1275 -0.4634 -0.0728
  129OSM   H10S13861   1.939   3.171   7.186  0.3377 -0.2202  2.3957
  129OSM   H10T13862   1.856   3.016   7.200  2.1697 -0.1319  1.8702
  129OSM   C11S13863   1.782   3.166   7.330 -0.0202  0.0759 -0.1311
  129OSM   H11S13864   1.850   3.132   7.410 -1.3268  0.0804  1.0238
  129OSM   H11T13865   1.685   3.115   7.351  0.2935  0.4369  2.5158
  129OSM   C12S13866   1.769   3.320   7.332  0.2244 -0.0254 -0.3185
  129OSM   H12S13867   1.670   3.347   7.290  0.7531  1.4180 -0.6951
  129OSM   H12T13868   1.851   3.360   7.269  0.9690  0.7476  1.0864
  129OSM   C13S13869   1.783   3.373   7.475  0.1410 -0.1570  0.2707
  129OSM   H13S13870   1.742   3.476   7.465 -0.4877 -0.5297 -1.3793
  129OSM   H13T13871   1.893   3.376   7.490  0.2973  0.0386 -0.7890
  129OSM   C14S13872   1.712   3.292   7.580  0.7259  0.1509  0.2372
  129OSM   H14S13873   1.751   3.188   7.577 -0.2286 -0.2090 -0.4959
  129OSM   H14T13874   1.605   3.277   7.555  1.1793 -1.8201 -0.7394
  129OSM   C15S13875   1.735   3.346   7.722 -0.4724 -0.1726  0.0314
  129OSM   H15S13876   1.680   3.442   7.717  1.7054  1.0982 -1.2856
  129OSM   H15T13877   1.842   3.373   7.730  0.1599 -2.1417 -1.0662
  129OSM   C16S13878   1.692   3.249   7.830 -0.1260  0.3139  0.5891
  129OSM   H16S13879   1.736   3.149   7.809  1.7353  0.7957  1.9801
  129OSM   H16T13880   1.581   3.239   7.824  0.0225 -1.7037  0.6041
  129OSM   C17S13881   1.733   3.297   7.973 -0.5130  0.4272  0.5654
  129OSM   H17S13882   1.842   3.291   7.993 -0.7614  0.0358  1.8912
  129OSM   H17T13883   1.688   3.226   8.045  0.8240  0.8569  1.8688
  129OSM   C18S13884   1.677   3.429   8.003  0.0523  0.0180  0.5615
  129OSM   H18S13885   1.713   3.501   7.925 -0.8558  2.3139  2.1418
  129OSM   H18T13886   1.718   3.463   8.101  0.4466  2.0628 -0.2650
  129OSM   H18U13887   1.567   3.421   8.001  0.0223  0.4852 -0.1111
  129OSM    C1F13888   1.190   3.006   6.715 -0.3734  0.0369  0.6107
  129OSM     OF13889   1.177   2.892   6.674 -0.1241 -0.1471  0.0249
  129OSM    C2F13890   1.126   3.059   6.840 -0.0955 -0.0313 -0.1719
  129OSM    H2F13891   1.016   3.043   6.833  0.3271 -2.7085 -2.7008
  129OSM    H2G13892   1.151   3.167   6.848  0.3793 -0.0926 -0.7691
  129OSM    C3F13893   1.179   2.979   6.957  0.7556 -0.5430 -0.1016
  129OSM    H3F13894   1.281   3.020   6.976 -0.2759  1.0810  2.6972
  129OSM    H3G13895   1.186   2.870   6.941 -0.2428 -0.6388  0.0766
  129OSM    C4F13896   1.097   3.005   7.088  0.1414  0.1883  0.0336
  129OSM    H4F13897   0.993   2.969   7.082 -0.0483  0.5574  0.9117
  129OSM    H4G13898   1.090   3.116   7.089  0.1654  0.1984 -0.7115
  129OSM    C5F13899   1.168   2.963   7.220  0.0715 -0.5090  0.9995
  129OSM    H5F13900   1.268   3.013   7.215 -0.6044  0.8138 -1.9711
  129OSM    H5G13901   1.182   2.854   7.235 -1.0098 -0.8027  0.0045
  129OSM    C6F13902   1.107   3.021   7.347 -0.0628 -0.1745  0.4230
  129OSM    H6F13903   1.116   3.131   7.339  1.7667 -0.1910  1.7185
  129OSM    H6G13904   1.169   2.980   7.429 -0.4095 -1.0355  0.2683
  129OSM    C7F13905   0.961   2.989   7.371 -0.6667 -0.2161  0.8317
  129OSM    H7F13906   0.951   2.878   7.375 -0.6290 -0.2956 -0.5803
  129OSM    H7G13907   0.908   3.011   7.276 -0.0800 -1.0211  0.2992
  129OSM    C8F13908   0.887   3.062   7.477  0.2756  0.3286  0.7166
  129OSM    H8F13909   0.779   3.039   7.465  0.3418  1.1377 -2.3272
  129OSM    H8G13910   0.897   3.171   7.459  0.9554  0.3265  1.0426
  129OSM    C9F13911   0.949   3.027   7.609  0.1536 -0.1663 -0.0107
  129OSM    H9F13912   1.054   3.059   7.619  0.3783 -1.6177  3.6403
  129OSM   C10F13913   0.894   2.983   7.725 -0.2716 -0.0864  0.6647
  129OSM   H10F13914   0.949   2.950   7.814 -1.8124  3.0524  2.9611
  129OSM   C11F13915   0.746   2.951   7.735 -0.1722  0.6562  0.2596
  129OSM   H11F13916   0.730   2.841   7.728  1.9841  0.3833 -1.2110
  129OSM   H11G13917   0.685   3.009   7.663  0.0482 -1.0342 -1.3529
  129OSM   C12F13918   0.697   3.012   7.869 -0.0315 -0.2175 -0.2692
  129OSM   H12F13919   0.588   2.996   7.870  0.0549 -1.3226 -2.4598
  129OSM   H12G13920   0.701   3.122   7.880 -1.1397 -0.1790 -0.2264
  129OSM   C13F13921   0.754   2.959   8.000 -0.2704 -0.2023  0.0071
  129OSM   H13F13922   0.864   2.946   8.013 -0.1787 -0.6503 -1.1238
  129OSM   H13G13923   0.733   2.850   8.004 -1.1286 -0.0339  0.2713
  129OSM   C14F13924   0.673   3.011   8.120  0.1686  0.7662 -0.2049
  129OSM   H14F13925   0.567   3.004   8.088  0.7839 -2.3247 -1.9590
  129OSM   H14G13926   0.694   3.116   8.149 -0.0482  0.2216  2.0991
  129OSM   C15F13927   0.684   2.921   8.241 -0.3181  0.2229 -0.3670
  129OSM   H15F13928   0.792   2.914   8.267 -0.2435 -3.3817 -1.1475
  129OSM   H15G13929   0.637   2.822   8.223 -0.0104 -0.1851  0.9320
  129OSM   C16F13930   0.614   2.997   8.358  0.1102  0.5503  0.5672
  129OSM   H16F13931   0.509   3.020   8.328  0.3437  1.0395  0.1232
  129OSM   H16G13932   0.660   3.095   8.384  1.1569  0.8140 -2.0537
  129OSM   C17F13933   0.604   2.904   8.484 -0.4615 -1.2736  0.2583
  129OSM   H17F13934   0.708   2.884   8.517  0.1430 -0.9480 -1.3571
  129OSM   H17G13935   0.554   2.812   8.449 -0.2007 -1.3179 -0.0082
  129OSM   C18F13936   0.540   2.966   8.615 -0.0463 -0.4329  0.0800
  129OSM   H18F13937   0.603   3.055   8.637 -0.5266 -0.1677  0.4006
  129OSM   H18G13938   0.549   2.898   8.702  1.5836 -1.8002 -1.0957
  129OSM   H18H13939   0.436   3.003   8.598 -0.5573 -0.1360  3.2215
  130OSM      N13940   5.012   6.585   6.068 -0.0364  0.6420 -0.2851
  130OSM    C1513941   5.063   6.476   5.981 -0.4434 -0.2127 -0.0970
  130OSM   H15A13942   5.002   6.465   5.892 -0.6398  1.2090 -0.1711
  130OSM   H15B13943   5.063   6.381   6.033 -0.6611 -0.1357  0.0482
  130OSM   H15C13944   5.163   6.498   5.947 -1.1854  0.5856 -1.8775
  130OSM    C1413945   5.009   6.716   6.001 -0.5640  0.0130 -0.6427
  130OSM   H14A13946   4.970   6.704   5.901 -0.3055  0.7640 -0.8385
  130OSM   H14B13947   5.105   6.766   5.995 -1.6627  2.2835 -0.0981
  130OSM   H14C13948   4.944   6.778   6.059 -0.3914 -2.9749  3.1071
  130OSM    C1313949   4.862   6.553   6.105 -0.4343 -0.3567  0.0428
  130OSM   H13A13950   4.820   6.628   6.171  1.7467  1.3763 -0.3931
  130OSM   H13B13951   4.848   6.454   6.146  1.5562  0.3663  2.7696
  130OSM   H13C13952   4.793   6.553   6.022 -1.3888 -1.2474  0.8071
  130OSM    C1213953   5.096   6.592   6.195  0.7928  0.4771 -0.1622
  130OSM   H12A13954   5.070   6.672   6.262  2.8736  1.5943 -0.6006
  130OSM   H12B13955   5.198   6.619   6.174  0.0485  2.0267 -2.0917
  130OSM    C1113956   5.100   6.461   6.292 -0.3415  0.2029 -0.1530
  130OSM   H11A13957   5.000   6.427   6.327 -1.7371  0.9065 -3.1234
  130OSM   H11B13958   5.161   6.501   6.375  0.0214  0.3725 -0.5000
  130OSM      P13959   5.313   6.336   6.194 -0.2502 -0.2665  0.2855
  130OSM    O1313960   5.325   6.253   6.074 -0.4959  0.2587 -0.3141
  130OSM    O1413961   5.384   6.466   6.203  0.0243 -0.4320  0.4831
  130OSM    O1113962   5.362   6.250   6.314 -0.7233  0.6279  0.0338
  130OSM    O1213963   5.159   6.349   6.228 -0.2513 -0.0674  1.0448
  130OSM    C1S13964   5.355   6.306   6.445 -0.7851 -0.6261  0.2921
  130OSM    H1S13965   5.252   6.300   6.485  0.3742 -1.7045  3.4241
  130OSM    H1T13966   5.390   6.411   6.453  1.5325 -1.2805 -0.3802
  130OSM     NF13967   5.420   6.284   6.674 -0.0884  0.8017  0.0391
  130OSM    HNF13968   5.484   6.342   6.723 -0.2832  0.6900  0.4322
  130OSM    C2S13969   5.453   6.237   6.539 -0.5678 -0.0463  0.0923
  130OSM    H2S13970   5.442   6.127   6.537  0.6157 -0.1848  0.4946
  130OSM    C3S13971   5.603   6.261   6.503 -0.5637 -0.7070 -0.1152
  130OSM    H3S13972   5.622   6.370   6.499  0.8441 -0.9645 -3.0022
  130OSM     O313973   5.637   6.216   6.373 -0.2545 -0.2372 -0.1045
  130OSM    HO313974   5.554   6.213   6.326  0.2463  0.2749 -1.0554
  130OSM    C4S13975   5.702   6.197   6.596 -0.1212 -0.0546  0.2365
  130OSM    H4S13976   5.672   6.095   6.625  1.0511 -0.4008  0.2754
  130OSM    C5S13977   5.812   6.256   6.655 -0.3579  0.4887 -0.5135
  130OSM    H5S13978   5.842   6.361   6.640  1.2377 -0.0371 -1.1643
  130OSM    C6S13979   5.906   6.185   6.752  0.4380 -0.0384  0.2872
  130OSM    H6S13980   6.005   6.231   6.731  0.0850  1.3313  1.4536
  130OSM    H6T13981   5.913   6.076   6.731  0.1722 -0.3765  1.8547
  130OSM    C7S13982   5.891   6.204   6.906 -0.0421 -0.4024  0.2820
  130OSM    H7S13983   5.794   6.158   6.937 -0.8310  1.3015  0.4751
  130OSM    H7T13984   5.884   6.311   6.934 -1.9925  0.4684 -2.9185
  130OSM    C8S13985   5.998   6.138   6.987  0.2139  0.0891  0.6295
  130OSM    H8S13986   6.088   6.199   7.011 -0.5484  0.4327  2.8641
  130OSM    H8T13987   6.035   6.040   6.949  1.1411  0.2222  1.1512
  130OSM    C9S13988   5.940   6.122   7.125  0.1737  0.2520  0.5047
  130OSM    H9S13989   5.850   6.058   7.116  1.8471 -2.2381  0.7935
  130OSM    H9T13990   5.922   6.227   7.158  3.1785  1.2655 -0.6931
  130OSM   C10S13991   6.050   6.066   7.218 -0.2677  0.1920 -0.4717
  130OSM   H10S13992   6.145   6.122   7.200  0.6875 -1.5989 -1.2056
  130OSM   H10T13993   6.069   5.964   7.178 -1.5780 -0.1343 -0.3023
  130OSM   C11S13994   6.018   6.093   7.365 -0.4132 -0.4456  0.2434
  130OSM   H11S13995   5.937   6.021   7.392  0.1215 -0.6410  1.3701
  130OSM   H11T13996   5.973   6.194   7.378  0.2914  0.4745 -3.3639
  130OSM   C12S13997   6.138   6.082   7.460 -0.2484  0.0971  0.0206
  130OSM   H12S13998   6.202   6.169   7.436  1.0983 -0.4022  1.6694
  130OSM   H12T13999   6.187   5.984   7.442 -1.1929 -0.4010  0.0644
  130OSM   C13S14000   6.101   6.094   7.616 -0.5415 -0.4028  0.6162
  130OSM   H13S14001   6.054   6.193   7.635  1.5410  1.0770 -1.3084
  130OSM   H13T14002   6.202   6.107   7.662  0.1207 -0.2653 -0.8142
  130OSM   C14S14003   6.022   5.983   7.676  0.3936 -0.3303 -0.0055
  130OSM   H14S14004   6.073   5.887   7.653 -0.5654 -0.8852  0.1138
  130OSM   H14T14005   5.932   5.969   7.612  0.3192 -1.4670  0.3246
  130OSM   C15S14006   5.993   5.978   7.827  0.2656 -0.4407  0.3952
  130OSM   H15S14007   5.893   5.930   7.838 -0.8022  1.4225 -0.5296
  130OSM   H15T14008   5.971   6.083   7.858 -0.5816 -0.8012  1.0637
  130OSM   C16S14009   6.103   5.921   7.917 -0.4967  0.6786  0.0377
  130OSM   H16S14010   6.189   5.991   7.922  1.3705 -1.5180  0.5823
  130OSM   H16T14011   6.147   5.825   7.880 -0.1204  0.4114  1.1344
  130OSM   C17S14012   6.076   5.881   8.064  0.1623  0.0848 -0.2211
  130OSM   H17S14013   6.168   5.837   8.109 -0.8537 -0.3626  1.5153
  130OSM   H17T14014   6.000   5.801   8.077 -0.9181  1.1715  0.4260
  130OSM   C18S14015   6.029   5.994   8.145  0.2966  0.3346  0.2582
  130OSM   H18S14016   5.923   6.012   8.119  0.4803  0.9745 -0.0581
  130OSM   H18T14017   6.089   6.086   8.127  1.0082 -0.3662 -1.0822
  130OSM   H18U14018   6.039   5.972   8.254 -0.9638  0.1911  0.3590
  130OSM    C1F14019   5.314   6.254   6.748  1.1236 -0.8924  0.1583
  130OSM     OF14020   5.235   6.165   6.714 -0.8394 -0.3222 -0.8502
  130OSM    C2F14021   5.307   6.332   6.879  0.4432 -0.3725 -0.0391
  130OSM    H2F14022   5.237   6.418   6.883 -0.2127 -0.9190  0.3730
  130OSM    H2G14023   5.409   6.373   6.891  0.6454 -1.1753  1.0546
  130OSM    C3F14024   5.267   6.241   6.996 -0.3112  0.4856  0.2735
  130OSM    H3F14025   5.189   6.172   6.957 -0.7190 -0.4974  2.6767
  130OSM    H3G14026   5.220   6.298   7.079 -1.2850 -0.9126  0.7061
  130OSM    C4F14027   5.374   6.138   7.039 -0.1183  0.6235  0.0814
  130OSM    H4F14028   5.394   6.080   6.947 -0.3957  2.0800 -0.9440
  130OSM    H4G14029   5.331   6.074   7.119 -0.5650  0.9223  0.0895
  130OSM    C5F14030   5.503   6.196   7.085 -0.5100 -0.3254  0.2289
  130OSM    H5F14031   5.554   6.249   7.001  1.4737 -0.9619  0.9677
  130OSM    H5G14032   5.579   6.119   7.111  0.1997  0.8789  1.9538
  130OSM    C6F14033   5.503   6.289   7.207 -1.0688 -0.0094  0.0351
  130OSM    H6F14034   5.484   6.217   7.289 -1.2039  0.1996  0.1908
  130OSM    H6G14035   5.433   6.376   7.205  0.9754  1.7223 -0.0719
  130OSM    C7F14036   5.641   6.345   7.239 -0.0703 -0.0669  0.3802
  130OSM    H7F14037   5.657   6.433   7.172 -0.0021  0.0617  0.5659
  130OSM    H7G14038   5.716   6.263   7.236 -0.5229 -0.6478  2.9497
  130OSM    C8F14039   5.636   6.395   7.392 -0.5097 -0.2842  0.4944
  130OSM    H8F14040   5.557   6.472   7.406 -1.6378 -1.0277 -1.3870
  130OSM    H8G14041   5.731   6.451   7.402 -0.5513 -0.2075  0.4560
  130OSM    C9F14042   5.642   6.288   7.499 -0.2741 -0.1821  0.4780
  130OSM    H9F14043   5.626   6.183   7.470 -0.0547 -0.2984  0.7770
  130OSM   C10F14044   5.666   6.312   7.625 -0.2532  0.1803 -0.2104
  130OSM   H10F14045   5.677   6.234   7.701 -0.8674 -0.1475 -0.4514
  130OSM   C11F14046   5.689   6.454   7.681 -0.0258  1.0842 -0.5296
  130OSM   H11F14047   5.610   6.475   7.756  0.7130  2.4226 -0.0856
  130OSM   H11G14048   5.671   6.531   7.602  0.3844  0.8249 -0.8840
  130OSM   C12F14049   5.834   6.483   7.724  0.1927  0.4804 -0.4408
  130OSM   H12F14050   5.861   6.585   7.757 -0.2172  0.0645  1.2729
  130OSM   H12G14051   5.902   6.451   7.642  0.3875  3.1790 -1.4246
  130OSM   C13F14052   5.869   6.388   7.840 -0.4898 -0.1245 -0.3678
  130OSM   H13F14053   5.845   6.283   7.812 -0.7039  0.1665 -1.3117
  130OSM   H13G14054   5.802   6.405   7.927  0.0665  1.7231 -0.2609
  130OSM   C14F14055   6.010   6.384   7.894 -0.3597  0.5883  0.3250
  130OSM   H14F14056   6.080   6.390   7.808  1.3906 -0.4632  1.6175
  130OSM   H14G14057   6.023   6.288   7.950 -1.7136  0.7010  0.8755
  130OSM   C15F14058   6.041   6.496   7.990 -0.7295  0.3244 -0.3069
  130OSM   H15F14059   5.986   6.585   7.951  1.3801  1.6535 -0.4170
  130OSM   H15G14060   6.150   6.515   7.987 -1.0169  2.0831 -1.0734
  130OSM   C16F14061   5.992   6.471   8.132 -0.4349 -0.9543 -0.0727
  130OSM   H16F14062   5.881   6.467   8.130 -0.4316 -0.9594 -0.2398
  130OSM   H16G14063   6.024   6.568   8.177 -1.1934  0.2930 -2.1061
  130OSM   C17F14064   6.047   6.346   8.206  0.3535 -0.2055  0.1426
  130OSM   H17F14065   6.157   6.353   8.196  0.3179 -0.2861 -0.3452
  130OSM   H17G14066   6.018   6.257   8.146 -0.6740  0.9725 -1.1792
  130OSM   C18F14067   5.996   6.335   8.347  0.0181 -0.0343 -0.3546
  130OSM   H18F14068   5.898   6.287   8.363  0.3681 -0.3904  0.8144
  130OSM   H18G14069   5.988   6.441   8.380 -1.3189  0.8391 -3.1526
  130OSM   H18H14070   6.078   6.287   8.405 -0.2660 -0.2198 -0.1009
  131OSM      N14071   4.868   2.588   5.735 -0.1421  0.4763 -0.6070
  131OSM    C1514072   4.990   2.670   5.744 -0.9362 -0.2183 -0.2179
  131OSM   H15A14073   4.972   2.776   5.733  0.9156  0.3577  1.5634
  131OSM   H15B14074   5.060   2.629   5.673  0.1511  0.6683  0.3088
  131OSM   H15C14075   5.035   2.665   5.842 -0.5350  0.8409 -0.3273
  131OSM    C1414076   4.827   2.577   5.599  0.0262  0.4332 -0.4020
  131OSM   H14A14077   4.765   2.490   5.585  0.1693  0.2410  0.1500
  131OSM   H14B14078   4.908   2.550   5.533 -0.5776  1.5916 -1.6821
  131OSM   H14C14079   4.771   2.661   5.560 -0.1074 -0.9169 -3.3805
  131OSM    C1314080   4.893   2.448   5.777  0.1680  0.1019  0.0412
  131OSM   H13A14081   4.933   2.452   5.877 -2.3318 -0.0999  1.1184
  131OSM   H13B14082   4.956   2.385   5.716  0.0176 -0.6704  0.6629
  131OSM   H13C14083   4.798   2.402   5.801  0.1137  0.5357  0.6824
  131OSM    C1214084   4.755   2.640   5.822  0.3180 -0.2507  0.3639
  131OSM   H12A14085   4.662   2.598   5.785  0.3258 -0.7505  0.9081
  131OSM   H12B14086   4.733   2.744   5.803  1.1047  0.1019  1.2876
  131OSM    C1114087   4.763   2.627   5.977 -0.3656 -0.9469  0.5011
  131OSM   H11A14088   4.688   2.682   6.037  0.3770  0.3506  0.2817
  131OSM   H11B14089   4.854   2.674   6.019 -1.4246  0.3050  1.4566
  131OSM      P14090   4.612   2.433   6.006 -0.0839  0.1027  0.0184
  131OSM    O1314091   4.508   2.503   6.081 -0.2316 -0.0639  0.1188
  131OSM    O1414092   4.579   2.405   5.863 -0.7551  0.2981  0.2773
  131OSM    O1114093   4.638   2.293   6.073 -0.3294  0.4269  0.4174
  131OSM    O1214094   4.757   2.496   6.019  0.6448  0.4941 -0.3228
  131OSM    C1S14095   4.694   2.261   6.199 -0.0871  0.3405  0.7314
  131OSM    H1S14096   4.763   2.345   6.222  3.4391 -1.9934 -0.4324
  131OSM    H1T14097   4.761   2.172   6.196 -1.1055 -0.4812  1.6325
  131OSM     NF14098   4.642   2.221   6.439 -0.1263  0.4628  0.0424
  131OSM    HNF14099   4.639   2.133   6.485 -0.3261  0.5085  0.1221
  131OSM    C2S14100   4.591   2.233   6.304 -0.0325 -0.9083  0.2030
  131OSM    H2S14101   4.530   2.325   6.309  0.7628 -0.3885  0.7145
  131OSM    C3S14102   4.510   2.110   6.264 -0.8271 -0.4004  0.4811
  131OSM    H3S14103   4.566   2.015   6.267 -0.5048 -0.2499 -0.4756
  131OSM     O314104   4.469   2.112   6.124 -0.0797  0.7170 -0.3860
  131OSM    HO314105   4.524   2.179   6.083  0.3112  0.3882 -0.4049
  131OSM    C4S14106   4.385   2.094   6.337  0.0525  0.4524 -0.8120
  131OSM    H4S14107   4.302   2.150   6.293 -0.7018 -1.5214 -2.0113
  131OSM    C5S14108   4.364   2.004   6.436 -0.1891 -0.0857 -0.1337
  131OSM    H5S14109   4.445   1.942   6.478 -0.4640 -0.3379  0.0261
  131OSM    C6S14110   4.227   1.985   6.500 -0.7534 -0.0682 -0.3167
  131OSM    H6S14111   4.204   1.877   6.512 -0.3685 -0.0911  0.2862
  131OSM    H6T14112   4.145   2.039   6.448 -2.1140 -0.8153  0.9564
  131OSM    C7S14113   4.205   2.035   6.646  0.8280 -0.4137  0.0412
  131OSM    H7S14114   4.228   2.144   6.645 -2.3495  0.4000 -2.5491
  131OSM    H7T14115   4.275   1.992   6.721  0.3156 -1.1879  0.0807
  131OSM    C8S14116   4.062   2.015   6.685  0.2897  0.0774  0.5457
  131OSM    H8S14117   4.027   1.918   6.643  1.1409 -0.0107  0.0088
  131OSM    H8T14118   3.999   2.089   6.630  0.5747 -1.5694 -2.1957
  131OSM    C9S14119   4.037   2.007   6.839  0.7161 -0.0604  0.2462
  131OSM    H9S14120   4.107   1.930   6.876 -0.2656 -1.6683 -1.0909
  131OSM    H9T14121   3.938   1.963   6.862  0.2610  0.5743 -0.4495
  131OSM   C10S14122   4.052   2.140   6.920 -1.1648  0.5889  0.1957
  131OSM   H10S14123   3.987   2.215   6.870  0.2625  1.5719 -0.2543
  131OSM   H10T14124   4.157   2.173   6.904 -0.4852 -1.9304 -1.1981
  131OSM   C11S14125   4.010   2.119   7.065 -0.3615 -0.1184  0.3128
  131OSM   H11S14126   4.060   2.048   7.135  0.4516 -0.2483 -0.3855
  131OSM   H11T14127   3.901   2.097   7.059 -1.2460  3.9154 -1.2815
  131OSM   C12S14128   4.009   2.249   7.147  0.0074  0.0471 -0.7842
  131OSM   H12S14129   3.952   2.331   7.098  0.0817 -0.0351 -1.0076
  131OSM   H12T14130   4.116   2.277   7.157  0.4225 -1.9690  1.2554
  131OSM   C13S14131   3.953   2.223   7.289 -0.3270  0.6184  0.0180
  131OSM   H13S14132   4.014   2.142   7.335  0.4528  1.9412  1.4121
  131OSM   H13T14133   3.848   2.187   7.282 -0.1160  0.0761 -0.4371
  131OSM   C14S14134   3.975   2.346   7.368 -0.6216  0.7330  0.0931
  131OSM   H14S14135   3.929   2.437   7.324  0.1125  1.3864  0.6462
  131OSM   H14T14136   4.083   2.367   7.355 -0.1499 -0.8900  1.0273
  131OSM   C15S14137   3.941   2.328   7.518 -0.1501  0.7439 -0.0489
  131OSM   H15S14138   4.019   2.260   7.558  0.2754  0.8286 -0.7155
  131OSM   H15T14139   3.845   2.272   7.525  0.5011 -0.4149 -0.1078
  131OSM   C16S14140   3.936   2.460   7.586 -0.3212 -1.0307  0.0402
  131OSM   H16S14141   3.854   2.521   7.543  2.7069  1.6696 -2.4305
  131OSM   H16T14142   4.023   2.525   7.562 -1.3856  0.7134  0.6646
  131OSM   C17S14143   3.931   2.450   7.734 -0.8053  0.4053 -0.0520
  131OSM   H17S14144   3.916   2.556   7.762  0.3104  1.0477 -1.6854
  131OSM   H17T14145   4.031   2.411   7.762 -1.5374 -0.2298  1.8309
  131OSM   C18S14146   3.819   2.370   7.795  1.0894  0.7353  0.4423
  131OSM   H18S14147   3.723   2.385   7.741 -1.2933 -0.5154  4.0074
  131OSM   H18T14148   3.803   2.394   7.902  1.2946  1.6510  0.2846
  131OSM   H18U14149   3.851   2.264   7.794  1.0374  0.7163  0.8134
  131OSM    C1F14150   4.718   2.315   6.501 -0.1412  0.5951 -0.2323
  131OSM     OF14151   4.740   2.425   6.444 -0.1023 -0.1915  0.4444
  131OSM    C2F14152   4.790   2.283   6.627  0.5568  0.2017 -0.1106
  131OSM    H2F14153   4.891   2.239   6.616  0.6899  0.1841  0.9833
  131OSM    H2G14154   4.748   2.202   6.690  4.6296 -0.7286  1.7085
  131OSM    C3F14155   4.799   2.412   6.713  0.1839  0.8196 -0.0880
  131OSM    H3F14156   4.698   2.453   6.734 -1.6017 -2.2865 -1.8348
  131OSM    H3G14157   4.870   2.482   6.664  0.9328 -2.0974 -3.5607
  131OSM    C4F14158   4.860   2.369   6.853  0.3763 -0.0630 -0.3527
  131OSM    H4F14159   4.805   2.278   6.886 -0.1148  0.2373 -0.3246
  131OSM    H4G14160   4.849   2.456   6.920 -0.9506  0.5266 -1.2701
  131OSM    C5F14161   5.013   2.354   6.841  0.0812 -0.2023  0.7001
  131OSM    H5F14162   5.052   2.444   6.789 -0.7675  0.9093  1.9289
  131OSM    H5G14163   5.031   2.268   6.773 -1.7822  0.0141 -0.1543
  131OSM    C6F14164   5.076   2.322   6.970  0.4484  0.2616 -0.2106
  131OSM    H6F14165   5.044   2.220   7.000 -0.3520  0.8335  0.9486
  131OSM    H6G14166   5.041   2.391   7.050 -1.0998 -1.7343  0.9209
  131OSM    C7F14167   5.229   2.323   6.971  0.0128  0.2758  0.4381
  131OSM    H7F14168   5.273   2.412   6.920  1.7290  0.1664  1.6328
  131OSM    H7G14169   5.265   2.238   6.910  1.2402 -0.9565  2.7421
  131OSM    C8F14170   5.288   2.302   7.115  0.3849  0.3090 -0.4211
  131OSM    H8F14171   5.397   2.285   7.105  0.6520  1.1383  0.7768
  131OSM    H8G14172   5.236   2.213   7.155  0.2821  0.4307 -0.2810
  131OSM    C9F14173   5.269   2.426   7.198 -0.6299 -0.0343  1.1910
  131OSM    H9F14174   5.293   2.524   7.154  1.7008 -0.4864  1.3669
  131OSM   C10F14175   5.221   2.435   7.329 -0.4918  0.3048  0.2565
  131OSM   H10F14176   5.221   2.536   7.372 -0.3811  1.0383 -1.4053
  131OSM   C11F14177   5.176   2.319   7.416 -0.4819 -0.3045  0.4228
  131OSM   H11F14178   5.166   2.226   7.356 -0.3658 -1.2253  1.7825
  131OSM   H11G14179   5.078   2.353   7.454 -0.6084 -0.9300  0.6605
  131OSM   C12F14180   5.268   2.300   7.540 -0.1250 -0.1408  0.0886
  131OSM   H12F14181   5.372   2.291   7.502 -0.0585  0.7292  0.0422
  131OSM   H12G14182   5.229   2.207   7.586  0.2518 -0.8143 -0.9242
  131OSM   C13F14183   5.268   2.421   7.640 -0.9132 -0.1456 -0.0451
  131OSM   H13F14184   5.269   2.516   7.582  1.1405  0.2630  0.5795
  131OSM   H13G14185   5.368   2.422   7.687 -0.3963  0.1979 -1.1109
  131OSM   C14F14186   5.146   2.414   7.726 -0.4319  0.8458 -0.8954
  131OSM   H14F14187   5.141   2.321   7.785 -2.4452  1.1961 -0.4338
  131OSM   H14G14188   5.062   2.415   7.653 -0.6382  1.6828 -0.6609
  131OSM   C15F14189   5.137   2.530   7.830 -0.4047  0.0460  0.3783
  131OSM   H15F14190   5.045   2.522   7.891 -0.6424 -0.5571 -0.0547
  131OSM   H15G14191   5.150   2.636   7.798 -0.2456  0.7721  2.6602
  131OSM   C16F14192   5.251   2.510   7.933  0.2144  0.7344 -0.4402
  131OSM   H16F14193   5.343   2.561   7.897  1.0949  0.8616  1.8204
  131OSM   H16G14194   5.277   2.402   7.936  1.5010  1.0398  0.9682
  131OSM   C17F14195   5.231   2.572   8.071  0.0239  0.1898  0.0222
  131OSM   H17F14196   5.227   2.681   8.051 -1.7971  0.0205 -0.6889
  131OSM   H17G14197   5.325   2.553   8.128 -1.4205 -2.5110  1.7244
  131OSM   C18F14198   5.114   2.527   8.159 -0.2066 -0.0988  0.7342
  131OSM   H18F14199   5.020   2.561   8.111  0.5134  0.0969 -0.5988
  131OSM   H18G14200   5.111   2.582   8.256  1.0079  0.5626  0.4288
  131OSM   H18H14201   5.118   2.417   8.171 -1.2742 -0.5367 -2.1664
  132OSM      N14202   4.094   3.836   5.904  0.1151 -0.3448 -0.0164
  132OSM    C1514203   4.084   3.919   5.781 -0.5511 -0.3764 -0.1697
  132OSM   H15A14204   4.028   4.010   5.796 -0.4421  0.1747 -2.6890
  132OSM   H15B14205   4.043   3.862   5.698 -0.0908  1.0431 -1.4050
  132OSM   H15C14206   4.176   3.944   5.732 -1.2273 -2.0351 -2.5097
  132OSM    C1414207   3.949   3.794   5.934  0.2776 -0.3445 -0.7806
  132OSM   H14A14208   3.878   3.873   5.953 -0.1582 -0.6319 -1.1657
  132OSM   H14B14209   3.943   3.730   6.021  1.6888  1.6432  0.8576
  132OSM   H14C14210   3.907   3.735   5.853 -2.9546 -0.3659  0.7668
  132OSM    C1314211   4.162   3.709   5.875  0.7261  0.1873 -0.1289
  132OSM   H13A14212   4.106   3.629   5.921  3.1337 -1.7614 -0.4309
  132OSM   H13B14213   4.255   3.710   5.930  0.2588 -1.4973  0.7546
  132OSM   H13C14214   4.184   3.691   5.771  2.1909 -0.1054  0.2120
  132OSM    C1214215   4.164   3.912   6.021 -0.2216  0.3143  0.1591
  132OSM   H12A14216   4.095   3.988   6.056  2.7818  2.2837  2.4010
  132OSM   H12B14217   4.251   3.969   5.990  0.6760  0.5933  2.8796
  132OSM    C1114218   4.208   3.820   6.132 -0.0927  0.6782  0.5181
  132OSM   H11A14219   4.122   3.752   6.151  0.7303 -0.5451  0.0295
  132OSM   H11B14220   4.209   3.881   6.225  1.8108  0.4179  0.7097
  132OSM      P14221   4.464   3.821   6.141 -0.0259  0.3906 -0.1899
  132OSM    O1314222   4.571   3.724   6.109  0.9819 -0.0442  0.4181
  132OSM    O1414223   4.474   3.952   6.082  0.0113  0.2226  0.4714
  132OSM    O1114224   4.462   3.839   6.300  0.0617  0.2981  0.3588
  132OSM    O1214225   4.331   3.749   6.103  0.2755 -0.1781 -0.1844
  132OSM    C1S14226   4.478   3.729   6.379  0.8361  1.4220  0.2320
  132OSM    H1S14227   4.575   3.675   6.369  0.2122  0.0037  1.3772
  132OSM    H1T14228   4.401   3.651   6.360  1.4974  1.1155 -1.3644
  132OSM     NF14229   4.521   3.662   6.629  0.1531  0.2316  0.7514
  132OSM    HNF14230   4.446   3.599   6.647  0.2019 -0.5409 -1.3781
  132OSM    C2S14231   4.478   3.762   6.535  0.1574 -0.2507  0.0753
  132OSM    H2S14232   4.541   3.853   6.540  1.8344 -1.2400 -1.6310
  132OSM    C3S14233   4.332   3.809   6.574 -0.1607  0.3707  0.3142
  132OSM    H3S14234   4.273   3.715   6.586  0.4308  0.0508  0.8057
  132OSM     O314235   4.262   3.897   6.485  0.0184  0.2821  0.2617
  132OSM    HO314236   4.322   3.892   6.411 -0.2183 -4.4120  0.1116
  132OSM    C4S14237   4.337   3.864   6.714 -0.0651  0.0455 -0.0636
  132OSM    H4S14238   4.374   3.789   6.786  1.1401  2.3617  1.8454
  132OSM    C5S14239   4.320   3.990   6.758  0.2530  0.2460 -0.0328
  132OSM    H5S14240   4.313   4.081   6.697  1.0026 -0.1279 -0.6876
  132OSM    C6S14241   4.328   4.034   6.907 -0.1705  0.2156 -0.7171
  132OSM    H6S14242   4.236   4.090   6.935  1.5497  2.8373  0.1069
  132OSM    H6T14243   4.408   4.109   6.925 -0.9974  0.4117  2.9613
  132OSM    C7S14244   4.347   3.923   7.015  0.5389 -0.7640  0.9622
  132OSM    H7S14245   4.435   3.864   6.978  1.1425  0.8091 -0.2257
  132OSM    H7T14246   4.261   3.853   7.011  0.7995 -1.2157  2.5070
  132OSM    C8S14247   4.363   3.973   7.159  0.5249 -0.2829 -0.2868
  132OSM    H8S14248   4.444   4.043   7.188  0.9627 -0.0705 -1.9647
  132OSM    H8T14249   4.380   3.886   7.226 -0.5216 -0.4888 -0.2607
  132OSM    C9S14250   4.234   4.024   7.225  0.0450 -0.3244 -0.4127
  132OSM    H9S14251   4.140   3.972   7.198 -0.7278  0.6032  0.4245
  132OSM    H9T14252   4.221   4.124   7.177 -1.0133 -0.9474 -1.4761
  132OSM   C10S14253   4.231   4.023   7.381  0.5902  0.3729 -0.0134
  132OSM   H10S14254   4.237   3.918   7.415  1.6147  0.3333 -0.2883
  132OSM   H10T14255   4.131   4.060   7.413 -0.5256 -0.0317 -2.7537
  132OSM   C11S14256   4.335   4.110   7.450  0.2644  0.4377  0.3511
  132OSM   H11S14257   4.331   4.212   7.407 -1.2839 -0.3198 -1.4691
  132OSM   H11T14258   4.439   4.072   7.447  0.5224  1.0967  0.7641
  132OSM   C12S14259   4.299   4.119   7.597 -0.8091  0.2495 -0.4374
  132OSM   H12S14260   4.324   4.022   7.644  0.8393  2.3287  3.4525
  132OSM   H12T14261   4.193   4.146   7.620 -0.2528  2.6258 -0.3820
  132OSM   C13S14262   4.370   4.226   7.683 -0.2616  0.1710  0.5153
  132OSM   H13S14263   4.336   4.323   7.640 -1.7650  0.2408  1.7642
  132OSM   H13T14264   4.481   4.226   7.678 -0.3172  0.0616 -1.7227
  132OSM   C14S14265   4.334   4.220   7.836  0.1096 -0.2378 -0.1242
  132OSM   H14S14266   4.335   4.114   7.868 -0.4688  0.0636  0.9185
  132OSM   H14T14267   4.226   4.243   7.843 -0.6335 -3.3975  0.3051
  132OSM   C15S14268   4.408   4.322   7.932 -0.0563 -0.2231  0.6226
  132OSM   H15S14269   4.395   4.428   7.902  0.0085  0.0684  1.6022
  132OSM   H15T14270   4.515   4.297   7.948  0.1453  1.1823  1.5522
  132OSM   C16S14271   4.338   4.305   8.072 -0.0805 -0.4622 -0.0845
  132OSM   H16S14272   4.233   4.271   8.060  0.1001 -0.8482 -0.5996
  132OSM   H16T14273   4.331   4.395   8.137 -2.2744 -1.4740  1.1980
  132OSM   C17S14274   4.403   4.199   8.165  0.0276  0.0490  0.1048
  132OSM   H17S14275   4.508   4.233   8.179 -0.3755  0.3400  2.9575
  132OSM   H17T14276   4.399   4.098   8.119  0.4716  0.1860 -0.2428
  132OSM   C18S14277   4.331   4.189   8.299 -0.3210  0.4659  0.2022
  132OSM   H18S14278   4.370   4.117   8.374  0.2454 -0.5784 -1.0536
  132OSM   H18T14279   4.224   4.165   8.283 -0.2128  0.3672 -0.4243
  132OSM   H18U14280   4.335   4.291   8.342 -2.4257  0.3405  0.7852
  132OSM    C1F14281   4.652   3.628   6.631  1.1032  0.0644 -0.8659
  132OSM     OF14282   4.731   3.699   6.574 -0.7509 -0.5828 -0.1260
  132OSM    C2F14283   4.685   3.499   6.697 -0.9439 -0.3912 -0.1159
  132OSM    H2F14284   4.784   3.479   6.650 -0.5124  1.8824 -0.2877
  132OSM    H2G14285   4.610   3.420   6.675 -0.4636 -0.4910 -1.4824
  132OSM    C3F14286   4.708   3.506   6.852 -0.2205 -0.0631 -0.6078
  132OSM    H3F14287   4.766   3.421   6.893 -0.6909  0.2883  0.8200
  132OSM    H3G14288   4.610   3.505   6.903  0.4482  1.1630  0.7760
  132OSM    C4F14289   4.781   3.628   6.904  0.0878  0.0606 -0.1320
  132OSM    H4F14290   4.765   3.638   7.014  0.4784 -0.3741 -0.0317
  132OSM    H4G14291   4.733   3.724   6.875 -2.2963 -0.7329  0.9232
  132OSM    C5F14292   4.928   3.638   6.875 -0.2740 -0.0455 -0.0894
  132OSM    H5F14293   4.965   3.608   6.775 -0.6665  0.9520 -0.5498
  132OSM    H5G14294   4.976   3.564   6.942  0.9851  0.0697 -0.8370
  132OSM    C6F14295   4.989   3.772   6.916 -0.1585 -0.3281  0.1048
  132OSM    H6F14296   4.968   3.793   7.023 -0.4829 -0.7830  0.1356
  132OSM    H6G14297   4.943   3.858   6.863 -2.1939 -0.6953  1.1797
  132OSM    C7F14298   5.144   3.763   6.916  0.1317  0.4017  0.7067
  132OSM    H7F14299   5.166   3.692   6.833 -2.4077  1.5862 -1.1115
  132OSM    H7G14300   5.160   3.726   7.020 -1.7772 -1.1878  0.4934
  132OSM    C8F14301   5.206   3.900   6.897 -0.6774 -0.1668 -0.0346
  132OSM    H8F14302   5.185   3.955   6.991 -0.9746 -0.4347  0.0573
  132OSM    H8G14303   5.150   3.954   6.818  1.0154  0.6798 -0.7025
  132OSM    C9F14304   5.346   3.896   6.859 -0.8277 -0.5158 -0.6033
  132OSM    H9F14305   5.363   3.819   6.783  0.2365 -0.9725  0.0699
  132OSM   C10F14306   5.453   3.957   6.919 -0.2239 -0.1731  0.3258
  132OSM   H10F14307   5.553   3.938   6.878 -0.0695 -1.3613  1.1995
  132OSM   C11F14308   5.444   4.052   7.038 -0.1447 -0.1979  0.6682
  132OSM   H11F14309   5.463   4.001   7.135  0.0087 -0.9625  0.2459
  132OSM   H11G14310   5.344   4.100   7.040 -0.4367 -0.5899 -1.6889
  132OSM   C12F14311   5.555   4.160   7.031 -0.2584 -0.4118 -0.1670
  132OSM   H12F14312   5.564   4.187   6.923  3.1675 -0.8719 -0.0951
  132OSM   H12G14313   5.653   4.109   7.035  1.1562  2.2003  1.2016
  132OSM   C13F14314   5.564   4.284   7.128 -0.0750  1.2188  0.1486
  132OSM   H13F14315   5.458   4.316   7.134 -0.8206 -0.8288 -1.0307
  132OSM   H13G14316   5.626   4.365   7.085  1.5087 -0.3727 -0.7191
  132OSM   C14F14317   5.616   4.237   7.261 -0.2588  0.1912  0.0355
  132OSM   H14F14318   5.696   4.306   7.294  0.3532 -0.0890 -0.8587
  132OSM   H14G14319   5.658   4.135   7.257  0.0408  0.3298 -0.4045
  132OSM   C15F14320   5.498   4.242   7.364  0.3395 -0.3565  0.4861
  132OSM   H15F14321   5.418   4.172   7.330 -0.2795  0.6611 -0.1816
  132OSM   H15G14322   5.450   4.342   7.359 -1.1702 -1.0804 -0.2841
  132OSM   C16F14323   5.540   4.191   7.503 -0.3038 -0.7074 -0.3958
  132OSM   H16F14324   5.635   4.247   7.520  0.6106 -2.1135 -0.6789
  132OSM   H16G14325   5.576   4.086   7.495 -0.8209 -0.8911 -0.3590
  132OSM   C17F14326   5.441   4.243   7.613  0.4995 -0.8565  0.5247
  132OSM   H17F14327   5.461   4.350   7.633  2.2510 -1.4329  2.1631
  132OSM   H17G14328   5.460   4.218   7.719  1.0200  2.2333  1.2607
  132OSM   C18F14329   5.291   4.225   7.600  0.1389 -0.5945  0.0219
  132OSM   H18F14330   5.257   4.270   7.504 -1.6847 -1.5121  0.1820
  132OSM   H18G14331   5.236   4.286   7.675  0.0642 -0.3057 -0.2651
  132OSM   H18H14332   5.264   4.117   7.607  0.0999 -0.5777  0.1385
  133OSM      N14333   5.059   3.437   5.846 -0.4530 -0.0173  0.2768
  133OSM    C1514334   5.184   3.459   5.765  0.0763 -0.7239  0.3878
  133OSM   H15A14335   5.203   3.564   5.747  1.2409 -0.7434  1.4039
  133OSM   H15B14336   5.183   3.407   5.670  1.8790  0.7575 -0.5066
  133OSM   H15C14337   5.262   3.418   5.827 -0.2376  0.4431  1.5917
  133OSM    C1414338   5.064   3.559   5.941  0.1126  0.4884  0.4798
  133OSM   H14A14339   5.156   3.552   5.998 -0.0707 -1.3375  0.6176
  133OSM   H14B14340   4.977   3.555   6.005 -0.8529 -0.3452 -0.8435
  133OSM   H14C14341   5.055   3.653   5.889 -1.0392 -0.7552 -1.6972
  133OSM    C1314342   4.936   3.443   5.760 -0.1087  0.3318 -0.0266
  133OSM   H13A14343   4.943   3.539   5.709  1.0853  0.6925  0.7659
  133OSM   H13B14344   4.843   3.423   5.811 -1.7259 -2.1355 -3.5498
  133OSM   H13C14345   4.933   3.371   5.680  0.6013  0.6518 -0.3526
  133OSM    C1214346   5.058   3.299   5.911 -0.6282  0.6514 -0.3618
  133OSM   H12A14347   5.085   3.225   5.837 -1.0857  0.9828 -0.8637
  133OSM   H12B14348   4.958   3.285   5.950 -0.2480 -0.0484  0.3983
  133OSM    C1114349   5.153   3.285   6.037  0.4720  0.6154 -0.1976
  133OSM   H11A14350   5.147   3.186   6.088  0.9147  0.8152  0.2556
  133OSM   H11B14351   5.106   3.348   6.116  0.1746  0.1215  0.0216
  133OSM      P14352   5.386   3.381   6.105 -0.1441  0.1425  0.1360
  133OSM    O1314353   5.528   3.334   6.098  0.5848 -0.4106  0.5802
  133OSM    O1414354   5.361   3.527   6.081 -0.4149  0.6362  0.0588
  133OSM    O1114355   5.329   3.345   6.244 -0.0565  0.1230  0.0082
  133OSM    O1214356   5.289   3.310   5.999  0.5833  0.5016 -0.1120
  133OSM    C1S14357   5.366   3.227   6.318  0.4297 -0.0190  0.5656
  133OSM    H1S14358   5.477   3.215   6.324  0.3500 -0.5517  1.0243
  133OSM    H1T14359   5.330   3.132   6.274  1.1550 -2.5459  4.8803
  133OSM     NF14360   5.384   3.142   6.556 -0.4214 -0.5510  0.3628
  133OSM    HNF14361   5.345   3.050   6.564 -3.0818  0.5279  0.9024
  133OSM    C2S14362   5.310   3.237   6.470 -0.9349 -0.2424  0.3642
  133OSM    H2S14363   5.323   3.340   6.509 -0.7862 -0.6300  1.3736
  133OSM    C3S14364   5.166   3.196   6.459 -0.3470  0.3591  0.0840
  133OSM    H3S14365   5.177   3.097   6.410 -0.0204  1.8460 -3.0630
  133OSM     O314366   5.089   3.266   6.361 -0.3773 -0.1319 -0.6912
  133OSM    HO314367   5.158   3.314   6.315  1.3545  0.6437  2.4308
  133OSM    C4S14368   5.102   3.180   6.589 -0.1961 -0.4100 -0.0235
  133OSM    H4S14369   5.084   3.076   6.620  1.6320 -0.7680 -0.0116
  133OSM    C5S14370   5.059   3.293   6.661  0.2201 -0.2809 -0.3923
  133OSM    H5S14371   5.081   3.396   6.630  0.3979 -0.3087 -0.3645
  133OSM    C6S14372   4.984   3.283   6.786 -0.5410 -0.0986  0.1770
  133OSM    H6S14373   4.874   3.282   6.769 -1.0200 -2.3517  2.6792
  133OSM    H6T14374   5.007   3.362   6.861  0.3171  0.6730 -0.8778
  133OSM    C7S14375   5.014   3.158   6.867 -0.1219  0.9315  0.4632
  133OSM    H7S14376   5.116   3.128   6.897 -1.0326 -3.1180  0.0754
  133OSM    H7T14377   4.970   3.072   6.812  1.6943 -0.9920  1.8677
  133OSM    C8S14378   4.930   3.177   6.994 -0.2076  0.3416 -0.6186
  133OSM    H8S14379   4.917   3.082   7.050  1.3754  0.9652  0.9167
  133OSM    H8T14380   4.827   3.210   6.969 -0.3214  1.3867  1.0439
  133OSM    C9S14381   5.004   3.268   7.105 -0.2291  0.1216 -0.2730
  133OSM    H9S14382   5.032   3.366   7.062  0.8602  0.5719  1.3847
  133OSM    H9T14383   5.097   3.212   7.129 -1.9347 -2.3706  1.0224
  133OSM   C10S14384   4.919   3.294   7.232 -0.6510 -0.3009 -0.1131
  133OSM   H10S14385   4.902   3.198   7.285 -0.8247  0.4745  1.3054
  133OSM   H10T14386   4.821   3.338   7.201 -1.3756 -2.9860 -1.9692
  133OSM   C11S14387   4.990   3.396   7.326  0.5287 -0.5715  0.1241
  133OSM   H11S14388   4.993   3.497   7.281 -0.0714 -0.0658  1.2017
  133OSM   H11T14389   5.093   3.359   7.344  0.7907  0.1525  0.1465
  133OSM   C12S14390   4.912   3.412   7.453 -0.4679  0.4149 -0.0556
  133OSM   H12S14391   4.869   3.317   7.490  0.9945 -1.9243 -3.7113
  133OSM   H12T14392   4.832   3.488   7.442  1.1923  2.4324  1.1520
  133OSM   C13S14393   5.009   3.452   7.571  0.6158 -0.1004  0.1246
  133OSM   H13S14394   5.038   3.557   7.551  1.1971 -0.1850  0.5024
  133OSM   H13T14395   5.108   3.402   7.566  0.2856 -0.6653 -1.7925
  133OSM   C14S14396   4.937   3.436   7.698 -0.1331  0.0398 -0.5527
  133OSM   H14S14397   4.917   3.327   7.706  2.7394 -0.6125 -1.1842
  133OSM   H14T14398   4.838   3.485   7.682 -1.8967 -2.9501  0.1964
  133OSM   C15S14399   5.027   3.493   7.815 -0.0288  0.3798 -0.2430
  133OSM   H15S14400   5.119   3.432   7.820 -1.1809 -1.5629 -1.5293
  133OSM   H15T14401   4.957   3.483   7.901 -1.9951  1.0467 -1.6931
  133OSM   C16S14402   5.068   3.643   7.792  0.6232 -0.3798 -0.5631
  133OSM   H16S14403   4.974   3.701   7.780  0.6428 -0.1923  0.1641
  133OSM   H16T14404   5.128   3.656   7.700  2.5844  1.2989  0.8460
  133OSM   C17S14405   5.144   3.712   7.900 -0.0782 -0.2410  0.1905
  133OSM   H17S14406   5.241   3.661   7.919  0.2730  0.3306 -0.0541
  133OSM   H17T14407   5.080   3.697   7.989  0.3877 -3.6822  0.0744
  133OSM   C18S14408   5.166   3.859   7.862 -0.9251 -0.2028 -0.5679
  133OSM   H18S14409   5.070   3.910   7.838 -0.6210  0.5414 -0.2567
  133OSM   H18T14410   5.244   3.875   7.784  0.8431  0.6395  1.2670
  133OSM   H18U14411   5.201   3.904   7.958 -1.1977  1.1178 -1.0731
  133OSM    C1F14412   5.499   3.172   6.623  0.1962 -0.3201  0.0119
  133OSM     OF14413   5.543   3.283   6.616  0.3425 -0.3212 -0.4231
  133OSM    C2F14414   5.571   3.058   6.699  0.0949 -0.4573  1.2842
  133OSM    H2F14415   5.639   3.009   6.626  1.5445 -0.6358  2.7119
  133OSM    H2G14416   5.497   2.977   6.718 -2.8807  2.2419  2.0831
  133OSM    C3F14417   5.654   3.086   6.827 -0.2447  0.5395 -0.0287
  133OSM    H3F14418   5.582   3.093   6.912 -0.4747 -0.6601 -0.1062
  133OSM    H3G14419   5.712   3.180   6.817  1.5496 -0.5019  0.1349
  133OSM    C4F14420   5.756   2.974   6.863  0.0230  0.2923  0.7234
  133OSM    H4F14421   5.832   2.970   6.781 -1.4449 -1.6271 -0.6191
  133OSM    H4G14422   5.702   2.878   6.854 -1.7755  1.2511  0.9190
  133OSM    C5F14423   5.834   3.002   6.985  0.2900  0.0238 -0.3989
  133OSM    H5F14424   5.753   2.996   7.061 -0.9156  1.0331 -1.5547
  133OSM    H5G14425   5.868   3.108   6.985  0.2837  0.0279 -0.1648
  133OSM    C6F14426   5.938   2.893   7.005 -0.5911 -0.5549  0.4386
  133OSM    H6F14427   5.991   2.882   6.908  0.3588 -0.8078  0.9732
  133OSM    H6G14428   5.880   2.805   7.040 -2.3721 -1.1404 -3.4708
  133OSM    C7F14429   6.039   2.921   7.111  0.2246  0.4411  0.0440
  133OSM    H7F14430   5.981   2.917   7.206  1.6135 -0.5253  0.8917
  133OSM    H7G14431   6.087   3.019   7.088  2.6846 -0.4692  0.9247
  133OSM    C8F14432   6.148   2.814   7.125  0.4705  0.4874 -0.4739
  133OSM    H8F14433   6.190   2.796   7.024  1.0455 -0.8719 -0.0053
  133OSM    H8G14434   6.103   2.717   7.153  1.1897  0.0159 -0.9191
  133OSM    C9F14435   6.260   2.854   7.217  0.3323  0.0885 -0.6062
  133OSM    H9F14436   6.308   2.945   7.178  0.3665  0.0958 -0.5464
  133OSM   C10F14437   6.290   2.795   7.335 -0.1339 -0.3187 -0.2095
  133OSM   H10F14438   6.361   2.843   7.404 -0.7478  0.7272 -0.3004
  133OSM   C11F14439   6.222   2.672   7.393  0.4263 -0.4936  0.1164
  133OSM   H11F14440   6.294   2.604   7.442 -0.5339 -2.6570 -1.3013
  133OSM   H11G14441   6.160   2.613   7.322  1.1157  0.7643 -1.6028
  133OSM   C12F14442   6.113   2.705   7.491  0.5230 -0.4718 -0.1062
  133OSM   H12F14443   6.039   2.769   7.438  1.5809  0.1993 -0.8166
  133OSM   H12G14444   6.154   2.757   7.580  0.3472 -0.5085 -0.0029
  133OSM   C13F14445   6.026   2.588   7.538  0.2089  0.0411 -0.3824
  133OSM   H13F14446   6.097   2.505   7.521  2.9465  1.6031  2.3952
  133OSM   H13G14447   5.941   2.588   7.466  0.1617  1.9353 -0.3874
  133OSM   C14F14448   5.964   2.592   7.680 -1.2867  0.7326  0.2636
  133OSM   H14F14449   5.875   2.526   7.681 -0.7989 -0.0191 -1.4959
  133OSM   H14G14450   5.941   2.699   7.702  0.6252  0.6787  2.9789
  133OSM   C15F14451   6.058   2.529   7.786  0.3099  0.2284  1.1584
  133OSM   H15F14452   6.135   2.608   7.802  0.9328 -0.0103 -0.5383
  133OSM   H15G14453   6.106   2.436   7.748 -2.0556 -0.8390  0.6106
  133OSM   C16F14454   5.974   2.502   7.914 -0.1921 -0.8232  0.2983
  133OSM   H16F14455   5.882   2.445   7.890 -0.9386  0.8381 -1.0729
  133OSM   H16G14456   5.948   2.598   7.964 -0.7706 -0.4956 -0.6081
  133OSM   C17F14457   6.067   2.418   7.999  0.2969 -0.4279 -0.2473
  133OSM   H17F14458   6.159   2.477   8.018  0.4041 -0.4859 -0.5751
  133OSM   H17G14459   6.096   2.318   7.960 -3.1535 -0.8884 -1.9662
  133OSM   C18F14460   6.017   2.374   8.137 -0.0013  0.5389 -0.4775
  133OSM   H18F14461   5.996   2.466   8.196 -0.1800  0.3406 -0.2307
  133OSM   H18G14462   6.096   2.316   8.190  0.3380  1.3011 -0.1178
  133OSM   H18H14463   5.926   2.311   8.139  1.0944 -1.1029  0.0755
  134OSM      N14464   6.398   0.039   6.170 -0.1563 -0.3286 -0.3150
  134OSM    C1514465   6.360  -0.037   6.048  1.1785  0.0479  0.0543
  134OSM   H15A14466   6.252  -0.041   6.041  1.0729  0.9065  0.9011
  134OSM   H15B14467   6.400  -0.138   6.046 -0.5717 -0.6905 -1.9218
  134OSM   H15C14468   6.400   0.015   5.962  0.5989 -2.3173 -1.7461
  134OSM    C1414469   6.554   0.033   6.192  0.0485 -0.0934 -0.8593
  134OSM   H14A14470   6.568   0.068   6.293 -0.6114 -1.1355 -0.3830
  134OSM   H14B14471   6.615   0.091   6.125  2.5321 -0.0035  1.3290
  134OSM   H14C14472   6.596  -0.067   6.194 -0.2938 -0.2343 -0.3766
  134OSM    C1314473   6.358   0.175   6.165  0.1161 -0.1800 -0.3041
  134OSM   H13A14474   6.257   0.191   6.131 -0.0269  0.1029  0.2428
  134OSM   H13B14475   6.416   0.227   6.090 -1.0703  0.4171 -0.8285
  134OSM   H13C14476   6.363   0.223   6.262  2.1143 -0.3897 -0.2640
  134OSM    C1214477   6.332  -0.022   6.295  0.0993  0.0571 -0.0581
  134OSM   H12A14478   6.225  -0.022   6.282 -0.0371 -1.6793  0.7050
  134OSM   H12B14479   6.367   0.022   6.387  0.2068 -2.1049  0.9981
  134OSM    C1114480   6.376  -0.166   6.311  0.0998  0.3292 -0.1965
  134OSM   H11A14481   6.364  -0.230   6.221  0.8973 -0.2424  0.0919
  134OSM   H11B14482   6.305  -0.205   6.386  1.0247  0.4194  0.7548
  134OSM      P14483   6.554  -0.184   6.508  0.7682  0.5662  0.3177
  134OSM    O1314484   6.697  -0.226   6.501 -0.2372 -0.6109 -0.1647
  134OSM    O1414485   6.521  -0.059   6.582  0.4643 -0.3518 -0.3040
  134OSM    O1114486   6.468  -0.300   6.573  0.3579 -0.3993 -0.6172
  134OSM    O1214487   6.504  -0.184   6.361 -0.5708  0.5607 -0.0884
  134OSM    C1S14488   6.506  -0.394   6.666 -0.1605  0.5307 -0.7659
  134OSM    H1S14489   6.538  -0.340   6.758  1.9538  0.5135 -1.4596
  134OSM    H1T14490   6.602  -0.436   6.631  0.2601  0.2517  0.6510
  134OSM     NF14491   6.417  -0.582   6.807 -0.0736 -0.2726 -0.7180
  134OSM    HNF14492   6.458  -0.670   6.781  1.2941 -0.1664  0.9410
  134OSM    C2S14493   6.392  -0.490   6.689 -0.2449  0.4106 -0.4079
  134OSM    H2S14494   6.301  -0.432   6.718 -0.2416 -0.1345  0.7501
  134OSM    C3S14495   6.368  -0.570   6.553 -0.1661  0.1869 -0.6222
  134OSM    H3S14496   6.463  -0.619   6.524 -0.6152  0.3616 -2.4873
  134OSM     O314497   6.323  -0.484   6.443  0.2737  0.3649 -0.1712
  134OSM    HO314498   6.341  -0.397   6.481 -0.7532  0.7266 -0.4864
  134OSM    C4S14499   6.263  -0.680   6.575 -0.1488 -0.1206 -0.4088
  134OSM    H4S14500   6.158  -0.649   6.591 -0.3798  0.0208 -2.0167
  134OSM    C5S14501   6.287  -0.814   6.574 -0.6594 -0.1509  0.4757
  134OSM    H5S14502   6.391  -0.845   6.556 -0.2257  1.8274 -0.7539
  134OSM    C6S14503   6.182  -0.916   6.597  0.2033 -0.2442  0.2345
  134OSM    H6S14504   6.218  -1.019   6.577 -0.0111 -0.2893  0.0868
  134OSM    H6T14505   6.102  -0.892   6.524 -0.3898  0.0026  0.9574
  134OSM    C7S14506   6.148  -0.913   6.752 -0.2968  0.3576  0.3708
  134OSM    H7S14507   6.044  -0.949   6.766 -0.1850 -0.1958 -0.2163
  134OSM    H7T14508   6.149  -0.805   6.778  1.3935  0.3972  0.2461
  134OSM    C8S14509   6.250  -0.984   6.848  0.2074 -0.2027  0.7208
  134OSM    H8S14510   6.241  -0.938   6.949 -0.2141 -3.3228  2.2248
  134OSM    H8T14511   6.356  -0.968   6.819  0.0911 -0.5974  0.0431
  134OSM    C9S14512   6.214  -1.134   6.868 -0.1206  0.3771  0.4361
  134OSM    H9S14513   6.249  -1.198   6.784 -1.3706 -0.9081  0.8587
  134OSM    H9T14514   6.104  -1.151   6.865  0.2059 -2.2408  1.4738
  134OSM   C10S14515   6.273  -1.193   6.998  0.8761  0.2663 -0.0748
  134OSM   H10S14516   6.380  -1.165   7.000  0.3395  2.7493 -1.5647
  134OSM   H10T14517   6.258  -1.303   6.998 -0.0993  0.3799  0.9261
  134OSM   C11S14518   6.209  -1.144   7.131  0.0768 -0.4865 -0.2844
  134OSM   H11S14519   6.100  -1.150   7.150  0.7012 -2.2197  4.1292
  134OSM   H11T14520   6.232  -1.036   7.141  1.9817 -0.8878  0.0749
  134OSM   C12S14521   6.281  -1.211   7.254  0.6908  0.2184  0.3447
  134OSM   H12S14522   6.390  -1.194   7.244  1.4103 -3.5812  0.3561
  134OSM   H12T14523   6.253  -1.318   7.252  0.9836  0.1279  0.7969
  134OSM   C13S14524   6.230  -1.165   7.395 -0.1599  0.1996  0.2457
  134OSM   H13S14525   6.120  -1.177   7.392 -0.1470 -0.5842  1.7705
  134OSM   H13T14526   6.243  -1.056   7.410  0.8140  0.2690 -0.9732
  134OSM   C14S14527   6.277  -1.260   7.507  0.2673  0.0987 -0.0107
  134OSM   H14S14528   6.386  -1.265   7.528  0.3008  2.4543  0.7272
  134OSM   H14T14529   6.250  -1.363   7.478  0.9924  0.2526 -1.3164
  134OSM   C15S14530   6.194  -1.232   7.639  0.2470  0.5674 -0.8423
  134OSM   H15S14531   6.088  -1.222   7.607  0.0751  0.2034 -0.3942
  134OSM   H15T14532   6.224  -1.138   7.690  0.0011  0.5214 -0.6099
  134OSM   C16S14533   6.203  -1.347   7.741  0.5112 -0.6180 -0.0787
  134OSM   H16S14534   6.308  -1.385   7.743  1.3357  1.4413 -1.2400
  134OSM   H16T14535   6.132  -1.426   7.708 -0.7360 -0.6197  2.3264
  134OSM   C17S14536   6.159  -1.304   7.883 -0.0827 -0.9912  0.4622
  134OSM   H17S14537   6.230  -1.224   7.911  0.0357 -0.7463 -0.5124
  134OSM   H17T14538   6.160  -1.388   7.956  2.2501 -0.5267  1.0364
  134OSM   C18S14539   6.017  -1.261   7.888  0.3739  0.2578  0.3553
  134OSM   H18S14540   5.955  -1.341   7.842 -1.1946  2.7364 -2.0928
  134OSM   H18T14541   6.004  -1.165   7.835  1.3668  0.8382  1.1335
  134OSM   H18U14542   5.989  -1.242   7.994 -0.9123 -0.5242  0.1792
  134OSM    C1F14543   6.421  -0.543   6.932  0.0856 -0.7094 -0.1734
  134OSM     OF14544   6.377  -0.435   6.968 -0.2638  0.7039 -0.1400
  134OSM    C2F14545   6.467  -0.646   7.022 -0.4040  0.1417  0.0839
  134OSM    H2F14546   6.522  -0.733   6.982 -2.1254 -0.7987 -0.3459
  134OSM    H2G14547   6.374  -0.691   7.062  0.0473 -2.1948 -1.3214
  134OSM    C3F14548   6.551  -0.579   7.139  0.5657  0.2682  0.6804
  134OSM    H3F14549   6.486  -0.498   7.180  0.4832 -0.1069  1.3093
  134OSM    H3G14550   6.640  -0.526   7.098  2.9097 -3.6299  0.2468
  134OSM    C4F14551   6.594  -0.679   7.245  0.2361  0.2084  0.1296
  134OSM    H4F14552   6.643  -0.619   7.325 -0.5381 -0.2076  0.9420
  134OSM    H4G14553   6.663  -0.756   7.205 -0.7391 -0.2384 -0.7211
  134OSM    C5F14554   6.471  -0.742   7.313 -0.0305  0.0952 -0.1441
  134OSM    H5F14555   6.384  -0.773   7.252 -1.2371  0.4327  1.3449
  134OSM    H5G14556   6.434  -0.664   7.384  0.7678  1.6173 -1.3368
  134OSM    C6F14557   6.503  -0.871   7.401  0.1232  0.4890  0.3384
  134OSM    H6F14558   6.536  -0.953   7.334  0.8954  1.4295 -0.4524
  134OSM    H6G14559   6.411  -0.910   7.450 -0.5458  2.4667  0.7608
  134OSM    C7F14560   6.629  -0.865   7.486  0.4177 -0.0569 -0.6417
  134OSM    H7F14561   6.611  -0.773   7.546 -2.0611  0.3256 -1.8278
  134OSM    H7G14562   6.724  -0.853   7.431  0.4980  1.3129 -0.2278
  134OSM    C8F14563   6.627  -0.992   7.575 -0.6452  0.3424  0.0542
  134OSM    H8F14564   6.619  -1.078   7.505  1.0771  0.3618 -0.2294
  134OSM    H8G14565   6.536  -0.980   7.638  0.0028 -0.1291  1.1051
  134OSM    C9F14566   6.754  -1.018   7.657  0.5416  0.1297  0.2457
  134OSM    H9F14567   6.833  -1.073   7.603  1.0084 -0.6271  1.6342
  134OSM   C10F14568   6.782  -0.990   7.784 -0.1521 -0.2764  0.3504
  134OSM   H10F14569   6.876  -1.031   7.825  0.3982  0.6515  0.0536
  134OSM   C11F14570   6.701  -0.925   7.887 -0.1225 -0.3043  0.6004
  134OSM   H11F14571   6.633  -0.992   7.945 -1.2261  0.7593  0.5613
  134OSM   H11G14572   6.621  -0.857   7.851 -0.8340 -1.5180 -0.1802
  134OSM   C12F14573   6.787  -0.857   7.991  0.2331 -0.0797  0.1307
  134OSM   H12F14574   6.720  -0.810   8.066  0.4496 -0.5895  0.6581
  134OSM   H12G14575   6.861  -0.781   7.959  0.6977  0.9083  3.1639
  134OSM   C13F14576   6.876  -0.956   8.064  0.0117  0.2068  0.1159
  134OSM   H13F14577   6.964  -0.981   8.002 -0.5892  0.4339 -0.8445
  134OSM   H13G14578   6.814  -1.046   8.084 -1.1635  0.5488 -1.7656
  134OSM   C14F14579   6.941  -0.915   8.192  0.3712  0.3584  0.1017
  134OSM   H14F14580   6.999  -0.824   8.166  1.9837 -0.4642  0.6570
  134OSM   H14G14581   7.006  -0.999   8.224  0.0728  0.5265  1.2168
  134OSM   C15F14582   6.834  -0.891   8.294 -0.0167  0.5810  0.4597
  134OSM   H15F14583   6.770  -0.980   8.311 -0.2004  0.1942 -1.8327
  134OSM   H15G14584   6.766  -0.808   8.262  0.9650  0.6834 -1.5003
  134OSM   C16F14585   6.900  -0.835   8.424  0.1924 -0.9619  0.3691
  134OSM   H16F14586   6.827  -0.779   8.485  0.2831  0.0492 -0.4386
  134OSM   H16G14587   6.979  -0.761   8.400 -1.2207  0.2507 -0.7220
  134OSM   C17F14588   6.938  -0.944   8.519 -0.8052  0.2572 -0.2461
  134OSM   H17F14589   7.010  -1.004   8.459 -1.7497  0.5505 -1.7269
  134OSM   H17G14590   6.859  -1.015   8.553 -1.7477  2.2317  1.9803
  134OSM   C18F14591   7.021  -0.886   8.631 -0.2560  0.5056 -0.6874
  134OSM   H18F14592   6.969  -0.815   8.699  0.3810 -0.1523  0.5313
  134OSM   H18G14593   7.105  -0.831   8.583  0.2584  0.6218  0.3185
  134OSM   H18H14594   7.032  -0.966   8.707 -0.7147 -3.0181 -4.0542
  135OSM      N14595   5.914   6.413   6.213 -0.6332 -0.0119 -0.2446
  135OSM    C1514596   5.998   6.535   6.158 -0.0008 -0.7088  0.7093
  135OSM   H15A14597   6.104   6.512   6.154  0.0167 -0.5032 -2.4471
  135OSM   H15B14598   5.976   6.615   6.227 -3.3199 -1.4340  0.6417
  135OSM   H15C14599   5.957   6.564   6.062 -1.3123  1.4752  1.8608
  135OSM    C1414600   5.776   6.463   6.226 -0.2381 -0.3437 -0.2275
  135OSM   H14A14601   5.774   6.545   6.296  1.6873  0.0693 -0.6123
  135OSM   H14B14602   5.711   6.388   6.268  1.0697 -0.8852  0.8807
  135OSM   H14C14603   5.739   6.492   6.128 -1.1465  1.7836  0.6970
  135OSM    C1314604   5.926   6.300   6.114  0.1066 -1.0960  0.3762
  135OSM   H13A14605   5.887   6.309   6.013 -2.4321 -2.9656  1.0791
  135OSM   H13B14606   5.880   6.212   6.156 -1.5827 -0.2375  0.4250
  135OSM   H13C14607   6.032   6.280   6.106  0.3972 -0.0342  1.2908
  135OSM    C1214608   5.977   6.373   6.348 -0.3805 -0.6931  0.1520
  135OSM   H12A14609   6.083   6.357   6.339 -0.1087  0.5237  0.8862
  135OSM   H12B14610   5.919   6.290   6.386 -0.1966 -0.1392  1.7187
  135OSM    C1114611   5.974   6.486   6.452 -0.5500 -0.1846  0.1817
  135OSM   H11A14612   6.028   6.443   6.539  1.0312  1.7311  0.2027
  135OSM   H11B14613   5.872   6.519   6.483 -0.0540  2.4471 -0.7222
  135OSM      P14614   6.001   6.735   6.464  0.2154  0.1422 -0.1629
  135OSM    O1314615   6.072   6.844   6.399  0.0473 -0.4186  0.1195
  135OSM    O1414616   5.855   6.751   6.467  0.3852 -0.9102 -0.9522
  135OSM    O1114617   6.047   6.719   6.613 -0.4554  0.5150  0.1785
  135OSM    O1214618   6.055   6.602   6.418 -0.0278  0.1472  0.2593
  135OSM    C1S14619   6.184   6.688   6.665 -0.2658 -0.6948 -0.0999
  135OSM    H1S14620   6.250   6.775   6.650 -1.2157  0.7672  3.2688
  135OSM    H1T14621   6.219   6.590   6.625 -2.4611 -1.2845 -0.7581
  135OSM     NF14622   6.304   6.654   6.876  0.2766  0.0070  0.6253
  135OSM    HNF14623   6.327   6.560   6.901 -0.6310  0.0931  1.8867
  135OSM    C2S14624   6.175   6.671   6.814  0.4392  0.1184 -0.0887
  135OSM    H2S14625   6.123   6.758   6.859  1.3465  1.5968 -1.7774
  135OSM    C3S14626   6.076   6.543   6.850 -0.5774 -0.0667 -0.0578
  135OSM    H3S14627   6.110   6.458   6.787 -0.2515 -0.0843  0.1404
  135OSM     O314628   5.939   6.548   6.804 -0.3247 -0.2520 -0.1369
  135OSM    HO314629   5.937   6.628   6.750 -0.4932 -1.7242 -2.4514
  135OSM    C4S14630   6.083   6.513   6.996 -0.7745  0.6506 -0.0463
  135OSM    H4S14631   6.174   6.458   7.022 -0.8576  0.9510  0.9253
  135OSM    C5S14632   5.996   6.546   7.090 -0.0940 -0.4188 -0.4323
  135OSM    H5S14633   5.898   6.591   7.068 -0.2066 -0.2562  0.3857
  135OSM    C6S14634   6.026   6.511   7.235  0.0389 -0.4127  0.6953
  135OSM    H6S14635   5.974   6.419   7.271  2.1682 -1.5160  1.1017
  135OSM    H6T14636   5.980   6.587   7.302 -2.1422  0.3422 -1.4974
  135OSM    C7S14637   6.172   6.478   7.282 -0.0616 -0.3775 -0.0059
  135OSM    H7S14638   6.240   6.556   7.242  0.7243 -0.9716  0.1597
  135OSM    H7T14639   6.189   6.375   7.244 -1.0204 -0.5237 -0.0684
  135OSM    C8S14640   6.187   6.473   7.434 -0.0591  0.4091 -0.1175
  135OSM    H8S14641   6.111   6.404   7.477  1.6618 -1.8100 -0.4662
  135OSM    H8T14642   6.156   6.573   7.470 -2.1351 -0.5245  0.8732
  135OSM    C9S14643   6.326   6.436   7.494 -0.6020 -0.4814  0.3938
  135OSM    H9S14644   6.402   6.513   7.468  0.5567 -1.6461  0.1822
  135OSM    H9T14645   6.363   6.347   7.440 -0.3593  0.8403 -1.7218
  135OSM   C10S14646   6.333   6.424   7.647  0.9936 -0.4700 -0.7747
  135OSM   H10S14647   6.293   6.324   7.675  1.1897  0.2727  2.5070
  135OSM   H10T14648   6.281   6.511   7.692 -0.8002 -1.4641 -0.8311
  135OSM   C11S14649   6.486   6.421   7.690  0.9500 -0.8570  0.5752
  135OSM   H11S14650   6.536   6.518   7.669  1.4566 -1.5072 -1.4535
  135OSM   H11T14651   6.544   6.347   7.630  0.8649  1.4335 -2.5598
  135OSM   C12S14652   6.501   6.389   7.837 -0.0364  0.3764  0.8851
  135OSM   H12S14653   6.473   6.482   7.891 -1.1054  0.5503  0.0527
  135OSM   H12T14654   6.608   6.376   7.865  0.1769 -0.3112 -0.1876
  135OSM   C13S14655   6.427   6.263   7.896 -0.2132 -0.4499  0.0599
  135OSM   H13S14656   6.465   6.169   7.852  0.4751 -1.5707  2.7939
  135OSM   H13T14657   6.318   6.269   7.877 -0.3635 -2.0392  0.2655
  135OSM   C14S14658   6.455   6.257   8.049  0.4718 -0.2108  0.4058
  135OSM   H14S14659   6.386   6.334   8.090 -1.0400 -0.3501 -1.7004
  135OSM   H14T14660   6.554   6.294   8.082 -0.7347  1.6712  2.0816
  135OSM   C15S14661   6.413   6.114   8.102 -0.2212 -0.0879  0.2172
  135OSM   H15S14662   6.461   6.037   8.039 -0.1411 -0.7928  1.1190
  135OSM   H15T14663   6.305   6.088   8.101  0.6715 -4.6805 -0.2715
  135OSM   C16S14664   6.453   6.104   8.248  0.2830  0.1041 -0.1767
  135OSM   H16S14665   6.562   6.125   8.250  0.2424  0.3587 -0.5212
  135OSM   H16T14666   6.449   5.998   8.281  0.5018 -0.3120 -1.4525
  135OSM   C17S14667   6.377   6.185   8.342  0.3150  0.0621  0.1527
  135OSM   H17S14668   6.272   6.188   8.309  0.7561  0.7336 -1.2749
  135OSM   H17T14669   6.414   6.290   8.332 -1.7386  0.7052 -1.4065
  135OSM   C18S14670   6.393   6.133   8.487 -0.5182 -0.3147  0.0922
  135OSM   H18S14671   6.363   6.026   8.488 -0.3670 -0.3675  1.3626
  135OSM   H18T14672   6.333   6.193   8.559 -0.3639 -1.8669  1.5776
  135OSM   H18U14673   6.500   6.139   8.518 -1.1477  2.7873  2.1584
  135OSM    C1F14674   6.396   6.747   6.884 -1.1780 -0.1258 -0.0237
  135OSM     OF14675   6.382   6.865   6.850  0.3663  0.4952 -0.2966
  135OSM    C2F14676   6.524   6.694   6.944 -0.0668 -0.2579 -0.3482
  135OSM    H2F14677   6.589   6.668   6.858  3.3440  1.2813  1.5560
  135OSM    H2G14678   6.512   6.600   7.001  0.3800 -0.5266 -0.6970
  135OSM    C3F14679   6.606   6.794   7.021 -0.2963 -0.5872  0.0846
  135OSM    H3F14680   6.639   6.875   6.953 -2.3399  1.2823  1.2074
  135OSM    H3G14681   6.695   6.733   7.050  0.4772 -0.5430 -1.9942
  135OSM    C4F14682   6.539   6.866   7.137  0.3302  0.7000 -0.7541
  135OSM    H4F14683   6.464   6.936   7.095 -1.6144 -0.2914  0.9083
  135OSM    H4G14684   6.616   6.918   7.199 -1.6540 -0.3193  2.9031
  135OSM    C5F14685   6.473   6.777   7.246 -0.1781 -0.1759 -0.2604
  135OSM    H5F14686   6.554   6.723   7.298  0.7203 -0.3766 -1.8244
  135OSM    H5G14687   6.401   6.704   7.201  1.9287 -1.6709 -1.3637
  135OSM    C6F14688   6.395   6.858   7.355 -0.5751  0.0776  0.3221
  135OSM    H6F14689   6.302   6.801   7.377  0.7126 -2.5602 -0.6057
  135OSM    H6G14690   6.364   6.961   7.325 -0.6900  0.3364  1.2993
  135OSM    C7F14691   6.484   6.881   7.477  0.7886  0.3248  0.2615
  135OSM    H7F14692   6.550   6.967   7.454  0.5092  0.6247  0.5641
  135OSM    H7G14693   6.539   6.786   7.487 -0.8121 -0.6137  0.4596
  135OSM    C8F14694   6.401   6.878   7.606  0.0402  0.0522 -1.1158
  135OSM    H8F14695   6.470   6.862   7.692 -1.7793  0.4198  0.4849
  135OSM    H8G14696   6.325   6.798   7.598 -0.7378  0.6002  0.3935
  135OSM    C9F14697   6.331   7.014   7.624  0.3829  0.1980  0.0055
  135OSM    H9F14698   6.326   7.066   7.527 -0.0898 -3.8770 -2.4125
  135OSM   C10F14699   6.291   7.069   7.743 -0.2447 -0.3720 -0.3605
  135OSM   H10F14700   6.251   7.171   7.742  0.1241 -0.0907 -4.6754
  135OSM   C11F14701   6.295   6.999   7.874 -0.5204 -0.0084 -0.8053
  135OSM   H11F14702   6.361   6.909   7.877 -1.5709 -0.7747  0.3027
  135OSM   H11G14703   6.191   6.963   7.887 -0.5709  0.3492 -0.2024
  135OSM   C12F14704   6.323   7.078   8.003  0.1726 -0.1744 -0.5936
  135OSM   H12F14705   6.252   7.163   8.001 -0.6512 -0.8356 -0.3019
  135OSM   H12G14706   6.429   7.110   8.001  1.0561 -2.8008 -0.3683
  135OSM   C13F14707   6.292   7.007   8.142  1.6555  0.1139  0.0754
  135OSM   H13F14708   6.373   6.931   8.147 -0.5586 -2.4046 -0.0072
  135OSM   H13G14709   6.192   6.962   8.124  0.3098  3.1167 -0.5950
  135OSM   C14F14710   6.277   7.105   8.262  0.8053  0.2320 -0.2563
  135OSM   H14F14711   6.212   7.193   8.246  0.6832  0.2548  0.3325
  135OSM   H14G14712   6.379   7.145   8.281  1.4319 -1.6462  0.6578
  135OSM   C15F14713   6.231   7.040   8.390  0.1027 -0.5282  0.3257
  135OSM   H15F14714   6.310   6.971   8.425 -1.1286 -2.3489 -0.3205
  135OSM   H15G14715   6.145   6.969   8.391  0.8990 -1.5103  0.0920
  135OSM   C16F14716   6.198   7.137   8.503 -0.5743 -0.1657  0.6117
  135OSM   H16F14717   6.101   7.189   8.489 -0.6775 -0.4428  0.2968
  135OSM   H16G14718   6.279   7.212   8.491 -1.0180  0.0574 -1.3695
  135OSM   C17F14719   6.176   7.079   8.641 -0.3120  0.1733 -0.1009
  135OSM   H17F14720   6.167   7.162   8.714  1.7966 -0.0595  0.5072
  135OSM   H17G14721   6.268   7.021   8.663 -0.2440 -0.2572 -1.4274
  135OSM   C18F14722   6.049   6.996   8.653 -0.1934 -0.3246 -0.5063
  135OSM   H18F14723   6.057   6.917   8.575 -1.2496 -1.8595  0.8877
  135OSM   H18G14724   5.956   7.055   8.642  0.4293  0.8757  0.4078
  135OSM   H18H14725   6.047   6.948   8.753  1.7275 -0.6627 -0.5951
  136OSM      N14726   4.277   6.668   5.833  0.2866 -0.0722  0.3591
  136OSM    C1514727   4.227   6.536   5.906  0.3982 -0.5098  0.1255
  136OSM   H15A14728   4.257   6.529   6.010  0.0996 -0.1463  0.2371
  136OSM   H15B14729   4.260   6.444   5.859 -1.6680 -0.8051 -0.8570
  136OSM   H15C14730   4.119   6.528   5.898  0.4488 -3.2210  0.8597
  136OSM    C1414731   4.430   6.665   5.866  0.3048  0.7647 -0.2104
  136OSM   H14A14732   4.444   6.669   5.973 -0.7142 -2.2536  0.1391
  136OSM   H14B14733   4.481   6.745   5.816 -0.0097  1.5225  0.6647
  136OSM   H14C14734   4.478   6.573   5.833 -1.3541 -0.6628  1.1665
  136OSM    C1314735   4.275   6.637   5.680  0.6278 -0.0483 -0.2399
  136OSM   H13A14736   4.353   6.565   5.658  0.4251 -0.3333 -0.0356
  136OSM   H13B14737   4.281   6.724   5.617  3.0401 -0.7486 -1.1142
  136OSM   H13C14738   4.179   6.588   5.671  0.6043  0.0866 -0.7701
  136OSM    C1214739   4.210   6.792   5.885 -0.3318  0.0017  0.2953
  136OSM   H12A14740   4.265   6.876   5.847 -0.2291 -0.8053 -1.4714
  136OSM   H12B14741   4.214   6.793   5.993 -2.0987  1.6723  0.3988
  136OSM    C1114742   4.056   6.804   5.850 -0.1123  0.5697 -0.4063
  136OSM   H11A14743   4.065   6.815   5.740  3.2838  1.2303 -0.1633
  136OSM   H11B14744   4.006   6.897   5.884 -1.1347 -0.7516  1.9422
  136OSM      P14745   3.914   6.672   6.038  0.3526 -0.5514 -0.3871
  136OSM    O1314746   3.781   6.738   6.029 -0.0610 -0.6441 -0.1383
  136OSM    O1414747   3.896   6.527   6.071  0.4704 -0.3980  0.2143
  136OSM    O1114748   4.012   6.740   6.143 -0.2899  0.5775  0.2406
  136OSM    O1214749   3.981   6.689   5.894 -0.2834 -0.4513  0.0117
  136OSM    C1S14750   3.978   6.737   6.282 -0.2908 -0.2366 -0.4440
  136OSM    H1S14751   3.870   6.714   6.298 -0.3619  0.4932  0.1690
  136OSM    H1T14752   3.996   6.836   6.330 -0.3061  0.7869 -2.4593
  136OSM     NF14753   4.015   6.654   6.515  0.1855  0.6570  0.9538
  136OSM    HNF14754   4.065   6.706   6.584  0.7182  1.1474  0.2066
  136OSM    C2S14755   4.071   6.646   6.370  0.5338 -0.1460  0.1439
  136OSM    H2S14756   4.058   6.544   6.328 -0.0445  0.5153 -1.3790
  136OSM    C3S14757   4.221   6.675   6.359 -0.1958 -0.1329 -0.0479
  136OSM    H3S14758   4.250   6.777   6.390 -0.2836 -0.2467  0.4103
  136OSM     O314759   4.275   6.672   6.229 -0.3467 -0.2015  0.2071
  136OSM    HO314760   4.196   6.670   6.175  0.2317  0.1397 -0.6863
  136OSM    C4S14761   4.299   6.577   6.441 -0.9591  0.1838 -0.1476
  136OSM    H4S14762   4.294   6.474   6.401  3.7178  0.0246 -0.8244
  136OSM    C5S14763   4.376   6.607   6.549 -0.0918 -0.1696 -0.0899
  136OSM    H5S14764   4.388   6.713   6.577  1.6196 -0.1185 -0.8835
  136OSM    C6S14765   4.444   6.500   6.633 -0.2082  0.1805  0.1715
  136OSM    H6S14766   4.550   6.529   6.644 -0.7676  3.8868 -2.2987
  136OSM    H6T14767   4.436   6.398   6.591  2.6151 -1.6500  3.5680
  136OSM    C7S14768   4.376   6.489   6.767 -0.1022 -0.2558 -0.5178
  136OSM    H7S14769   4.423   6.404   6.821 -1.9997 -1.0454 -0.0168
  136OSM    H7T14770   4.269   6.461   6.753  0.1351 -1.9015  0.5920
  136OSM    C8S14771   4.394   6.614   6.856 -0.1467  0.4685 -0.2960
  136OSM    H8S14772   4.313   6.688   6.840 -1.8119 -0.4304  3.0428
  136OSM    H8T14773   4.496   6.654   6.843  1.6291 -2.5122  2.7736
  136OSM    C9S14774   4.379   6.578   7.002 -0.0835  1.6355  0.6224
  136OSM    H9S14775   4.441   6.489   7.025 -1.6428  0.2855 -0.1747
  136OSM    H9T14776   4.271   6.569   7.027 -0.2882  0.2516 -0.5891
  136OSM   C10S14777   4.431   6.694   7.100  0.4752  0.0163 -0.1848
  136OSM   H10S14778   4.423   6.791   7.047  0.6673  0.1341  0.0015
  136OSM   H10T14779   4.540   6.678   7.115 -0.1246 -4.0789  1.1155
  136OSM   C11S14780   4.352   6.705   7.231 -0.0188  0.0950 -0.7146
  136OSM   H11S14781   4.352   6.610   7.289  1.4070  0.5549  0.0830
  136OSM   H11T14782   4.243   6.721   7.219 -0.0580  0.8242  0.4474
  136OSM   C12S14783   4.394   6.827   7.307 -0.2621 -0.5956 -0.3222
  136OSM   H12S14784   4.385   6.917   7.242  1.1160 -0.9224 -1.0211
  136OSM   H12T14785   4.502   6.810   7.329  0.2805  2.0511 -0.6261
  136OSM   C13S14786   4.326   6.851   7.442 -0.9706 -0.3416  0.5408
  136OSM   H13S14787   4.218   6.833   7.425 -0.9209 -0.4460  0.3288
  136OSM   H13T14788   4.335   6.960   7.462  0.5142  0.0166 -1.6698
  136OSM   C14S14789   4.387   6.773   7.562  0.4950  0.6438 -0.1566
  136OSM   H14S14790   4.491   6.808   7.580  1.1312 -0.0708 -2.1594
  136OSM   H14T14791   4.391   6.667   7.528 -0.8999  0.1781  1.0304
  136OSM   C15S14792   4.302   6.768   7.688 -0.1759 -0.0694  0.0872
  136OSM   H15S14793   4.375   6.724   7.760  0.2519 -0.9241 -0.8425
  136OSM   H15T14794   4.218   6.695   7.681 -1.1439  1.1065 -1.0363
  136OSM   C16S14795   4.259   6.910   7.746 -0.2867 -1.0291  0.3032
  136OSM   H16S14796   4.204   6.964   7.667  1.1999 -1.5136 -1.1242
  136OSM   H16T14797   4.342   6.977   7.778 -1.2002  0.1103  0.3375
  136OSM   C17S14798   4.162   6.910   7.867 -0.1829  0.0052  0.6204
  136OSM   H17S14799   4.065   6.865   7.837  0.6713 -0.9377 -0.8048
  136OSM   H17T14800   4.137   7.016   7.893  1.7102  1.0894 -1.5552
  136OSM   C18S14801   4.212   6.836   7.996  0.1501 -0.4577 -0.2766
  136OSM   H18S14802   4.320   6.856   8.005  0.0601 -0.6584  1.5155
  136OSM   H18T14803   4.208   6.725   7.993 -1.5793 -0.4230 -0.4605
  136OSM   H18U14804   4.166   6.873   8.090 -0.3249  0.9433 -1.0152
  136OSM    C1F14805   3.903   6.588   6.549  0.0536  0.0694 -0.6060
  136OSM     OF14806   3.833   6.548   6.460 -0.1478 -0.0904  0.0140
  136OSM    C2F14807   3.885   6.574   6.702 -0.1702 -0.5114 -0.1473
  136OSM    H2F14808   3.814   6.654   6.732  0.2810 -0.0703 -0.2522
  136OSM    H2G14809   3.986   6.586   6.746  0.5182 -0.5007 -1.6604
  136OSM    C3F14810   3.837   6.427   6.737 -0.0911  0.0210  0.2649
  136OSM    H3F14811   3.920   6.355   6.717 -1.4182 -1.2867 -0.7475
  136OSM    H3G14812   3.747   6.395   6.681  0.4757 -0.6508 -0.2823
  136OSM    C4F14813   3.799   6.418   6.886 -0.0769 -0.3631  0.5715
  136OSM    H4F14814   3.757   6.317   6.905  0.8923 -0.9399 -0.2525
  136OSM    H4G14815   3.718   6.492   6.904  0.5441  0.0489  1.7261
  136OSM    C5F14816   3.910   6.445   6.988 -0.1640  0.7043 -0.7146
  136OSM    H5F14817   3.964   6.539   6.967  0.9515 -0.1343 -1.7727
  136OSM    H5G14818   3.986   6.364   6.986 -0.4624  0.3479  0.9872
  136OSM    C6F14819   3.858   6.454   7.129  0.2697 -0.4475  0.3126
  136OSM    H6F14820   3.824   6.360   7.178  0.8956  0.7138  3.2170
  136OSM    H6G14821   3.771   6.521   7.111  0.4616 -0.4768 -0.7530
  136OSM    C7F14822   3.947   6.519   7.232 -0.2010 -0.7262 -0.2331
  136OSM    H7F14823   3.896   6.561   7.321 -0.0620 -0.6715 -0.1778
  136OSM    H7G14824   3.984   6.613   7.186  1.1188 -0.0215  2.1106
  136OSM    C8F14825   4.070   6.424   7.282  0.1558  0.1347  0.7555
  136OSM    H8F14826   4.146   6.477   7.344 -0.2417  1.5117  0.1017
  136OSM    H8G14827   4.123   6.402   7.187  1.1430  1.8010  0.8866
  136OSM    C9F14828   4.024   6.302   7.356  0.1998 -0.2608 -0.2058
  136OSM    H9F14829   3.962   6.236   7.293 -0.6985  0.4929 -0.1380
  136OSM   C10F14830   4.038   6.276   7.489  0.0108 -0.6520  0.0962
  136OSM   H10F14831   3.984   6.190   7.532 -0.7355 -1.3262 -2.0754
  136OSM   C11F14832   4.091   6.361   7.597  0.1695  0.1831 -0.4160
  136OSM   H11F14833   4.001   6.403   7.647  0.8428  0.7181  0.3616
  136OSM   H11G14834   4.140   6.452   7.557  0.1800  0.2012 -0.3619
  136OSM   C12F14835   4.181   6.287   7.701 -0.4058 -0.3145  0.6257
  136OSM   H12F14836   4.274   6.245   7.657  1.1494  2.2767  1.1921
  136OSM   H12G14837   4.120   6.209   7.751 -0.4755 -0.8843 -0.3385
  136OSM   C13F14838   4.229   6.386   7.814 -0.6823 -0.3962 -0.1915
  136OSM   H13F14839   4.154   6.400   7.895  1.7753 -1.3099  2.3988
  136OSM   H13G14840   4.245   6.487   7.771 -3.7691  0.9852  1.6097
  136OSM   C14F14841   4.356   6.338   7.884 -0.2324 -0.3360 -0.3589
  136OSM   H14F14842   4.448   6.377   7.836  0.4775 -0.5022  0.8347
  136OSM   H14G14843   4.350   6.227   7.893  1.1667 -0.2326  2.9153
  136OSM   C15F14844   4.355   6.377   8.028  0.1726  0.1012 -0.4100
  136OSM   H15F14845   4.263   6.342   8.080 -1.0503 -0.1964 -2.6418
  136OSM   H15G14846   4.346   6.488   8.032  0.6628  0.1672 -1.0185
  136OSM   C16F14847   4.482   6.340   8.096  0.3845 -0.7456  0.2753
  136OSM   H16F14848   4.552   6.421   8.066  0.2016 -1.0592 -1.0355
  136OSM   H16G14849   4.503   6.233   8.073 -3.0294 -1.1417 -1.6385
  136OSM   C17F14850   4.479   6.347   8.250  0.5288 -0.3782 -0.3987
  136OSM   H17F14851   4.399   6.278   8.284  0.6183 -0.0166  0.5877
  136OSM   H17G14852   4.441   6.449   8.272  0.0441 -0.7166  0.3749
  136OSM   C18F14853   4.612   6.321   8.324  0.1490  0.5645 -0.1069
  136OSM   H18F14854   4.661   6.235   8.275 -0.8095  0.6114 -1.2132
  136OSM   H18G14855   4.605   6.311   8.434  2.1390  0.8145  0.0743
  136OSM   H18H14856   4.674   6.408   8.292 -1.4174  0.7293 -3.1070
  137OSM      N14857   0.967   4.958   6.524 -0.0606  0.4830  0.1639
  137OSM    C1514858   0.963   5.108   6.557 -0.4598  0.6911  0.2653
  137OSM   H15A14859   0.876   5.155   6.513 -2.9635 -1.9283  2.0940
  137OSM   H15B14860   1.047   5.157   6.510 -0.1930 -0.7979 -0.8988
  137OSM   H15C14861   0.967   5.119   6.664  0.4784 -1.3027  0.4757
  137OSM    C1414862   1.116   4.924   6.521  0.9490 -0.4205 -0.8342
  137OSM   H14A14863   1.165   4.945   6.615 -1.3564  3.1553 -0.2238
  137OSM   H14B14864   1.164   4.982   6.443 -0.0077  0.9942 -0.4007
  137OSM   H14C14865   1.132   4.817   6.514 -0.5054 -0.8801  1.8627
  137OSM    C1314866   0.898   4.885   6.640  0.4533 -0.1126  0.2207
  137OSM   H13A14867   0.945   4.911   6.733 -0.0766 -0.8476  0.7015
  137OSM   H13B14868   0.910   4.779   6.627  3.4700  0.0052  1.2232
  137OSM   H13C14869   0.794   4.913   6.644  0.2295 -0.9806  0.5470
  137OSM    C1214870   0.903   4.916   6.394  0.2972  0.1857  0.4063
  137OSM   H12A14871   0.910   4.809   6.380  0.9383  0.3426 -0.5534
  137OSM   H12B14872   0.959   4.969   6.319  2.7336 -1.2649  1.0964
  137OSM    C1114873   0.756   4.962   6.381  0.3640 -0.9220 -0.0286
  137OSM   H11A14874   0.696   4.929   6.469 -2.4589 -0.9363 -1.8401
  137OSM   H11B14875   0.706   4.915   6.294 -3.0762  0.9031  0.7688
  137OSM      P14876   0.609   5.194   6.382  0.3412  0.1155  0.1040
  137OSM    O1314877   0.652   5.333   6.350 -0.3345 -0.3051 -0.0971
  137OSM    O1414878   0.514   5.128   6.294 -0.3337  0.4514  0.2425
  137OSM    O1114879   0.547   5.201   6.525 -0.6227  0.2943  0.0810
  137OSM    O1214880   0.743   5.103   6.375 -0.0133  0.5906 -0.3167
  137OSM    C1S14881   0.616   5.159   6.647  0.6177 -0.0765 -0.7999
  137OSM    H1S14882   0.725   5.150   6.629  0.6917  0.2196 -0.5151
  137OSM    H1T14883   0.595   5.055   6.678 -0.7194  0.4495  0.1525
  137OSM     NF14884   0.682   5.216   6.875  0.9486  0.6709  0.2778
  137OSM    HNF14885   0.651   5.172   6.959  0.2242 -1.4828 -1.0417
  137OSM    C2S14886   0.576   5.234   6.776  0.3360 -0.5431 -0.2405
  137OSM    H2S14887   0.572   5.343   6.754 -0.0255 -0.5780 -0.3489
  137OSM    C3S14888   0.435   5.190   6.820 -0.6647  0.1752 -0.7632
  137OSM    H3S14889   0.428   5.080   6.833 -2.0138  0.3380 -0.0172
  137OSM     O314890   0.325   5.205   6.728 -0.6078  0.2551  0.2897
  137OSM    HO314891   0.358   5.241   6.646  1.0792 -2.6223 -0.4616
  137OSM    C4S14892   0.385   5.254   6.945 -0.7823 -0.0236 -0.4123
  137OSM    H4S14893   0.354   5.358   6.923 -1.2821  0.5167  2.4681
  137OSM    C5S14894   0.371   5.203   7.070 -0.3039  0.2268  0.6050
  137OSM    H5S14895   0.383   5.096   7.092  1.5020  0.7297  2.3254
  137OSM    C6S14896   0.316   5.284   7.191  0.3943 -0.2689 -0.6033
  137OSM    H6S14897   0.349   5.218   7.274 -0.4876  0.4215  0.3231
  137OSM    H6T14898   0.205   5.286   7.183  0.2976 -0.5826  0.5057
  137OSM    C7S14899   0.356   5.424   7.228 -0.2075 -0.4771 -0.6077
  137OSM    H7S14900   0.326   5.483   7.139  0.0419  0.6685  0.0511
  137OSM    H7T14901   0.467   5.428   7.236 -0.3095 -0.6503  1.2799
  137OSM    C8S14902   0.285   5.478   7.360  0.0228 -0.4492  0.0701
  137OSM    H8S14903   0.175   5.470   7.343  0.3016 -0.8334 -1.7586
  137OSM    H8T14904   0.312   5.583   7.385 -1.6727  0.3316 -1.2258
  137OSM    C9S14905   0.323   5.408   7.484  0.2990  0.2663 -0.0067
  137OSM    H9S14906   0.428   5.373   7.476 -0.1620 -0.8919 -1.5754
  137OSM    H9T14907   0.278   5.306   7.488  2.4382 -0.7117  0.3701
  137OSM   C10S14908   0.279   5.483   7.611  0.0503 -0.4288  0.1924
  137OSM   H10S14909   0.169   5.479   7.602 -0.0768  0.2280  1.3113
  137OSM   H10T14910   0.309   5.589   7.597  0.0479 -0.4832 -0.2270
  137OSM   C11S14911   0.345   5.426   7.743  1.0177 -0.7829  0.0914
  137OSM   H11S14912   0.455   5.421   7.732  0.9285 -1.8013 -0.3537
  137OSM   H11T14913   0.301   5.325   7.750 -0.8576 -0.2304 -2.2900
  137OSM   C12S14914   0.313   5.498   7.871 -0.1970 -0.1094  0.1709
  137OSM   H12S14915   0.207   5.530   7.879 -0.0476  0.1396  1.2667
  137OSM   H12T14916   0.377   5.589   7.871  0.2058 -0.3924  0.9575
  137OSM   C13S14917   0.343   5.423   7.998 -0.4967 -0.2641  0.8779
  137OSM   H13S14918   0.454   5.425   8.007 -0.5353 -0.1853  1.3403
  137OSM   H13T14919   0.312   5.316   8.002 -0.1609 -0.3942  0.2393
  137OSM   C14S14920   0.295   5.500   8.109 -0.0189 -0.1050 -0.1110
  137OSM   H14S14921   0.184   5.506   8.109 -0.1463 -1.9745 -0.2131
  137OSM   H14T14922   0.337   5.602   8.091  2.5064 -1.1849 -0.8729
  137OSM   C15S14923   0.354   5.449   8.244 -0.6527 -0.0030 -0.3083
  137OSM   H15S14924   0.463   5.469   8.233 -1.1105  3.0235 -0.4247
  137OSM   H15T14925   0.331   5.341   8.255  2.3400 -0.7592 -0.8373
  137OSM   C16S14926   0.297   5.522   8.365 -0.4079  0.0583  0.5267
  137OSM   H16S14927   0.187   5.506   8.361 -0.6219  1.3289  0.9682
  137OSM   H16T14928   0.321   5.630   8.362 -0.4377  0.2218  3.2919
  137OSM   C17S14929   0.354   5.457   8.497 -1.0115 -0.0251  0.0810
  137OSM   H17S14930   0.320   5.352   8.507 -0.8571 -0.0871 -0.0428
  137OSM   H17T14931   0.323   5.513   8.587  0.7252 -0.4414  0.9850
  137OSM   C18S14932   0.513   5.457   8.506  0.4065 -0.0409 -0.4479
  137OSM   H18S14933   0.541   5.378   8.434 -0.5026  0.2575 -1.1403
  137OSM   H18T14934   0.558   5.444   8.607  0.9212  2.0444 -0.3601
  137OSM   H18U14935   0.554   5.553   8.466 -2.9967  2.5090  1.6247
  137OSM    C1F14936   0.807   5.247   6.860 -0.0147 -0.1998 -0.6732
  137OSM     OF14937   0.852   5.309   6.760  0.4279 -0.3141 -0.3686
  137OSM    C2F14938   0.898   5.223   6.973  0.2593  0.0665 -0.3754
  137OSM    H2F14939   0.873   5.131   7.029  1.1494  0.4690  0.7198
  137OSM    H2G14940   0.868   5.303   7.044 -0.1359 -1.0373  0.7259
  137OSM    C3F14941   1.048   5.227   6.941  0.0164  0.2133  0.5559
  137OSM    H3F14942   1.063   5.292   6.853 -2.0896 -0.3091 -0.2351
  137OSM    H3G14943   1.076   5.126   6.903  1.3233  0.5658  0.5347
  137OSM    C4F14944   1.135   5.267   7.060  0.1003 -0.2177  0.0546
  137OSM    H4F14945   1.112   5.367   7.102 -2.4560 -1.1895  1.1559
  137OSM    H4G14946   1.241   5.267   7.027 -0.3875 -2.6407 -1.8225
  137OSM    C5F14947   1.133   5.166   7.185 -0.7088 -0.3816 -0.6600
  137OSM    H5F14948   1.182   5.069   7.163 -0.8166 -0.3577 -1.0127
  137OSM    H5G14949   1.032   5.123   7.202 -1.0314 -0.0557 -1.6782
  137OSM    C6F14950   1.179   5.230   7.317 -0.0034 -0.3934  0.5202
  137OSM    H6F14951   1.261   5.303   7.302 -1.1226  0.5553 -1.3454
  137OSM    H6G14952   1.215   5.149   7.384 -1.9924  0.8173  3.2287
  137OSM    C7F14953   1.052   5.295   7.377  0.5083 -0.3411  0.1813
  137OSM    H7F14954   0.977   5.214   7.380 -2.7324  2.2514 -2.4833
  137OSM    H7G14955   1.017   5.373   7.305  1.0751  0.4333  0.7224
  137OSM    C8F14956   1.088   5.351   7.522  0.3605  0.2198  0.1815
  137OSM    H8F14957   1.128   5.263   7.576  0.8574 -1.2709 -2.4413
  137OSM    H8G14958   0.991   5.374   7.570 -0.6247  0.3535 -1.7912
  137OSM    C9F14959   1.183   5.462   7.530 -0.4227 -0.6925 -0.8101
  137OSM    H9F14960   1.157   5.542   7.460  0.7479  2.0980  1.6998
  137OSM   C10F14961   1.302   5.468   7.606 -0.1411  0.9974  0.6477
  137OSM   H10F14962   1.371   5.551   7.587 -1.7588  2.1951 -0.1961
  137OSM   C11F14963   1.364   5.352   7.690 -0.3514  0.7739  0.3701
  137OSM   H11F14964   1.290   5.275   7.725  0.4700  1.1882  3.2768
  137OSM   H11G14965   1.405   5.393   7.784  0.1003  0.2318  0.4143
  137OSM   C12F14966   1.465   5.276   7.601  0.5747 -0.1219  0.1858
  137OSM   H12F14967   1.421   5.214   7.520 -1.3801 -0.1309  1.1913
  137OSM   H12G14968   1.513   5.201   7.668 -0.7853  0.0061  1.3625
  137OSM   C13F14969   1.588   5.354   7.553 -0.3697 -0.6364 -0.0006
  137OSM   H13F14970   1.544   5.433   7.488  0.7784 -0.8630 -1.0866
  137OSM   H13G14971   1.659   5.290   7.497  1.8286 -0.6185  2.5674
  137OSM   C14F14972   1.665   5.433   7.669 -0.5499 -0.4523  0.6911
  137OSM   H14F14973   1.711   5.347   7.723 -1.3556  0.9697  3.8716
  137OSM   H14G14974   1.608   5.489   7.746  2.9567  2.0208  1.7126
  137OSM   C15F14975   1.783   5.518   7.620  0.2864 -0.1541  0.6505
  137OSM   H15F14976   1.750   5.614   7.574 -0.5458 -0.3282  0.8776
  137OSM   H15G14977   1.823   5.454   7.539 -1.3803 -0.6838  0.2213
  137OSM   C16F14978   1.894   5.561   7.720 -0.3202  1.2220 -0.4877
  137OSM   H16F14979   1.942   5.473   7.767  1.9163  2.7010  0.1257
  137OSM   H16G14980   1.854   5.615   7.808  2.4993  0.3886  1.4181
  137OSM   C17F14981   2.009   5.629   7.658 -1.0572  0.0887 -0.2148
  137OSM   H17F14982   2.056   5.565   7.580  0.0940  1.1067 -0.3937
  137OSM   H17G14983   2.095   5.643   7.727 -0.4428  0.9297 -1.1211
  137OSM   C18F14984   1.987   5.763   7.592 -0.0077  0.0769 -0.8640
  137OSM   H18F14985   2.081   5.796   7.544  0.6673  0.0696  0.4153
  137OSM   H18G14986   1.956   5.836   7.670  0.6659 -1.0144  0.4900
  137OSM   H18H14987   1.908   5.748   7.515 -2.0281 -2.7609  1.5239
  138OSM      N14988   1.737   1.341   5.908 -0.1121  0.2075  0.3368
  138OSM    C1514989   1.857   1.419   5.867 -0.6558  0.3464 -0.4526
  138OSM   H15A14990   1.949   1.364   5.860  0.5072  1.9562  1.1222
  138OSM   H15B14991   1.874   1.490   5.947 -1.1644 -2.3426  2.2112
  138OSM   H15C14992   1.842   1.469   5.772 -1.1318  0.7264 -0.1869
  138OSM    C1414993   1.619   1.429   5.892  0.5257  1.0064 -0.7549
  138OSM   H14A14994   1.638   1.514   5.955 -0.4518 -1.2089  2.8528
  138OSM   H14B14995   1.523   1.389   5.923  0.5217  1.0894 -0.6587
  138OSM   H14C14996   1.611   1.461   5.790  2.1357 -1.4575 -1.7452
  138OSM    C1314997   1.722   1.222   5.818 -0.2885 -0.1432  0.2576
  138OSM   H13A14998   1.809   1.158   5.823 -0.2412 -0.0492  0.6141
  138OSM   H13B14999   1.724   1.255   5.715  1.6783 -1.0527 -0.0304
  138OSM   H13C15000   1.637   1.161   5.846  0.3929 -1.1097  0.2784
  138OSM    C1215001   1.751   1.294   6.050  0.1128 -0.6237 -0.2416
  138OSM   H12A15002   1.801   1.369   6.110 -0.2749  0.0069 -0.6868
  138OSM   H12B15003   1.826   1.216   6.047  1.0335  0.2432 -0.6542
  138OSM    C1115004   1.625   1.245   6.122  0.0388  0.0578  0.1033
  138OSM   H11A15005   1.561   1.335   6.134 -0.5025 -0.3718  0.4986
  138OSM   H11B15006   1.644   1.217   6.228 -0.9559  0.8900  0.5193
  138OSM      P15007   1.561   0.989   6.076 -0.0525  0.0018 -0.0692
  138OSM    O1315008   1.445   0.923   6.016  0.2033  0.5413  0.2497
  138OSM    O1415009   1.694   0.940   6.034  0.1723  0.4015  0.1341
  138OSM    O1115010   1.552   0.969   6.230  0.2045  0.5498 -0.2550
  138OSM    O1215011   1.547   1.143   6.057 -0.3800 -0.5773  0.2306
  138OSM    C1S15012   1.437   1.019   6.308  0.0060  0.7538 -0.5110
  138OSM    H1S15013   1.348   0.957   6.285  0.8908 -2.2160  3.0646
  138OSM    H1T15014   1.426   1.124   6.272  1.3143  0.6144 -1.3774
  138OSM     NF15015   1.342   1.077   6.528  0.0591  0.4446 -0.4680
  138OSM    HNF15016   1.352   1.166   6.571 -1.2420  0.4212 -0.0688
  138OSM    C2S15017   1.461   1.021   6.460  0.1871  0.2516 -0.5428
  138OSM    H2S15018   1.479   0.919   6.502  0.1238  0.5575  0.2460
  138OSM    C3S15019   1.589   1.104   6.497 -0.1273 -0.0469 -0.0298
  138OSM    H3S15020   1.589   1.209   6.459 -0.0329  0.2312  0.7183
  138OSM     O315021   1.706   1.046   6.435 -0.1924  0.3423 -0.4652
  138OSM    HO315022   1.676   0.996   6.359  1.6547 -0.9240 -0.4030
  138OSM    C4S15023   1.614   1.140   6.642 -0.6412 -0.4844  0.7404
  138OSM    H4S15024   1.584   1.244   6.662  0.7907 -0.0301  0.5812
  138OSM    C5S15025   1.670   1.052   6.731  0.1169 -0.3483  0.2642
  138OSM    H5S15026   1.694   0.950   6.700 -0.0321 -0.0543 -0.8640
  138OSM    C6S15027   1.705   1.094   6.872 -0.2055  0.4917 -0.4554
  138OSM    H6S15028   1.816   1.100   6.882 -0.1100 -1.3938  0.1709
  138OSM    H6T15029   1.682   1.009   6.940 -0.7714  2.6156  2.1610
  138OSM    C7S15030   1.633   1.219   6.920  0.1379 -0.3741 -0.3278
  138OSM    H7S15031   1.529   1.180   6.917  0.5150 -1.3189 -1.3221
  138OSM    H7T15032   1.650   1.301   6.847  1.3875 -1.4197 -1.2254
  138OSM    C8S15033   1.669   1.265   7.064 -0.2604 -0.3655  0.0921
  138OSM    H8S15034   1.622   1.365   7.078 -0.5874 -0.4539 -0.3676
  138OSM    H8T15035   1.779   1.281   7.066 -0.4611  1.4105 -1.0057
  138OSM    C9S15036   1.634   1.170   7.177 -0.4380  0.0168 -0.2164
  138OSM    H9S15037   1.679   1.069   7.184 -1.9353 -0.6091  1.0825
  138OSM    H9T15038   1.525   1.149   7.182 -0.2082 -1.0586  0.6839
  138OSM   C10S15039   1.671   1.240   7.305  0.1934 -0.6356 -0.3856
  138OSM   H10S15040   1.643   1.347   7.295  3.8074  0.7770  2.1032
  138OSM   H10T15041   1.779   1.235   7.332  0.6659 -1.3666 -2.3044
  138OSM   C11S15042   1.605   1.175   7.426 -0.4597  0.0110  0.7606
  138OSM   H11S15043   1.627   1.066   7.417  0.3267  0.2397 -0.2990
  138OSM   H11T15044   1.495   1.192   7.419 -0.3802  0.0359 -0.7244
  138OSM   C12S15045   1.653   1.227   7.562  0.2646  0.1162 -0.1881
  138OSM   H12S15046   1.668   1.336   7.570 -0.0948  0.0793  1.4038
  138OSM   H12T15047   1.754   1.181   7.574  0.3685  0.6968  1.5189
  138OSM   C13S15048   1.561   1.181   7.676  0.5162  0.0715  0.2473
  138OSM   H13S15049   1.577   1.072   7.682 -1.7798 -0.3859 -0.8356
  138OSM   H13T15050   1.451   1.199   7.666  0.6504 -0.2288 -2.5786
  138OSM   C14S15051   1.578   1.242   7.814  0.0799 -1.0893 -0.7747
  138OSM   H14S15052   1.541   1.346   7.823 -1.6113 -1.7869  1.1988
  138OSM   H14T15053   1.689   1.246   7.825  0.1389  0.0517 -1.6281
  138OSM   C15S15054   1.524   1.149   7.926  0.0326 -0.9549  0.8118
  138OSM   H15S15055   1.574   1.050   7.918  2.8088  0.4379 -0.1735
  138OSM   H15T15056   1.415   1.136   7.907  0.2449  0.1117 -1.3571
  138OSM   C16S15057   1.538   1.206   8.062  0.2030 -0.4777  0.4916
  138OSM   H16S15058   1.472   1.149   8.130 -1.9619  1.1737 -0.1024
  138OSM   H16T15059   1.514   1.315   8.068  1.5556 -0.2586  3.0744
  138OSM   C17S15060   1.680   1.191   8.113  0.8389 -0.0404 -0.5967
  138OSM   H17S15061   1.760   1.235   8.051  0.7332 -1.4600 -1.7881
  138OSM   H17T15062   1.699   1.081   8.119  1.2651  0.0931  1.1103
  138OSM   C18S15063   1.691   1.245   8.259  0.1734 -0.1122  0.1155
  138OSM   H18S15064   1.796   1.249   8.295 -0.3135 -0.1861  1.6537
  138OSM   H18T15065   1.628   1.186   8.329 -1.8141  2.0351  0.2421
  138OSM   H18U15066   1.660   1.351   8.269 -0.1075 -0.1989  0.1785
  138OSM    C1F15067   1.233   1.002   6.538  0.0771 -0.4659  0.1520
  138OSM     OF15068   1.244   0.886   6.525 -0.0598  0.2009 -0.0917
  138OSM    C2F15069   1.108   1.071   6.573  0.8355 -0.2163  0.9595
  138OSM    H2F15070   1.048   1.056   6.481  2.7253  1.2588 -0.6234
  138OSM    H2G15071   1.118   1.182   6.566 -0.1708 -0.0340  2.0333
  138OSM    C3F15072   1.038   1.013   6.695  0.2856 -0.1820 -0.8171
  138OSM    H3F15073   1.034   0.902   6.683  1.1637 -0.2298 -0.6933
  138OSM    H3G15074   0.940   1.066   6.693 -0.2588 -0.7077  3.2200
  138OSM    C4F15075   1.103   1.067   6.817 -0.2718 -0.9391 -0.1373
  138OSM    H4F15076   1.089   1.177   6.820  1.0473 -0.7680  0.0469
  138OSM    H4G15077   1.209   1.034   6.818 -0.3261 -1.1029  0.5490
  138OSM    C5F15078   1.024   1.004   6.934  0.3342 -0.2338 -0.4770
  138OSM    H5F15079   1.032   0.893   6.938 -0.5670 -0.3779 -1.8179
  138OSM    H5G15080   0.917   1.028   6.921 -0.0970 -2.1292 -0.7646
  138OSM    C6F15081   1.074   1.062   7.063 -0.0884  0.0409  0.1115
  138OSM    H6F15082   1.172   1.114   7.048 -0.2513  1.1153  2.3550
  138OSM    H6G15083   1.086   0.984   7.141 -1.1427  0.7206  0.9679
  138OSM    C7F15084   0.982   1.177   7.118 -0.2806  0.4747 -0.0439
  138OSM    H7F15085   0.939   1.243   7.040 -1.2324  1.2421  1.0989
  138OSM    H7G15086   1.055   1.238   7.176  1.3130 -0.5322 -0.9013
  138OSM    C8F15087   0.875   1.112   7.196  0.2363 -0.2419 -0.4987
  138OSM    H8F15088   0.918   1.048   7.275 -2.2234 -0.5049  0.7500
  138OSM    H8G15089   0.818   1.038   7.135 -0.3048  1.5591 -2.3154
  138OSM    C9F15090   0.766   1.213   7.248 -0.9457  1.0400  1.1670
  138OSM    H9F15091   0.729   1.286   7.174  1.5092  0.7688 -0.4281
  138OSM   C10F15092   0.713   1.209   7.372 -0.0122  0.5022  0.5881
  138OSM   H10F15093   0.637   1.287   7.390 -0.6181 -0.2551  1.3623
  138OSM   C11F15094   0.753   1.117   7.487 -0.5686  0.3074 -0.5592
  138OSM   H11F15095   0.831   1.044   7.457 -0.1411 -0.1195  1.4411
  138OSM   H11G15096   0.670   1.059   7.534 -0.4138  0.2020 -0.4127
  138OSM   C12F15097   0.833   1.201   7.592 -0.4631  0.2029 -0.8925
  138OSM   H12F15098   0.836   1.137   7.683  0.5957  1.9032  0.3438
  138OSM   H12G15099   0.769   1.289   7.616 -1.5364 -0.5476 -0.9298
  138OSM   C13F15100   0.975   1.243   7.553  0.2631  0.4578 -0.3655
  138OSM   H13F15101   1.011   1.316   7.629 -2.1991 -0.9998  2.3911
  138OSM   H13G15102   0.988   1.281   7.449  0.7501 -0.4444 -0.6477
  138OSM   C14F15103   1.060   1.117   7.576 -0.1591 -0.0172 -0.1841
  138OSM   H14F15104   1.142   1.116   7.500  0.5431 -3.4613  0.4306
  138OSM   H14G15105   1.008   1.019   7.571 -0.4972  0.0208  1.9038
  138OSM   C15F15106   1.143   1.114   7.711 -0.0554  0.0671 -0.0949
  138OSM   H15F15107   1.146   1.219   7.748 -2.8434  0.5809 -1.1102
  138OSM   H15G15108   1.247   1.094   7.678 -0.2284  1.2271 -1.4445
  138OSM   C16F15109   1.095   1.015   7.820  1.3236  0.3473 -0.1004
  138OSM   H16F15110   1.158   0.926   7.843  0.2268 -0.2623  0.6020
  138OSM   H16G15111   0.997   0.974   7.787  0.8751  0.5440  0.9304
  138OSM   C17F15112   1.049   1.087   7.953 -0.5323  0.7091 -0.0094
  138OSM   H17F15113   0.958   1.149   7.938 -1.4255 -0.2641  1.1196
  138OSM   H17G15114   1.128   1.145   8.005 -1.0103 -0.0176  1.5922
  138OSM   C18F15115   1.009   0.990   8.064 -0.9733 -0.2272 -0.5042
  138OSM   H18F15116   0.989   1.044   8.159  1.3866  1.6722 -0.9961
  138OSM   H18G15117   1.096   0.934   8.104  0.2476  2.1439  0.3624
  138OSM   H18H15118   0.925   0.927   8.028 -1.0777  0.1980 -1.0153
  139OSM      N15119   6.668   1.556   6.023 -0.3704  0.8052 -0.3682
  139OSM    C1515120   6.603   1.486   6.141  0.0418 -0.0660  0.0094
  139OSM   H15A15121   6.657   1.486   6.235 -0.2851 -1.2191  0.2062
  139OSM   H15B15122   6.582   1.384   6.113 -0.2157  0.3166 -1.2957
  139OSM   H15C15123   6.514   1.539   6.172  0.9947  2.0200 -0.6057
  139OSM    C1415124   6.581   1.583   5.912 -0.1096  0.3400 -0.0229
  139OSM   H14A15125   6.496   1.640   5.947 -0.5885 -0.3945  0.0271
  139OSM   H14B15126   6.535   1.497   5.866  0.3254 -0.3946  0.8991
  139OSM   H14C15127   6.623   1.629   5.823  1.3611  0.6011  0.7816
  139OSM    C1315128   6.699   1.689   6.076  0.1858  0.2732 -0.0959
  139OSM   H13A15129   6.629   1.731   6.146  1.5242  0.7380  1.0161
  139OSM   H13B15130   6.713   1.769   6.005 -0.2326  0.4302 -0.0024
  139OSM   H13C15131   6.791   1.678   6.132  0.2637  0.0695 -0.2628
  139OSM    C1215132   6.791   1.467   5.975  0.2607 -0.1439  0.3112
  139OSM   H12A15133   6.835   1.517   5.890  1.4523  0.3216  1.1839
  139OSM   H12B15134   6.746   1.386   5.921  0.2569 -1.1779  1.8074
  139OSM    C1115135   6.898   1.429   6.074 -0.9814 -0.3352 -0.6219
  139OSM   H11A15136   6.939   1.527   6.103  1.1701 -1.4463  0.2771
  139OSM   H11B15137   6.980   1.375   6.022 -2.0272 -1.2062 -1.4250
  139OSM      P15138   6.828   1.206   6.177 -0.1240  0.0901 -0.3898
  139OSM    O1315139   6.735   1.147   6.277 -0.2888  0.8575  0.0194
  139OSM    O1415140   6.797   1.175   6.037 -0.5455 -0.1181 -0.3351
  139OSM    O1115141   6.967   1.136   6.203 -0.5556  0.5874  0.2329
  139OSM    O1215142   6.849   1.363   6.192  0.0787  0.0603 -0.2618
  139OSM    C1S15143   7.058   1.202   6.300  0.2723 -0.9455  0.5563
  139OSM    H1S15144   7.073   1.311   6.283 -0.8567 -1.0260 -1.3310
  139OSM    H1T15145   7.164   1.170   6.292  0.6504  0.5000 -0.8552
  139OSM     NF15146   7.071   1.274   6.539 -0.2956 -0.2019  0.3445
  139OSM    HNF15147   7.124   1.224   6.607 -1.1091  0.6843  1.6781
  139OSM    C2S15148   7.002   1.188   6.445 -0.5205  0.0755  0.3432
  139OSM    H2S15149   6.897   1.225   6.442 -0.7357 -0.5698 -1.2906
  139OSM    C3S15150   6.997   1.043   6.491  0.0174 -0.3582  0.4156
  139OSM    H3S15151   7.103   1.011   6.482  0.2093  0.5466 -0.8374
  139OSM     O315152   6.918   0.953   6.409  0.3052 -0.2526 -0.0890
  139OSM    HO315153   6.892   1.007   6.334  0.3966  0.6419  0.5063
  139OSM    C4S15154   6.953   1.018   6.640 -0.3472  0.1282 -0.6177
  139OSM    H4S15155   7.039   1.022   6.708 -1.2838 -0.9647  0.6977
  139OSM    C5S15156   6.836   1.010   6.701  0.6667 -0.6870  0.2454
  139OSM    H5S15157   6.750   1.022   6.633  1.4683  0.5102 -0.5833
  139OSM    C6S15158   6.822   1.013   6.848  1.0417 -0.0752 -1.1001
  139OSM    H6S15159   6.736   1.074   6.883  2.3122  0.3166  1.5391
  139OSM    H6T15160   6.893   1.084   6.896 -1.2192  0.0139  2.4798
  139OSM    C7S15161   6.841   0.879   6.923 -0.3044  0.7469  0.8235
  139OSM    H7S15162   6.947   0.843   6.922 -0.3296  0.6475  1.7278
  139OSM    H7T15163   6.774   0.804   6.876 -0.0338 -0.9779  3.0628
  139OSM    C8S15164   6.822   0.880   7.070  1.0430 -0.1578 -0.3997
  139OSM    H8S15165   6.902   0.943   7.114 -1.3650  0.9472  2.8279
  139OSM    H8T15166   6.835   0.777   7.109  3.4433  0.5777  0.9889
  139OSM    C9S15167   6.703   0.956   7.119  1.1700  0.1778  0.5221
  139OSM    H9S15168   6.608   0.915   7.079 -0.5331  1.9136  2.5317
  139OSM    H9T15169   6.721   1.064   7.102  1.1386  0.0750 -0.1864
  139OSM   C10S15170   6.681   0.940   7.268 -0.6650 -0.4851 -0.8294
  139OSM   H10S15171   6.774   0.976   7.317  0.2659 -1.2344 -1.9767
  139OSM   H10T15172   6.669   0.834   7.299  1.8339 -0.7149 -0.4651
  139OSM   C11S15173   6.567   1.027   7.315 -0.4430  0.7804  0.1360
  139OSM   H11S15174   6.472   0.990   7.270 -0.4792 -1.5018  1.9333
  139OSM   H11T15175   6.567   1.135   7.288 -0.8360  0.6457 -0.4148
  139OSM   C12S15176   6.539   1.014   7.461  0.2418  0.6169 -0.1373
  139OSM   H12S15177   6.548   0.908   7.491  0.0656  0.9522  1.1301
  139OSM   H12T15178   6.437   1.051   7.483  0.5342 -0.0417  2.6721
  139OSM   C13S15179   6.631   1.098   7.551 -0.0357 -0.2324 -0.4816
  139OSM   H13S15180   6.634   1.204   7.521  1.5596 -0.3121 -0.6959
  139OSM   H13T15181   6.738   1.066   7.544  0.3452  0.8994 -0.0181
  139OSM   C14S15182   6.600   1.081   7.701 -1.0251 -0.8104 -0.6378
  139OSM   H14S15183   6.629   0.977   7.728  0.3136 -1.2182 -3.2693
  139OSM   H14T15184   6.497   1.106   7.734 -1.0330 -0.6077 -0.8138
  139OSM   C15S15185   6.693   1.182   7.771 -0.0767 -0.6276 -0.1054
  139OSM   H15S15186   6.674   1.286   7.738 -1.4462 -0.2422  1.7445
  139OSM   H15T15187   6.798   1.158   7.742  0.1431  2.3662 -2.1770
  139OSM   C16S15188   6.682   1.168   7.925  0.0492 -0.6904  0.9096
  139OSM   H16S15189   6.694   1.058   7.941 -1.3088 -1.2268 -1.3030
  139OSM   H16T15190   6.589   1.216   7.962  0.1906 -1.1632  1.9112
  139OSM   C17S15191   6.796   1.244   8.001 -0.6439 -0.1700  0.2053
  139OSM   H17S15192   6.815   1.345   7.958 -1.1830 -0.9382 -1.9542
  139OSM   H17T15193   6.889   1.191   7.972 -0.6469  0.2317 -0.5564
  139OSM   C18S15194   6.793   1.256   8.154  0.0227 -0.3907 -0.3202
  139OSM   H18S15195   6.862   1.328   8.202 -1.5321 -0.2905  1.9544
  139OSM   H18T15196   6.825   1.155   8.187  3.6392  1.0778  1.1628
  139OSM   H18U15197   6.690   1.267   8.194 -0.3076  0.5254 -1.3817
  139OSM    C1F15198   7.075   1.407   6.545 -0.2168 -0.3057  0.0131
  139OSM     OF15199   7.007   1.468   6.466  0.6468 -0.3483 -0.0242
  139OSM    C2F15200   7.159   1.479   6.643 -0.4390 -0.1969  0.8321
  139OSM    H2F15201   7.227   1.542   6.582 -0.0887 -0.2576  1.1562
  139OSM    H2G15202   7.218   1.403   6.699  0.1070 -0.3618  0.0446
  139OSM    C3F15203   7.095   1.555   6.759 -0.0045  0.0181  0.6184
  139OSM    H3F15204   7.023   1.631   6.722 -0.2816 -0.2349  0.6338
  139OSM    H3G15205   7.172   1.589   6.832  0.8680 -1.4774  0.4537
  139OSM    C4F15206   7.007   1.451   6.837 -0.0101 -0.3841 -0.3564
  139OSM    H4F15207   7.075   1.367   6.865  1.1522  0.4958 -0.4583
  139OSM    H4G15208   6.931   1.403   6.772 -2.5312  2.0540  0.6050
  139OSM    C5F15209   6.951   1.519   6.967 -1.0238  0.6325  1.2825
  139OSM    H5F15210   6.851   1.474   6.982 -1.3455 -0.1419 -2.2180
  139OSM    H5G15211   6.944   1.627   6.941 -1.4556  0.1753 -0.6667
  139OSM    C6F15212   7.049   1.521   7.081  0.1121  0.0002  0.1461
  139OSM    H6F15213   6.989   1.562   7.165  0.1968  0.2503  0.0867
  139OSM    H6G15214   7.126   1.600   7.064  2.6867 -2.1783  1.0000
  139OSM    C7F15215   7.125   1.392   7.123  0.0614  0.5556  0.3880
  139OSM    H7F15216   7.189   1.415   7.210 -0.1018  2.8318 -0.0438
  139OSM    H7G15217   7.189   1.344   7.045  0.0874 -0.5347  1.0539
  139OSM    C8F15218   7.029   1.280   7.168  0.5271 -0.6085 -0.0319
  139OSM    H8F15219   7.084   1.185   7.187  0.1207 -0.5742  1.3929
  139OSM    H8G15220   6.959   1.255   7.085 -0.5002  0.0007  0.6410
  139OSM    C9F15221   6.942   1.310   7.285  0.0817 -0.2365  0.1857
  139OSM    H9F15222   6.839   1.336   7.258 -0.1569  0.0416  1.3160
  139OSM   C10F15223   6.976   1.307   7.417  0.0371 -0.3431  0.7516
  139OSM   H10F15224   6.897   1.339   7.487 -1.0919 -1.2856 -0.0609
  139OSM   C11F15225   7.110   1.266   7.473 -0.1009  0.0325 -0.0111
  139OSM   H11F15226   7.179   1.248   7.388  0.0483 -1.5902  0.4298
  139OSM   H11G15227   7.089   1.174   7.532 -3.2401  0.1222 -0.7984
  139OSM   C12F15228   7.187   1.364   7.567  0.2187 -0.3852  0.0502
  139OSM   H12F15229   7.196   1.458   7.509 -0.5064 -0.1444  0.3235
  139OSM   H12G15230   7.287   1.319   7.583 -1.5432 -3.8897  2.6319
  139OSM   C13F15231   7.118   1.374   7.704 -0.1321 -0.3139  0.3824
  139OSM   H13F15232   7.124   1.277   7.759 -3.2113 -1.0289 -0.3379
  139OSM   H13G15233   7.011   1.392   7.681 -0.0188  1.5206  1.1259
  139OSM   C14F15234   7.165   1.490   7.781 -0.2758 -0.6944 -0.7284
  139OSM   H14F15235   7.162   1.587   7.727  2.0212 -0.7632 -1.0719
  139OSM   H14G15236   7.271   1.478   7.814 -0.9057 -0.9477  1.3574
  139OSM   C15F15237   7.088   1.501   7.917 -0.2078 -0.1943  0.2903
  139OSM   H15F15238   7.075   1.407   7.975 -1.7627  1.2102  2.3156
  139OSM   H15G15239   6.985   1.538   7.898  0.8474  1.3775 -3.3844
  139OSM   C16F15240   7.171   1.603   8.007 -0.9472  0.5023  0.3421
  139OSM   H16F15241   7.154   1.706   7.968  3.1436  1.2358  0.1215
  139OSM   H16G15242   7.277   1.575   7.992 -1.8049 -2.4059 -1.0153
  139OSM   C17F15243   7.129   1.593   8.153 -0.5565 -0.1722  0.4747
  139OSM   H17F15244   7.036   1.535   8.166 -2.5479  2.7535  0.3865
  139OSM   H17G15245   7.100   1.698   8.178 -0.1383  0.7607 -2.5290
  139OSM   C18F15246   7.233   1.538   8.250  0.7499  0.8054 -0.3800
  139OSM   H18F15247   7.332   1.589   8.244  2.2320 -1.4175  2.3915
  139OSM   H18G15248   7.249   1.429   8.235 -1.2842  0.5367 -0.8449
  139OSM   H18H15249   7.195   1.556   8.353  1.4442  0.5477 -0.0672
  140OSM      N15250   1.346   3.594   6.334 -0.5406 -0.4430 -0.2047
  140OSM    C1515251   1.481   3.524   6.314 -0.1412  0.0900  0.3975
  140OSM   H15A15252   1.553   3.596   6.278  0.3803  0.0944  1.4053
  140OSM   H15B15253   1.469   3.441   6.246 -1.8241  0.3967  0.2800
  140OSM   H15C15254   1.525   3.480   6.402 -1.8590 -0.3171  1.1017
  140OSM    C1415255   1.324   3.684   6.216  0.2281  0.5691  0.2199
  140OSM   H14A15256   1.233   3.741   6.231 -1.5533 -2.0080  0.0646
  140OSM   H14B15257   1.315   3.624   6.126  1.8788  0.6826 -0.0378
  140OSM   H14C15258   1.405   3.751   6.193 -0.9579  1.6375 -1.0486
  140OSM    C1315259   1.245   3.488   6.356 -0.1194 -0.1573 -0.0219
  140OSM   H13A15260   1.236   3.424   6.270 -2.8420 -0.1674  0.1851
  140OSM   H13B15261   1.146   3.526   6.375 -0.6632 -1.2527 -0.5422
  140OSM   H13C15262   1.277   3.412   6.426  1.3912 -0.1128 -0.6297
  140OSM    C1215263   1.361   3.687   6.457  0.4903  0.1622  0.5733
  140OSM   H12A15264   1.421   3.775   6.437  1.2003 -0.4015  0.2133
  140OSM   H12B15265   1.402   3.617   6.527 -1.7592 -0.0469  1.7818
  140OSM    C1115266   1.219   3.735   6.513 -0.0053  0.9226 -0.4642
  140OSM   H11A15267   1.259   3.793   6.599  2.4595 -0.4113 -0.6101
  140OSM   H11B15268   1.156   3.652   6.552 -0.1268  1.5258  0.6409
  140OSM      P15269   1.000   3.785   6.370 -0.2203  0.0233 -0.0695
  140OSM    O1315270   0.977   3.885   6.263 -1.0548 -0.0430 -0.5211
  140OSM    O1415271   1.002   3.641   6.326  0.3961  0.0632 -0.2796
  140OSM    O1115272   0.890   3.803   6.496 -0.0474 -0.1508  0.0393
  140OSM    O1215273   1.138   3.823   6.435 -0.7181 -0.0973 -0.0845
  140OSM    C1S15274   0.883   3.929   6.571 -0.8734 -0.8196  0.3959
  140OSM    H1S15275   0.819   3.999   6.515 -0.7233 -2.0916 -1.4617
  140OSM    H1T15276   0.980   3.984   6.575 -1.4750  0.1861  1.6838
  140OSM     NF15277   0.843   4.047   6.777 -0.0513 -0.1433 -0.9887
  140OSM    HNF15278   0.920   4.075   6.834 -0.3969 -1.7362  0.3134
  140OSM    C2S15279   0.841   3.914   6.719  0.1658 -0.0520  0.2627
  140OSM    H2S15280   0.741   3.865   6.722  0.1154 -0.6122 -3.9275
  140OSM    C3S15281   0.931   3.814   6.798 -0.9258  0.6924  0.9192
  140OSM    H3S15282   1.031   3.862   6.799 -1.3986  1.7494  2.9284
  140OSM     O315283   0.962   3.692   6.729 -0.0237 -0.3942  0.2470
  140OSM    HO315284   0.955   3.712   6.635  1.3948 -1.2060 -0.0626
  140OSM    C4S15285   0.896   3.795   6.943  0.2914  0.2671 -0.6223
  140OSM    H4S15286   0.945   3.864   7.013 -0.5091  1.2993 -1.0462
  140OSM    C5S15287   0.814   3.694   6.985 -0.3620  0.0702 -0.6620
  140OSM    H5S15288   0.765   3.624   6.916  0.0807  0.2007 -1.1095
  140OSM    C6S15289   0.775   3.682   7.131 -0.1447 -0.3648  0.2414
  140OSM    H6S15290   0.835   3.599   7.173 -0.8380 -0.4772  1.0576
  140OSM    H6T15291   0.666   3.656   7.134  0.1165 -1.4892  0.4495
  140OSM    C7S15292   0.798   3.802   7.233  0.2689  0.5210  0.6679
  140OSM    H7S15293   0.715   3.872   7.210  0.0796  0.1760  0.3007
  140OSM    H7T15294   0.899   3.849   7.224  1.3226 -1.8524 -0.9659
  140OSM    C8S15295   0.776   3.765   7.381  0.3459  0.2819 -0.7846
  140OSM    H8S15296   0.834   3.673   7.399  0.8344  0.9109  1.0409
  140OSM    H8T15297   0.671   3.730   7.389  0.4977 -0.3352 -1.3908
  140OSM    C9S15298   0.813   3.873   7.479 -0.6675 -0.2335 -0.6877
  140OSM    H9S15299   0.754   3.963   7.451  0.9568  1.0113 -0.3398
  140OSM    H9T15300   0.919   3.904   7.464 -0.5543 -1.5782 -3.2504
  140OSM   C10S15301   0.799   3.845   7.633 -0.1199 -0.1193 -0.0878
  140OSM   H10S15302   0.880   3.776   7.665 -1.6132 -2.3822 -0.9362
  140OSM   H10T15303   0.705   3.795   7.662 -0.6890 -0.1887 -1.9102
  140OSM   C11S15304   0.817   3.968   7.722 -0.4106  0.1179  0.5689
  140OSM   H11S15305   0.730   4.034   7.702  0.7571  1.3171 -0.7861
  140OSM   H11T15306   0.903   4.034   7.701 -0.5568  0.4617  1.0234
  140OSM   C12S15307   0.832   3.935   7.875 -0.1529  0.1252  0.2015
  140OSM   H12S15308   0.852   4.025   7.937  1.2568 -0.1252  0.1435
  140OSM   H12T15309   0.913   3.859   7.880 -2.0938 -2.0187  0.7576
  140OSM   C13S15310   0.699   3.883   7.933  0.5628 -0.3875  0.2470
  140OSM   H13S15311   0.698   3.782   7.887  1.8613 -0.0489 -0.5902
  140OSM   H13T15312   0.613   3.950   7.910  0.5955 -0.2917  0.4079
  140OSM   C14S15313   0.699   3.863   8.081 -0.1420 -0.6810  0.4539
  140OSM   H14S15314   0.717   3.957   8.137  5.0481 -1.2792  0.3266
  140OSM   H14T15315   0.791   3.808   8.110 -0.9413 -2.1858  0.2451
  140OSM   C15S15316   0.580   3.786   8.142  0.3313 -0.7043  1.0243
  140OSM   H15S15317   0.574   3.681   8.105  0.2550 -0.7253  1.0973
  140OSM   H15T15318   0.489   3.836   8.102 -0.4921 -2.3719  0.7475
  140OSM   C16S15319   0.592   3.797   8.292 -0.4860 -0.2115 -0.5412
  140OSM   H16S15320   0.686   3.747   8.324 -0.7757 -0.2511  0.2741
  140OSM   H16T15321   0.518   3.722   8.329  2.6342 -2.9418  0.7127
  140OSM   C17S15322   0.555   3.933   8.350 -0.5603 -0.0108 -0.7387
  140OSM   H17S15323   0.476   3.978   8.286 -0.0934  0.4316 -1.0051
  140OSM   H17T15324   0.637   4.007   8.354  0.1146 -0.7951  0.2752
  140OSM   C18S15325   0.481   3.920   8.485 -0.0343 -0.1928  0.3809
  140OSM   H18S15326   0.545   3.880   8.566  0.2880  1.0675  0.7820
  140OSM   H18T15327   0.388   3.862   8.470  0.0851 -0.3915  0.4130
  140OSM   H18U15328   0.451   4.021   8.520 -0.6053 -0.3914  0.4709
  140OSM    C1F15329   0.765   4.160   6.755 -0.2355 -0.0103  0.3839
  140OSM     OF15330   0.658   4.145   6.695 -0.5350  0.3010  0.3910
  140OSM    C2F15331   0.808   4.287   6.813  0.4472  0.0135 -0.6217
  140OSM    H2F15332   0.751   4.368   6.764 -0.5960  1.3395  2.5322
  140OSM    H2G15333   0.912   4.310   6.781  1.0951 -1.5994  0.1960
  140OSM    C3F15334   0.763   4.302   6.960  1.0363  0.2416  0.6001
  140OSM    H3F15335   0.663   4.255   6.968  0.5907  1.0032 -0.3140
  140OSM    H3G15336   0.755   4.410   6.984 -0.7446  0.1866  0.3714
  140OSM    C4F15337   0.863   4.236   7.054 -0.2932 -0.4165 -0.0996
  140OSM    H4F15338   0.948   4.297   7.091 -0.5387  0.5951 -1.1166
  140OSM    H4G15339   0.905   4.139   7.022 -0.1962  0.3465 -2.5492
  140OSM    C5F15340   0.779   4.180   7.172 -0.4416 -1.0998 -0.4190
  140OSM    H5F15341   0.851   4.115   7.227  0.2026 -0.3364 -0.3343
  140OSM    H5G15342   0.697   4.114   7.138  0.2933 -0.4462 -3.7966
  140OSM    C6F15343   0.715   4.282   7.270  1.2529 -0.8028 -0.4696
  140OSM    H6F15344   0.609   4.253   7.290  1.2556 -0.9711 -0.6983
  140OSM    H6G15345   0.706   4.385   7.229  0.4727  0.4339  2.5226
  140OSM    C7F15346   0.780   4.294   7.406  0.7272 -1.0868  0.0172
  140OSM    H7F15347   0.882   4.332   7.386  1.0265 -1.9412 -0.1318
  140OSM    H7G15348   0.788   4.195   7.455  1.2278 -2.5932 -2.9029
  140OSM    C8F15349   0.699   4.388   7.504 -0.5734 -0.4362  0.1688
  140OSM    H8F15350   0.655   4.472   7.446 -1.2859 -0.6639  0.3606
  140OSM    H8G15351   0.778   4.436   7.565 -0.4252  1.1386 -1.1836
  140OSM    C9F15352   0.592   4.315   7.577  0.5491 -0.0979 -0.1587
  140OSM    H9F15353   0.522   4.260   7.512 -0.3738  1.4733 -0.5454
  140OSM   C10F15354   0.559   4.314   7.708 -0.2838  0.2722 -0.1059
  140OSM   H10F15355   0.482   4.244   7.743  0.3840 -1.3471 -1.6879
  140OSM   C11F15356   0.632   4.391   7.811 -0.4877 -0.4074  0.0990
  140OSM   H11F15357   0.581   4.488   7.826 -0.5266 -0.5006  0.5952
  140OSM   H11G15358   0.735   4.411   7.775 -1.2371 -1.0933 -2.6039
  140OSM   C12F15359   0.632   4.315   7.947  0.3727 -0.0192  0.5032
  140OSM   H12F15360   0.701   4.229   7.935 -1.5069 -1.4334 -0.7211
  140OSM   H12G15361   0.526   4.288   7.965  0.0901 -0.3271 -1.4683
  140OSM   C13F15362   0.677   4.418   8.058  0.3797  0.2414  0.4758
  140OSM   H13F15363   0.617   4.512   8.054 -1.2854 -0.6964  2.0346
  140OSM   H13G15364   0.782   4.452   8.051  0.6756 -0.9347 -1.9158
  140OSM   C14F15365   0.676   4.359   8.203 -0.1611  0.2380  0.4597
  140OSM   H14F15366   0.758   4.402   8.264 -2.2394  0.5442  3.2937
  140OSM   H14G15367   0.694   4.249   8.213  0.7278  0.5367  3.0423
  140OSM   C15F15368   0.539   4.398   8.270  0.2077  0.1712 -0.2866
  140OSM   H15F15369   0.455   4.354   8.213 -1.0270  2.5618 -0.4373
  140OSM   H15G15370   0.520   4.507   8.273 -2.6708 -0.2647  1.9388
  140OSM   C16F15371   0.545   4.351   8.412 -0.0119 -0.0600  1.0859
  140OSM   H16F15372   0.629   4.399   8.467 -0.0048  1.0540  0.1390
  140OSM   H16G15373   0.555   4.241   8.416 -1.0651 -0.1553  1.4220
  140OSM   C17F15374   0.421   4.382   8.497 -0.2062  0.0945  0.0398
  140OSM   H17F15375   0.336   4.325   8.453  0.3906 -2.1574  1.5963
  140OSM   H17G15376   0.402   4.489   8.475  0.1647  0.8209  2.8708
  140OSM   C18F15377   0.439   4.342   8.647 -0.0392 -0.4390 -0.6574
  140OSM   H18F15378   0.524   4.404   8.681 -0.3530 -0.6927  0.6156
  140OSM   H18G15379   0.474   4.238   8.659  0.9860  0.0392  0.6749
  140OSM   H18H15380   0.346   4.355   8.706  0.5415 -1.4597  0.5071
  141OSM      N15381   6.710   5.074   6.163 -0.4893 -0.4796 -0.1297
  141OSM    C1515382   6.778   5.072   6.299  0.1608 -0.2942  0.2162
  141OSM   H15A15383   6.777   4.970   6.336 -3.2907 -0.4808 -0.1131
  141OSM   H15B15384   6.731   5.140   6.368  1.1309  0.2699  0.3454
  141OSM   H15C15385   6.880   5.106   6.290 -0.1862  0.3037 -2.3075
  141OSM    C1415386   6.722   5.207   6.100 -0.5195 -0.8135 -0.2578
  141OSM   H14A15387   6.642   5.229   6.030  1.5336  3.5698 -1.5493
  141OSM   H14B15388   6.811   5.216   6.040  0.3785 -0.9670  1.0282
  141OSM   H14C15389   6.706   5.285   6.172 -2.4734 -1.2227 -0.1921
  141OSM    C1315390   6.767   4.970   6.072  0.2004  0.5205 -0.3624
  141OSM   H13A15391   6.860   5.001   6.027  0.7800 -0.0784  0.3914
  141OSM   H13B15392   6.695   4.954   5.993  1.3714 -0.4059 -1.2830
  141OSM   H13C15393   6.783   4.874   6.119  2.3511  0.6642 -0.6989
  141OSM    C1215394   6.559   5.042   6.193  0.3481 -0.2141  0.3216
  141OSM   H12A15395   6.529   5.127   6.253 -0.8003 -0.2461 -0.1827
  141OSM   H12B15396   6.550   4.952   6.251  0.9541 -1.3074 -1.2041
  141OSM    C1115397   6.452   5.030   6.080 -0.6336  0.1852 -0.5690
  141OSM   H11A15398   6.359   4.983   6.121 -1.2144  2.0690  0.3834
  141OSM   H11B15399   6.497   4.970   5.998  0.3736 -0.2472  0.2780
  141OSM      P15400   6.338   5.265   6.084 -0.0663  0.1841 -0.3887
  141OSM    O1315401   6.383   5.397   6.035  0.4731  0.6132 -0.1799
  141OSM    O1415402   6.202   5.216   6.066 -0.5000  0.3704  0.8232
  141OSM    O1115403   6.370   5.255   6.234  0.2661 -0.0499  0.8231
  141OSM    O1215404   6.436   5.160   6.031  0.0583 -0.0385  0.2145
  141OSM    C1S15405   6.421   5.356   6.313 -0.0253  0.0844 -0.0569
  141OSM    H1S15406   6.370   5.450   6.284  1.0986  0.1005 -2.1758
  141OSM    H1T15407   6.527   5.378   6.286  0.4920  0.2294  1.9239
  141OSM     NF15408   6.465   5.436   6.545 -0.5233 -0.1518 -0.6978
  141OSM    HNF15409   6.545   5.400   6.592 -2.0593 -1.0956  1.3760
  141OSM    C2S15410   6.399   5.327   6.466 -0.0063  0.0392  0.5591
  141OSM    H2S15411   6.288   5.331   6.470 -0.0250  2.2047 -0.6508
  141OSM    C3S15412   6.434   5.187   6.506 -0.0215 -0.1934 -0.3664
  141OSM    H3S15413   6.540   5.162   6.483  1.3448  2.2828  2.5166
  141OSM     O315414   6.354   5.091   6.434 -0.3591 -0.3644 -0.4549
  141OSM    HO315415   6.315   5.137   6.359 -0.0314  1.3491  0.3857
  141OSM    C4S15416   6.406   5.163   6.651 -0.2861 -0.6887 -0.6466
  141OSM    H4S15417   6.307   5.200   6.682  0.2250  0.4748 -0.3360
  141OSM    C5S15418   6.498   5.139   6.747  0.9021  0.5492 -0.3814
  141OSM    H5S15419   6.603   5.133   6.715  1.4239  2.8563  0.7225
  141OSM    C6S15420   6.466   5.127   6.893  0.4206 -0.0951 -0.5756
  141OSM    H6S15421   6.538   5.187   6.953  1.9197  1.7238 -3.9493
  141OSM    H6T15422   6.488   5.025   6.930  1.9919  1.3281  2.8799
  141OSM    C7S15423   6.320   5.162   6.933 -0.1309  0.2991  0.1982
  141OSM    H7S15424   6.253   5.102   6.867  0.2905  1.9114 -1.8310
  141OSM    H7T15425   6.290   5.267   6.911 -1.8211 -0.6232 -2.5019
  141OSM    C8S15426   6.294   5.136   7.079  0.1157  0.4953 -0.6142
  141OSM    H8S15427   6.363   5.201   7.138  0.6431  0.0244 -0.7096
  141OSM    H8T15428   6.319   5.029   7.092 -3.5315 -0.4432 -0.3503
  141OSM    C9S15429   6.146   5.166   7.114  0.2242  0.7149 -0.2875
  141OSM    H9S15430   6.073   5.095   7.071  2.1333 -0.4534 -1.7316
  141OSM    H9T15431   6.126   5.270   7.080  2.0384  0.2243 -3.1734
  141OSM   C10S15432   6.129   5.175   7.270 -0.2475  0.9388 -0.0442
  141OSM   H10S15433   6.202   5.250   7.307 -0.6724  1.3343 -0.0034
  141OSM   H10T15434   6.153   5.073   7.308  0.3695  1.3157  0.5928
  141OSM   C11S15435   5.987   5.221   7.303  0.8604 -0.8462 -0.2517
  141OSM   H11S15436   5.916   5.138   7.282  1.9977 -1.3407 -2.4334
  141OSM   H11T15437   5.959   5.315   7.251  2.3883 -0.1484  0.1269
  141OSM   C12S15438   5.969   5.243   7.455  0.2996 -0.2978  1.4124
  141OSM   H12S15439   5.873   5.298   7.458  0.4253  0.5580 -3.0979
  141OSM   H12T15440   6.057   5.300   7.492 -0.3343  0.5498  1.6542
  141OSM   C13S15441   5.971   5.107   7.530  0.4817  0.0993 -0.0481
  141OSM   H13S15442   6.079   5.083   7.534  1.0141  2.2943  0.2427
  141OSM   H13T15443   5.905   5.031   7.482  1.3080  0.6148 -2.1010
  141OSM   C14S15444   5.912   5.122   7.670 -0.3829  0.1218  0.5040
  141OSM   H14S15445   5.969   5.208   7.713 -2.2727  1.9423 -0.4438
  141OSM   H14T15446   5.933   5.026   7.722 -0.5444  1.3228  2.9103
  141OSM   C15S15447   5.762   5.147   7.680  0.0487  0.1820 -1.2578
  141OSM   H15S15448   5.697   5.080   7.619 -0.2485  0.2139 -0.9799
  141OSM   H15T15449   5.729   5.249   7.650 -1.4814 -0.1420 -0.7795
  141OSM   C16S15450   5.729   5.116   7.828  0.9479 -0.4381 -0.0221
  141OSM   H16S15451   5.806   5.160   7.894  1.8708  0.0150 -1.3708
  141OSM   H16T15452   5.734   5.009   7.858  0.5529 -0.6756 -0.7835
  141OSM   C17S15453   5.585   5.160   7.866 -0.1056  0.4839 -0.3347
  141OSM   H17S15454   5.503   5.116   7.806 -1.0301  0.8494  0.6323
  141OSM   H17T15455   5.586   5.271   7.854 -0.2994  0.5654  0.3655
  141OSM   C18S15456   5.568   5.133   8.010  0.2577 -0.5605  0.1290
  141OSM   H18S15457   5.469   5.159   8.053  0.4520 -3.2657  2.5916
  141OSM   H18T15458   5.649   5.170   8.077  2.4511 -2.3168 -1.3731
  141OSM   H18U15459   5.571   5.024   8.032  1.2047 -0.4069  0.8204
  141OSM    C1F15460   6.447   5.573   6.539 -0.6419  0.4221  0.4611
  141OSM     OF15461   6.364   5.618   6.460  0.2390 -0.0556  0.2174
  141OSM    C2F15462   6.528   5.663   6.627 -0.4444  0.1650 -0.1894
  141OSM    H2F15463   6.462   5.745   6.662 -0.7900  0.0332 -0.5326
  141OSM    H2G15464   6.618   5.690   6.568  1.4303 -1.7105  1.5958
  141OSM    C3F15465   6.574   5.597   6.759  0.1298  0.0192 -0.8183
  141OSM    H3F15466   6.653   5.525   6.729  0.2054  0.4645 -1.7373
  141OSM    H3G15467   6.492   5.545   6.812  0.8447 -2.1010 -1.6805
  141OSM    C4F15468   6.646   5.691   6.858 -0.0841 -0.7123 -0.8069
  141OSM    H4F15469   6.581   5.779   6.877  1.6078  0.6117 -0.8685
  141OSM    H4G15470   6.741   5.724   6.811 -0.0215 -1.4946 -1.2495
  141OSM    C5F15471   6.686   5.632   6.995 -1.1866 -0.0159  0.3480
  141OSM    H5F15472   6.674   5.521   6.993  2.7625 -0.5935  0.2579
  141OSM    H5G15473   6.612   5.665   7.071 -0.6909  0.3946  0.6577
  141OSM    C6F15474   6.826   5.663   7.048  0.4524 -0.0945  0.0937
  141OSM    H6F15475   6.895   5.676   6.961 -0.5769  1.6920 -0.5014
  141OSM    H6G15476   6.872   5.586   7.114  1.0485 -1.5046 -1.8514
  141OSM    C7F15477   6.825   5.802   7.126 -0.1977 -0.0080  0.4741
  141OSM    H7F15478   6.743   5.802   7.201 -0.5041  0.4597  0.1455
  141OSM    H7G15479   6.790   5.882   7.057 -1.8948 -0.1529  1.1281
  141OSM    C8F15480   6.963   5.830   7.192  0.6186 -0.4075 -0.3013
  141OSM    H8F15481   7.037   5.818   7.110 -0.5216 -0.3224 -1.3808
  141OSM    H8G15482   6.984   5.759   7.274 -0.5302  0.5177  0.8278
  141OSM    C9F15483   6.973   5.978   7.237  0.0003  0.0787 -0.0473
  141OSM    H9F15484   6.925   6.060   7.183 -0.1127  1.2564  1.7678
  141OSM   C10F15485   7.016   6.012   7.359  0.5447  0.0249  0.1390
  141OSM   H10F15486   7.006   6.114   7.397 -1.3543 -0.2034  0.3339
  141OSM   C11F15487   7.059   5.916   7.465 -0.1165  0.4273 -0.3591
  141OSM   H11F15488   7.151   5.860   7.440 -1.2509 -2.7230  1.8531
  141OSM   H11G15489   6.991   5.829   7.481 -0.9322  0.9168 -1.0504
  141OSM   C12F15490   7.083   5.978   7.603  0.5913 -0.3304 -0.2417
  141OSM   H12F15491   6.982   6.006   7.639 -0.0567  3.6524 -4.2187
  141OSM   H12G15492   7.147   6.069   7.603 -0.0186  0.1072 -0.0108
  141OSM   C13F15493   7.135   5.871   7.704 -0.7234  0.1633 -0.2739
  141OSM   H13F15494   7.220   5.816   7.659  0.3333  0.8737  0.7919
  141OSM   H13G15495   7.055   5.801   7.736 -0.1214  0.2800  1.6278
  141OSM   C14F15496   7.194   5.949   7.822 -0.1668  1.0909 -0.7297
  141OSM   H14F15497   7.113   6.004   7.875  0.0987  0.4369  0.3934
  141OSM   H14G15498   7.266   6.021   7.779  0.1194 -0.5563 -3.2228
  141OSM   C15F15499   7.261   5.864   7.925  0.2840  0.3405  0.1808
  141OSM   H15F15500   7.348   5.809   7.883 -0.7999 -2.5661  1.5309
  141OSM   H15G15501   7.193   5.785   7.963  0.9758 -0.5805 -0.4503
  141OSM   C16F15502   7.305   5.941   8.050 -0.6846 -1.0082  0.4095
  141OSM   H16F15503   7.214   5.969   8.107 -1.0987 -1.2961 -0.0998
  141OSM   H16G15504   7.364   6.030   8.018 -2.2977  0.3917  1.1810
  141OSM   C17F15505   7.391   5.865   8.153 -0.4433 -0.5045  0.8640
  141OSM   H17F15506   7.471   5.935   8.185  1.9181 -2.1769 -1.0009
  141OSM   H17G15507   7.445   5.779   8.108 -0.3855 -0.6351  1.1841
  141OSM   C18F15508   7.319   5.826   8.283  0.3752  0.4067  0.5467
  141OSM   H18F15509   7.291   5.919   8.338 -0.5017 -0.1890  1.1317
  141OSM   H18G15510   7.384   5.765   8.350 -1.2031  0.6925  2.4356
  141OSM   H18H15511   7.220   5.777   8.270  1.1493 -0.8624 -0.8445
  142OSM      N15512   0.169   0.036   6.388  0.5775 -0.0586  0.7536
  142OSM    C1515513   0.147  -0.111   6.389 -0.2185  0.2568 -0.4033
  142OSM   H15A15514   0.127  -0.146   6.288  1.4805  0.4828 -0.8510
  142OSM   H15B15515   0.059  -0.143   6.443 -0.7599 -0.5013 -1.6718
  142OSM   H15C15516   0.230  -0.169   6.426 -0.7134 -0.6995 -0.7574
  142OSM    C1415517   0.250   0.061   6.261 -0.2103  0.3208 -0.5346
  142OSM   H14A15518   0.340   0.008   6.290 -1.1241 -0.7155  0.5682
  142OSM   H14B15519   0.266   0.167   6.252 -0.3504  0.2942 -1.0998
  142OSM   H14C15520   0.194   0.013   6.182 -2.1837  2.0452 -0.2699
  142OSM    C1315521   0.031   0.096   6.377 -0.9032 -0.1306  0.0811
  142OSM   H13A15522  -0.029   0.060   6.295 -0.3362 -0.0749 -0.3645
  142OSM   H13B15523   0.032   0.204   6.373 -2.7094 -0.0643  0.4097
  142OSM   H13C15524  -0.019   0.071   6.470  0.4530 -0.2431  0.8116
  142OSM    C1215525   0.240   0.079   6.513 -0.4624  0.0608 -0.3555
  142OSM   H12A15526   0.333   0.025   6.505 -1.1677 -1.4072  0.8998
  142OSM   H12B15527   0.194   0.041   6.603  1.9093 -1.2912  0.3748
  142OSM    C1115528   0.271   0.234   6.526 -0.1057 -1.0637 -0.4146
  142OSM   H11A15529   0.295   0.269   6.628 -1.7092  1.5235 -0.8191
  142OSM   H11B15530   0.187   0.300   6.496  2.2906  1.1169 -2.8306
  142OSM      P15531   0.531   0.223   6.444 -0.0965  0.6304  0.0668
  142OSM    O1315532   0.539   0.079   6.410 -0.0108  0.1897 -0.2471
  142OSM    O1415533   0.618   0.317   6.368  0.4804 -0.1634 -0.1594
  142OSM    O1115534   0.559   0.237   6.596 -0.1741  0.3292 -0.0254
  142OSM    O1215535   0.380   0.270   6.440 -0.0550  0.4423 -0.0961
  142OSM    C1S15536   0.687   0.192   6.652 -0.6771  0.1203 -0.1975
  142OSM    H1S15537   0.757   0.277   6.641 -0.0882 -0.3624 -0.2267
  142OSM    H1T15538   0.731   0.099   6.611  0.1016 -0.0123  0.9032
  142OSM     NF15539   0.800   0.133   6.861 -0.1744  0.7198  0.1910
  142OSM    HNF15540   0.829   0.039   6.879  0.4076  0.9011  0.2351
  142OSM    C2S15541   0.671   0.153   6.804 -0.2271 -0.5423  0.4397
  142OSM    H2S15542   0.623   0.243   6.848  2.8552  2.6556 -2.1798
  142OSM    C3S15543   0.577   0.033   6.820 -0.4098 -0.0487  0.1030
  142OSM    H3S15544   0.619  -0.054   6.766 -1.5456  0.2187 -1.3010
  142OSM     O315545   0.440   0.050   6.768 -0.3538 -0.4934 -0.1096
  142OSM    HO315546   0.441   0.131   6.718  0.2755 -1.2488 -1.3522
  142OSM    C4S15547   0.567   0.003   6.969 -0.1589  0.2507  0.2592
  142OSM    H4S15548   0.640  -0.070   7.008 -1.4638 -0.7045  0.9920
  142OSM    C5S15549   0.480   0.049   7.059 -0.8920  0.5625  0.7329
  142OSM    H5S15550   0.399   0.116   7.029 -1.9706 -1.0130  0.0471
  142OSM    C6S15551   0.480   0.002   7.204 -0.7217  0.4185 -0.5155
  142OSM    H6S15552   0.403  -0.077   7.217  0.4037 -0.7986 -1.0594
  142OSM    H6T15553   0.457   0.088   7.272  0.6267  0.2923  0.1483
  142OSM    C7S15554   0.617  -0.043   7.269  0.4506  0.3109 -0.6691
  142OSM    H7S15555   0.691   0.039   7.259  1.9342 -0.8879  0.1094
  142OSM    H7T15556   0.654  -0.130   7.211 -1.5400  0.8291 -2.8729
  142OSM    C8S15557   0.610  -0.084   7.423 -0.1575  0.0849 -0.2320
  142OSM    H8S15558   0.639  -0.190   7.436  1.5041  0.7509  2.3308
  142OSM    H8T15559   0.503  -0.096   7.452 -1.2691  1.5453 -3.3416
  142OSM    C9S15560   0.698   0.005   7.514 -0.0755 -0.0880 -0.0247
  142OSM    H9S15561   0.661   0.109   7.517  3.1357  1.1383  1.7686
  142OSM    H9T15562   0.797   0.016   7.465 -0.3347 -0.6431 -0.7082
  142OSM   C10S15563   0.724  -0.041   7.662 -0.5471  0.2958 -0.1346
  142OSM   H10S15564   0.810   0.019   7.698 -0.0487 -0.0841 -0.6761
  142OSM   H10T15565   0.749  -0.148   7.672  3.3550  1.1936  1.2599
  142OSM   C11S15566   0.603  -0.008   7.757  0.2657 -0.5135  0.9686
  142OSM   H11S15567   0.537  -0.098   7.756 -0.4333 -0.0858 -2.3291
  142OSM   H11T15568   0.546   0.073   7.706  1.1687 -0.6630 -0.3051
  142OSM   C12S15569   0.642   0.040   7.890 -0.1865  0.1602 -0.0183
  142OSM   H12S15570   0.679   0.144   7.885 -1.3837  0.7165  1.5865
  142OSM   H12T15571   0.725  -0.020   7.933  2.1013  1.5408 -2.2724
  142OSM   C13S15572   0.525   0.063   7.988  0.4060 -0.1402 -0.3914
  142OSM   H13S15573   0.471  -0.033   8.006  0.9518 -0.0345  2.1847
  142OSM   H13T15574   0.450   0.139   7.958 -2.9094 -2.4824  1.2568
  142OSM   C14S15575   0.586   0.103   8.122 -0.1752 -0.3819 -1.4833
  142OSM   H14S15576   0.640   0.199   8.119 -0.0649 -0.2278  1.9833
  142OSM   H14T15577   0.658   0.029   8.164 -2.7030 -1.1553  1.8910
  142OSM   C15S15578   0.483   0.140   8.232 -0.1887 -0.4620 -0.3814
  142OSM   H15S15579   0.420   0.052   8.254  1.4111 -2.1531 -2.1064
  142OSM   H15T15580   0.418   0.212   8.177  1.5597  0.4266 -1.3774
  142OSM   C16S15581   0.541   0.195   8.361 -0.4915 -0.2307 -1.3571
  142OSM   H16S15582   0.467   0.241   8.430 -0.3745 -2.7936  0.6055
  142OSM   H16T15583   0.616   0.273   8.333  0.1535 -0.6200 -0.7538
  142OSM   C17S15584   0.607   0.089   8.448 -0.0543 -0.6097 -0.1262
  142OSM   H17S15585   0.704   0.067   8.398 -0.9255 -1.2627 -1.5833
  142OSM   H17T15586   0.552  -0.008   8.443 -2.4186  0.7096 -1.1176
  142OSM   C18S15587   0.627   0.138   8.597 -0.6360 -0.0439  0.3872
  142OSM   H18S15588   0.706   0.213   8.618  1.6844 -2.1202 -0.4866
  142OSM   H18T15589   0.649   0.046   8.655 -1.7125 -2.1663 -2.3571
  142OSM   H18U15590   0.528   0.176   8.630 -1.5065  0.1929 -2.2080
  142OSM    C1F15591   0.896   0.226   6.861 -0.6341 -0.4111  0.9350
  142OSM     OF15592   0.875   0.345   6.839 -0.1740  0.3686 -0.1713
  142OSM    C2F15593   1.033   0.181   6.896  0.5411  0.0406  0.0060
  142OSM    H2F15594   1.095   0.177   6.803  1.5097  0.7253  0.6041
  142OSM    H2G15595   1.023   0.087   6.954 -0.2575  1.3645  2.1256
  142OSM    C3F15596   1.117   0.290   6.977 -0.3634 -0.0681  0.6973
  142OSM    H3F15597   1.063   0.342   7.059 -0.1443  2.7232 -0.7956
  142OSM    H3G15598   1.129   0.370   6.901 -1.6948  1.4463  2.0192
  142OSM    C4F15599   1.255   0.227   7.014  0.6406 -0.7357  0.6341
  142OSM    H4F15600   1.320   0.310   7.047 -1.2356  2.1939 -2.4099
  142OSM    H4G15601   1.294   0.188   6.918 -2.7753  0.1617 -1.3124
  142OSM    C5F15602   1.262   0.121   7.132 -0.1089 -0.0998  0.6332
  142OSM    H5F15603   1.366   0.101   7.166 -0.4624 -1.1768  1.1516
  142OSM    H5G15604   1.230   0.025   7.086 -0.6054  0.3788 -0.0222
  142OSM    C6F15605   1.161   0.150   7.251 -0.3246 -0.0950  0.1481
  142OSM    H6F15606   1.062   0.154   7.201  0.7416  1.1351 -1.9938
  142OSM    H6G15607   1.184   0.254   7.282 -0.4867 -0.0374  0.0797
  142OSM    C7F15608   1.171   0.044   7.356  0.0447  0.7304  0.3493
  142OSM    H7F15609   1.249  -0.032   7.337  0.3750  0.8482  1.1882
  142OSM    H7G15610   1.075  -0.013   7.355 -0.5615  1.7452 -0.4207
  142OSM    C8F15611   1.200   0.086   7.500  0.4282 -0.0388  0.2491
  142OSM    H8F15612   1.302   0.130   7.500  0.8974 -1.0415 -1.2652
  142OSM    H8G15613   1.201  -0.005   7.563  0.3384 -0.2296 -0.0213
  142OSM    C9F15614   1.104   0.185   7.562 -0.4962 -0.4005 -0.1261
  142OSM    H9F15615   1.042   0.239   7.489  0.3693  0.9481  0.1084
  142OSM   C10F15616   1.098   0.213   7.687  0.7140 -0.1471 -0.1940
  142OSM   H10F15617   1.012   0.275   7.717  1.1858  0.5983 -0.3502
  142OSM   C11F15618   1.184   0.146   7.791 -0.0500 -0.3408 -0.3235
  142OSM   H11F15619   1.255   0.067   7.758 -0.6137 -0.8741 -0.2581
  142OSM   H11G15620   1.117   0.107   7.870  3.6454 -2.1374  2.2491
  142OSM   C12F15621   1.279   0.251   7.865  0.0226  0.7343 -0.4476
  142OSM   H12F15622   1.219   0.326   7.921  1.5300  0.5743  1.5094
  142OSM   H12G15623   1.334   0.303   7.784 -0.7196 -0.6648 -1.9223
  142OSM   C13F15624   1.373   0.191   7.969  0.0788  1.0826 -0.1844
  142OSM   H13F15625   1.443   0.271   8.003  1.6965  0.4116 -1.7319
  142OSM   H13G15626   1.435   0.115   7.916 -2.8514 -0.7782 -1.1919
  142OSM   C14F15627   1.316   0.129   8.096  0.2261  0.7429 -0.1690
  142OSM   H14F15628   1.395   0.108   8.171 -1.8012 -2.3951  1.2801
  142OSM   H14G15629   1.272   0.030   8.070  0.1464  0.6337  0.3844
  142OSM   C15F15630   1.199   0.211   8.154  0.1727 -0.5229 -0.1850
  142OSM   H15F15631   1.110   0.214   8.087 -0.9482 -0.5489  1.2577
  142OSM   H15G15632   1.222   0.320   8.160 -2.1892  0.1489 -1.6352
  142OSM   C16F15633   1.150   0.175   8.297 -0.3987 -0.3839 -0.2837
  142OSM   H16F15634   1.219   0.201   8.380  0.5813  2.5651 -1.8827
  142OSM   H16G15635   1.130   0.066   8.301 -2.9682  0.0488  2.9475
  142OSM   C17F15636   1.015   0.239   8.332 -0.4179 -0.0024 -0.3824
  142OSM   H17F15637   0.958   0.188   8.412 -1.6851 -0.1404 -1.3372
  142OSM   H17G15638   0.944   0.231   8.246 -1.9177 -2.8366  0.9840
  142OSM   C18F15639   1.016   0.390   8.373  0.3020  0.3476  0.7418
  142OSM   H18F15640   0.910   0.421   8.384 -0.0391 -0.1649 -0.8092
  142OSM   H18G15641   1.070   0.452   8.298 -2.1925  1.0795 -0.5627
  142OSM   H18H15642   1.070   0.406   8.469 -1.6680  0.8569  1.8194
  143OSM      N15643   1.829   2.152   5.823  0.1635  0.2926 -0.1394
  143OSM    C1515644   1.950   2.071   5.821 -0.3939 -0.2669 -0.0988
  143OSM   H15A15645   1.993   2.075   5.920 -2.8480 -1.7590  1.1405
  143OSM   H15B15646   2.018   2.112   5.749 -1.5233  1.3754 -0.2886
  143OSM   H15C15647   1.939   1.966   5.798  0.7038 -0.4039 -0.0643
  143OSM    C1415648   1.874   2.295   5.834  0.1505 -0.0909  0.7508
  143OSM   H14A15649   1.789   2.361   5.837 -1.4195 -2.0614  1.1622
  143OSM   H14B15650   1.935   2.327   5.750 -2.1441 -2.6630 -2.1465
  143OSM   H14C15651   1.925   2.322   5.925 -0.9602  2.1396  0.7718
  143OSM    C1315652   1.747   2.131   5.703  0.3217 -0.0765 -0.2808
  143OSM   H13A15653   1.646   2.165   5.721  0.6473  1.0177 -0.4109
  143OSM   H13B15654   1.743   2.029   5.668  1.6310 -0.1003 -0.4022
  143OSM   H13C15655   1.780   2.182   5.614 -0.2505  0.5719 -0.1374
  143OSM    C1215656   1.740   2.120   5.941  1.4433  1.0709 -0.2740
  143OSM   H12A15657   1.706   2.017   5.948 -2.9907  2.4548  2.1619
  143OSM   H12B15658   1.652   2.182   5.933  0.6779 -0.0885 -1.0971
  143OSM    C1115659   1.807   2.138   6.077  0.2559  0.6653  0.2697
  143OSM   H11A15660   1.730   2.127   6.156  0.8762  1.2238  0.9810
  143OSM   H11B15661   1.829   2.247   6.089  2.1842  0.4474 -0.8371
  143OSM      P15662   1.934   1.932   6.168 -0.1582 -0.1970 -0.0429
  143OSM    O1315663   1.793   1.873   6.149 -0.2395  0.4717 -0.0728
  143OSM    O1415664   2.047   1.851   6.126  0.6078 -0.0966  0.2997
  143OSM    O1115665   1.962   1.972   6.318  0.0369  0.0370 -1.3320
  143OSM    O1215666   1.929   2.066   6.098  0.0322  0.1423  0.2066
  143OSM    C1S15667   1.914   2.101   6.368  0.0648 -0.2506 -0.7145
  143OSM    H1S15668   1.805   2.118   6.354  0.0195 -0.1908 -0.2961
  143OSM    H1T15669   1.967   2.187   6.321 -0.4679  0.3892 -0.1656
  143OSM     NF15670   1.865   2.246   6.565  0.3351 -0.6377 -0.0642
  143OSM    HNF15671   1.926   2.323   6.550  1.2046 -1.8097 -3.1686
  143OSM    C2S15672   1.923   2.115   6.528  0.0068 -0.1031 -0.1736
  143OSM    H2S15673   1.858   2.035   6.570  0.4440 -0.6096 -0.4548
  143OSM    C3S15674   2.070   2.110   6.567 -0.2511  1.0358 -0.4572
  143OSM    H3S15675   2.139   2.183   6.518  0.8318  2.1389  2.4890
  143OSM     O315676   2.134   1.982   6.530  0.3721 -0.2399  0.2410
  143OSM    HO315677   2.072   1.933   6.476 -0.8598  1.4292  0.0425
  143OSM    C4S15678   2.092   2.134   6.718  0.1313 -0.4573  0.5714
  143OSM    H4S15679   2.016   2.084   6.780 -1.9146  3.1853  1.2881
  143OSM    C5S15680   2.181   2.217   6.768  0.4161  0.2169  0.1725
  143OSM    H5S15681   2.253   2.265   6.700 -0.0929 -0.0169 -0.5486
  143OSM    C6S15682   2.219   2.250   6.909  0.6721  0.1464 -0.1284
  143OSM    H6S15683   2.245   2.358   6.909  1.5821 -0.0637 -0.5559
  143OSM    H6T15684   2.314   2.199   6.934  1.0840  0.7824 -0.3794
  143OSM    C7S15685   2.112   2.214   7.009  0.9976 -0.3690  0.3275
  143OSM    H7S15686   2.095   2.104   7.012 -0.8076 -0.1919 -1.2254
  143OSM    H7T15687   2.016   2.261   6.976  2.2428  1.5565 -0.7469
  143OSM    C8S15688   2.134   2.261   7.151  0.7854  0.1902  0.6097
  143OSM    H8S15689   2.163   2.368   7.142  2.5937 -0.2659  0.5689
  143OSM    H8T15690   2.222   2.209   7.194 -0.2678 -0.7669  1.6779
  143OSM    C9S15691   2.025   2.244   7.259 -0.4333 -0.0233 -0.3521
  143OSM    H9S15692   1.992   2.138   7.262  0.3056 -0.2677 -0.6459
  143OSM    H9T15693   1.942   2.315   7.239  0.0252  1.0840  1.4045
  143OSM   C10S15694   2.069   2.270   7.408 -0.2743 -0.0704  0.2319
  143OSM   H10S15695   2.110   2.373   7.416  0.4990 -0.0193 -3.1431
  143OSM   H10T15696   2.154   2.202   7.432 -2.0067 -1.5433  2.7594
  143OSM   C11S15697   1.954   2.259   7.508  0.1361  0.4548 -0.0300
  143OSM   H11S15698   1.915   2.155   7.499  0.1878  0.4174  0.1805
  143OSM   H11T15699   1.866   2.323   7.482 -0.4119  0.4601  1.7436
  143OSM   C12S15700   1.989   2.287   7.656 -0.5119  0.5816  0.3947
  143OSM   H12S15701   2.042   2.384   7.673  0.5765 -0.1244  1.1637
  143OSM   H12T15702   2.048   2.198   7.685  0.0250  0.0674 -2.0440
  143OSM   C13S15703   1.865   2.293   7.747 -0.6143 -0.1727 -0.5685
  143OSM   H13S15704   1.805   2.204   7.718  0.3666 -1.3687  0.9651
  143OSM   H13T15705   1.809   2.384   7.715  0.6642  0.5632 -0.7688
  143OSM   C14S15706   1.901   2.284   7.896  0.1403 -0.4242  0.0772
  143OSM   H14S15707   1.964   2.374   7.915  0.2574 -0.1291 -1.5800
  143OSM   H14T15708   1.964   2.199   7.929  3.0188  2.5199  2.9287
  143OSM   C15S15709   1.776   2.299   7.983 -0.0447  0.5267  0.2548
  143OSM   H15S15710   1.696   2.230   7.947 -1.0367  1.7427  0.0266
  143OSM   H15T15711   1.736   2.399   7.954 -1.7423 -0.2784 -0.3114
  143OSM   C16S15712   1.804   2.282   8.133 -0.4844 -0.4851 -0.4612
  143OSM   H16S15713   1.912   2.306   8.142 -0.7462  0.4879  0.2324
  143OSM   H16T15714   1.777   2.181   8.170  1.3738 -0.3496  1.4869
  143OSM   C17S15715   1.724   2.394   8.209 -0.1221  0.2761  0.6195
  143OSM   H17S15716   1.622   2.369   8.244 -0.9075  2.5919  0.1474
  143OSM   H17T15717   1.708   2.482   8.144  0.2621  1.1557  1.6807
  143OSM   C18S15718   1.790   2.439   8.337  1.1800  0.2026 -0.0592
  143OSM   H18S15719   1.794   2.360   8.415  1.9843  0.3269  0.0359
  143OSM   H18T15720   1.727   2.518   8.383 -1.1861 -1.6272  0.0552
  143OSM   H18U15721   1.893   2.475   8.316  1.0958  1.5050  1.5389
  143OSM    C1F15722   1.736   2.270   6.583 -0.2116  0.5162 -0.1832
  143OSM     OF15723   1.657   2.176   6.581 -0.7279 -0.4597 -0.3286
  143OSM    C2F15724   1.692   2.415   6.622 -0.0208 -0.6214 -0.3121
  143OSM    H2F15725   1.728   2.486   6.544  1.0524  1.9062  2.3059
  143OSM    H2G15726   1.752   2.444   6.711 -2.0385 -0.3487  1.0384
  143OSM    C3F15727   1.532   2.429   6.655  0.2162  0.5595  1.0237
  143OSM    H3F15728   1.520   2.350   6.733  2.3889  0.7912  1.6549
  143OSM    H3G15729   1.464   2.408   6.570 -0.7208  1.1861  1.5997
  143OSM    C4F15730   1.473   2.562   6.696 -0.9625  0.5296 -0.3724
  143OSM    H4F15731   1.364   2.541   6.706 -0.9539  0.4167 -0.5230
  143OSM    H4G15732   1.481   2.646   6.623  0.0485  0.0967 -0.7760
  143OSM    C5F15733   1.532   2.616   6.831 -0.2003 -0.4580  0.1253
  143OSM    H5F15734   1.641   2.627   6.816 -0.5866 -0.1449 -3.2607
  143OSM    H5G15735   1.510   2.556   6.921 -1.8745 -1.2889 -0.7903
  143OSM    C6F15736   1.484   2.757   6.847 -0.0149 -0.3032 -0.2450
  143OSM    H6F15737   1.374   2.749   6.862 -0.2189 -0.6525 -1.8436
  143OSM    H6G15738   1.501   2.815   6.754  0.3501 -0.6214 -0.3769
  143OSM    C7F15739   1.551   2.822   6.972 -0.7966 -0.1153 -0.8221
  143OSM    H7F15740   1.490   2.915   6.976  0.5600  0.7904 -0.2706
  143OSM    H7G15741   1.659   2.821   6.947 -0.8332 -0.5694 -0.9643
  143OSM    C8F15742   1.537   2.764   7.114 -0.6498 -0.1931  0.2435
  143OSM    H8F15743   1.607   2.678   7.123 -0.6656 -0.3445 -0.9175
  143OSM    H8G15744   1.427   2.748   7.115 -0.5147 -1.1693  0.9331
  143OSM    C9F15745   1.585   2.857   7.227  0.1856  0.3006  0.2910
  143OSM    H9F15746   1.649   2.940   7.194 -0.7465  0.7321 -0.4802
  143OSM   C10F15747   1.555   2.854   7.357  0.5638  0.3820  0.1551
  143OSM   H10F15748   1.602   2.931   7.420  2.4437 -0.8542  0.3432
  143OSM   C11F15749   1.470   2.747   7.416  0.7977  0.0944 -0.1208
  143OSM   H11F15750   1.537   2.663   7.444  2.2545  1.1523 -0.3373
  143OSM   H11G15751   1.398   2.712   7.339  1.8552 -0.4463 -0.8961
  143OSM   C12F15752   1.384   2.792   7.535 -1.0247 -0.3936 -0.3660
  143OSM   H12F15753   1.297   2.723   7.547  1.0986 -3.0319  0.8936
  143OSM   H12G15754   1.350   2.897   7.525 -0.4420  0.0622  1.9130
  143OSM   C13F15755   1.469   2.809   7.656  0.5524 -0.3167  0.0402
  143OSM   H13F15756   1.543   2.890   7.643  1.3632 -0.8668  1.1048
  143OSM   H13G15757   1.541   2.725   7.662  1.5684  0.3472 -1.9022
  143OSM   C14F15758   1.396   2.820   7.788  0.5094 -0.1602 -0.4188
  143OSM   H14F15759   1.365   2.720   7.825  2.6187 -1.3471 -1.6483
  143OSM   H14G15760   1.294   2.863   7.778 -0.0351 -0.6428  2.3653
  143OSM   C15F15761   1.470   2.912   7.892 -0.3006 -0.4596  0.4739
  143OSM   H15F15762   1.471   3.019   7.861  2.1473 -0.6313 -0.1918
  143OSM   H15G15763   1.578   2.894   7.873 -0.2185  0.8324 -0.4253
  143OSM   C16F15764   1.433   2.874   8.035 -0.5000 -0.2348 -0.0362
  143OSM   H16F15765   1.324   2.852   8.044 -0.7542  0.2290 -1.6978
  143OSM   H16G15766   1.456   2.964   8.095 -2.1422  1.2210 -1.4843
  143OSM   C17F15767   1.515   2.754   8.086 -0.4819 -0.1423 -0.4309
  143OSM   H17F15768   1.624   2.772   8.076 -0.6231  0.1886 -1.5630
  143OSM   H17G15769   1.486   2.670   8.020  1.7526 -1.6312  0.3563
  143OSM   C18F15770   1.489   2.737   8.237  0.5855  0.3248 -0.0520
  143OSM   H18F15771   1.520   2.640   8.280  0.0480  0.4004  0.5272
  143OSM   H18G15772   1.378   2.726   8.241  0.5099  1.3670  2.1453
  143OSM   H18H15773   1.499   2.833   8.292  0.6296 -0.7476  1.8999
  144OSM      N15774   0.902   1.654   6.049 -0.0952 -0.5746 -0.2095
  144OSM    C1515775   0.865   1.728   5.921 -0.0112 -0.0355 -0.8902
  144OSM   H15A15776   0.904   1.679   5.833  0.1999 -0.0872 -0.7670
  144OSM   H15B15777   0.886   1.834   5.924  3.9661 -0.7043 -0.5725
  144OSM   H15C15778   0.759   1.720   5.900 -0.6343  1.6032  1.1933
  144OSM    C1415779   0.824   1.715   6.164  0.4783 -0.1472  0.3222
  144OSM   H14A15780   0.717   1.712   6.149  0.0371  0.1137  2.9303
  144OSM   H14B15781   0.865   1.813   6.185  4.2292 -1.7085  1.1406
  144OSM   H14C15782   0.842   1.655   6.252 -1.4468 -1.8693 -0.3740
  144OSM    C1315783   0.874   1.507   6.027  0.3720 -0.4485 -0.2805
  144OSM   H13A15784   0.921   1.453   6.107 -0.0889 -1.8825 -0.9415
  144OSM   H13B15785   0.927   1.466   5.943 -3.4834 -2.5088 -1.9768
  144OSM   H13C15786   0.769   1.486   6.011  0.8516 -3.1201 -0.2654
  144OSM    C1215787   1.051   1.661   6.078  0.3959 -0.2779  0.4167
  144OSM   H12A15788   1.077   1.765   6.077  1.8366 -0.6164 -0.8956
  144OSM   H12B15789   1.107   1.616   5.997 -1.2001 -1.6449 -0.0049
  144OSM    C1115790   1.104   1.614   6.214  0.0604 -0.1456  0.2006
  144OSM   H11A15791   1.043   1.655   6.298 -1.2173 -2.7921  0.6641
  144OSM   H11B15792   1.210   1.644   6.231 -0.5854  2.6697 -0.3215
  144OSM      P15793   1.201   1.370   6.192 -0.1508  0.2367 -0.2687
  144OSM    O1315794   1.153   1.232   6.237  0.0253 -0.1460  0.6486
  144OSM    O1415795   1.226   1.386   6.051 -0.3418  0.0455 -0.2182
  144OSM    O1115796   1.327   1.423   6.276 -0.0831  0.3702  0.4649
  144OSM    O1215797   1.092   1.473   6.229  0.9960 -0.0080  0.7739
  144OSM    C1S15798   1.295   1.455   6.415  0.0110 -0.0346  0.6774
  144OSM    H1S15799   1.289   1.362   6.476  2.2511  1.2520  3.0540
  144OSM    H1T15800   1.199   1.510   6.427 -0.3966 -0.7448  0.7332
  144OSM     NF15801   1.394   1.546   6.630 -0.2390 -0.1854 -0.4389
  144OSM    HNF15802   1.393   1.634   6.676 -0.0788 -2.3598  4.2790
  144OSM    C2S15803   1.421   1.527   6.487 -0.6469 -0.2433  0.5792
  144OSM    H2S15804   1.498   1.448   6.473  1.2054  1.2875  1.6436
  144OSM    C3S15805   1.474   1.654   6.422  0.3951 -0.1767  0.4875
  144OSM    H3S15806   1.403   1.732   6.458  2.5023  0.6733  3.0777
  144OSM     O315807   1.474   1.643   6.282  0.7714 -0.1316  0.2019
  144OSM    HO315808   1.412   1.571   6.267  1.7249 -0.8990 -0.1734
  144OSM    C4S15809   1.612   1.701   6.469  0.2439 -0.9807 -0.3706
  144OSM    H4S15810   1.613   1.776   6.549 -0.7029  0.0674 -1.3096
  144OSM    C5S15811   1.722   1.644   6.427 -0.5568  0.0739 -0.5877
  144OSM    H5S15812   1.723   1.562   6.354 -0.0116 -0.5030  0.0532
  144OSM    C6S15813   1.863   1.677   6.484 -0.4337 -0.2025 -0.3328
  144OSM    H6S15814   1.923   1.741   6.417 -0.1588 -1.3130 -1.1579
  144OSM    H6T15815   1.925   1.585   6.479 -0.0813  0.1195 -2.5841
  144OSM    C7S15816   1.874   1.741   6.621  0.2333 -0.4732  0.6177
  144OSM    H7S15817   1.808   1.831   6.617 -0.9031 -1.3174 -0.7070
  144OSM    H7T15818   1.977   1.773   6.649 -0.2125  2.0404 -0.3000
  144OSM    C8S15819   1.828   1.646   6.736  0.8555 -0.5711 -0.4925
  144OSM    H8S15820   1.890   1.555   6.721  1.0574 -0.1033 -2.8287
  144OSM    H8T15821   1.719   1.632   6.717  0.9406 -0.1022 -1.3516
  144OSM    C9S15822   1.840   1.725   6.870  0.1895  0.7337 -0.3407
  144OSM    H9S15823   1.799   1.824   6.841 -0.2979  0.7721  0.4337
  144OSM    H9T15824   1.945   1.740   6.905 -0.4100 -0.5054  2.2612
  144OSM   C10S15825   1.754   1.666   6.976  0.1339  0.0823  0.5362
  144OSM   H10S15826   1.769   1.556   6.963  0.5438  0.4380 -2.7555
  144OSM   H10T15827   1.650   1.692   6.949  0.4512  1.1821  0.3554
  144OSM   C11S15828   1.796   1.713   7.114 -0.0399 -0.7047 -0.4027
  144OSM   H11S15829   1.792   1.824   7.107  1.8067 -0.5469  0.3936
  144OSM   H11T15830   1.897   1.684   7.150 -0.8110 -2.3835  0.5106
  144OSM   C12S15831   1.698   1.678   7.229 -0.9542  0.4606  0.6614
  144OSM   H12S15832   1.699   1.567   7.242 -2.9662  0.2306 -0.6771
  144OSM   H12T15833   1.593   1.705   7.208 -1.0062  0.1871  0.5562
  144OSM   C13S15834   1.761   1.732   7.361  0.4767 -0.3852  0.0206
  144OSM   H13S15835   1.870   1.747   7.347  0.4428  0.2616  0.3884
  144OSM   H13T15836   1.746   1.648   7.431  0.9877 -0.7920 -0.3492
  144OSM   C14S15837   1.695   1.859   7.416  0.4574 -0.0501  0.1785
  144OSM   H14S15838   1.586   1.851   7.397  0.3247  0.8649  0.5011
  144OSM   H14T15839   1.723   1.941   7.346  1.2292 -0.8024 -0.4159
  144OSM   C15S15840   1.723   1.905   7.556 -0.6453  0.0786 -0.4212
  144OSM   H15S15841   1.680   2.007   7.570 -3.0068 -1.0000  0.8398
  144OSM   H15T15842   1.832   1.921   7.572 -0.7186  1.1398 -0.8713
  144OSM   C16S15843   1.656   1.813   7.667 -0.2294  1.0584  0.2911
  144OSM   H16S15844   1.698   1.710   7.659 -0.0718  1.2713 -3.0468
  144OSM   H16T15845   1.547   1.814   7.644 -0.1786  2.4985  0.0477
  144OSM   C17S15846   1.668   1.881   7.809  0.3238 -0.3491  0.9621
  144OSM   H17S15847   1.620   1.824   7.891 -0.8652  0.4689  0.8473
  144OSM   H17T15848   1.618   1.978   7.790 -0.5285 -1.0230 -0.3880
  144OSM   C18S15849   1.810   1.927   7.843  0.3852  0.0290  0.0448
  144OSM   H18S15850   1.808   1.971   7.945  2.4113  1.9901 -0.6483
  144OSM   H18T15851   1.850   2.012   7.782  0.5500  0.3226  0.5498
  144OSM   H18U15852   1.881   1.842   7.846 -3.4544 -3.4551  1.8617
  144OSM    C1F15853   1.370   1.454   6.717 -0.7024 -0.0978  0.3495
  144OSM     OF15854   1.386   1.337   6.688  0.1677  0.0718 -0.6575
  144OSM    C2F15855   1.314   1.493   6.851 -0.1213  0.1730 -0.4175
  144OSM    H2F15856   1.315   1.408   6.923 -0.1683 -0.1789 -0.8304
  144OSM    H2G15857   1.207   1.518   6.832 -0.3461 -0.9724 -0.7346
  144OSM    C3F15858   1.385   1.615   6.923  0.4665  0.6308  0.0886
  144OSM    H3F15859   1.395   1.692   6.843  3.3176 -1.5293 -1.8504
  144OSM    H3G15860   1.487   1.581   6.949  0.5396  0.5145 -0.3367
  144OSM    C4F15861   1.325   1.663   7.049  0.0849  0.8926 -0.6728
  144OSM    H4F15862   1.232   1.711   7.012 -0.3826 -1.6961 -3.1679
  144OSM    H4G15863   1.378   1.748   7.098 -1.0127  0.2295  1.8331
  144OSM    C5F15864   1.296   1.553   7.151  0.0028  0.2561 -0.3569
  144OSM    H5F15865   1.371   1.471   7.139  1.7425  1.7488 -0.0661
  144OSM    H5G15866   1.194   1.513   7.131 -0.6023  2.2782 -1.5214
  144OSM    C6F15867   1.298   1.605   7.289  0.3038  0.0801  0.3246
  144OSM    H6F15868   1.211   1.670   7.312 -0.7830 -1.1403 -0.2058
  144OSM    H6G15869   1.385   1.671   7.309  0.6207 -1.1340  3.5147
  144OSM    C7F15870   1.308   1.495   7.391 -0.2328  0.1091 -0.2479
  144OSM    H7F15871   1.372   1.411   7.357  0.1183 -0.0786  0.8198
  144OSM    H7G15872   1.213   1.440   7.408  1.4905 -3.4500 -1.1622
  144OSM    C8F15873   1.350   1.541   7.532 -0.6269  0.0207 -0.9289
  144OSM    H8F15874   1.446   1.597   7.529  1.2767 -3.0004 -0.1218
  144OSM    H8G15875   1.358   1.454   7.600 -0.9221  1.1595  0.6355
  144OSM    C9F15876   1.248   1.642   7.589  0.2378 -0.0160 -0.1704
  144OSM    H9F15877   1.241   1.729   7.522 -3.9248 -1.2631 -1.6620
  144OSM   C10F15878   1.178   1.638   7.702 -0.3579 -0.1231 -0.3357
  144OSM   H10F15879   1.123   1.723   7.745 -3.5652 -1.1563 -2.0653
  144OSM   C11F15880   1.186   1.524   7.797  0.9401  0.6002  0.3628
  144OSM   H11F15881   1.264   1.449   7.771 -0.8979 -1.8254  1.4474
  144OSM   H11G15882   1.093   1.464   7.788  1.3853 -0.0437 -0.0217
  144OSM   C12F15883   1.200   1.556   7.947 -0.2589  0.6954 -0.6465
  144OSM   H12F15884   1.112   1.611   7.986  1.1104  0.1373  3.7708
  144OSM   H12G15885   1.284   1.627   7.959  0.1604  0.2345 -0.8084
  144OSM   C13F15886   1.204   1.428   8.032  0.1442  0.4126 -0.4284
  144OSM   H13F15887   1.290   1.362   8.009 -0.3016 -0.6043  0.6675
  144OSM   H13G15888   1.113   1.368   8.007  0.7298 -0.5103 -0.4140
  144OSM   C14F15889   1.216   1.453   8.185 -0.7818  0.0709  0.3529
  144OSM   H14F15890   1.125   1.503   8.226 -1.0303  2.3055 -2.6159
  144OSM   H14G15891   1.306   1.515   8.206 -0.7812  0.4664 -0.7550
  144OSM   C15F15892   1.240   1.327   8.264  0.8948 -0.7062 -0.1515
  144OSM   H15F15893   1.284   1.244   8.206  0.5296 -0.0503 -1.4142
  144OSM   H15G15894   1.141   1.289   8.298  0.2423 -0.1886 -1.3893
  144OSM   C16F15895   1.318   1.365   8.393 -0.7363  0.2835  0.3424
  144OSM   H16F15896   1.274   1.454   8.442 -0.0709  0.4619  0.6227
  144OSM   H16G15897   1.415   1.396   8.349 -0.0623 -3.4341 -1.1770
  144OSM   C17F15898   1.354   1.253   8.482  0.5284  0.0930 -0.3112
  144OSM   H17F15899   1.402   1.176   8.417  1.2669 -0.6084  1.0281
  144OSM   H17G15900   1.258   1.213   8.521  1.9878 -1.1802  2.2051
  144OSM   C18F15901   1.452   1.289   8.595  0.4426 -0.0586 -0.3115
  144OSM   H18F15902   1.526   1.362   8.555  0.8133 -0.7420 -0.8943
  144OSM   H18G15903   1.501   1.199   8.638 -2.3072 -1.1977  0.6419
  144OSM   H18H15904   1.399   1.343   8.677  2.2912 -0.0388  0.9250
  145SAPE     N15905   6.622   3.128  10.600 -0.2411  0.4182 -0.0637
  145SAPE   HN115906   6.679   3.116  10.686  0.1222  5.3876  0.6391
  145SAPE   HN215907   6.654   3.223  10.572  0.9590  0.3857  1.1031
  145SAPE   HN315908   6.520   3.141  10.617 -0.1781 -0.2818  0.9692
  145SAPE   C1215909   6.634   3.023  10.493 -0.1789 -0.5413  0.9712
  145SAPE  H12A15910   6.566   3.052  10.410 -0.5831 -2.0859  0.7385
  145SAPE  H12B15911   6.628   2.921  10.536  2.4436 -0.4193  1.8076
  145SAPE   C1115912   6.774   3.032  10.422 -0.4811 -0.0335  0.1536
  145SAPE  H11A15913   6.809   3.138  10.418  0.9998 -0.5211 -0.1581
  145SAPE  H11B15914   6.777   3.001  10.316  1.2114 -1.5773  0.6124
  145SAPE     P15915   7.019   2.972  10.493  0.1506 -0.2664  0.0072
  145SAPE   O1315916   7.036   3.108  10.546 -0.1355 -0.2089 -0.4564
  145SAPE   O1415917   7.082   2.864  10.573 -0.0305  0.0737 -0.2640
  145SAPE   O1215918   6.867   2.941  10.489 -0.0933  0.1047 -0.2843
  145SAPE   O1115919   7.072   2.965  10.347  0.5734  0.2241  0.4284
  145SAPE    C115920   7.007   2.883  10.246  0.1704 -0.1416 -0.0884
  145SAPE    HA15921   6.931   2.819  10.296 -0.9782  0.9202 -0.4187
  145SAPE    HB15922   6.953   2.948  10.175 -2.1644  0.1844  1.8715
  145SAPE    C215923   7.110   2.782  10.187  0.6415 -0.3143 -0.0941
  145SAPE    HS15924   7.189   2.844  10.139  0.1267 -1.6410 -2.8217
  145SAPE   O2115925   7.046   2.700  10.092 -0.7499 -0.2980  0.6035
  145SAPE   C2115926   7.015   2.750   9.967  0.2668 -1.1826 -0.2154
  145SAPE   O2215927   7.070   2.846   9.918  0.1652 -0.1136 -0.0497
  145SAPE   C2215928   6.926   2.648   9.897  0.3132 -0.1145  0.1018
  145SAPE   H2R15929   6.914   2.559   9.962 -0.1006  1.9390  3.0480
  145SAPE   H2S15930   6.827   2.698   9.891  0.6525  0.4240 -4.5703
  145SAPE    C315931   7.179   2.703  10.309  0.0523  0.5944  0.1053
  145SAPE    HX15932   7.091   2.664  10.363 -0.1750 -0.5342 -1.0281
  145SAPE    HY15933   7.226   2.785  10.367 -1.8175  3.0711 -1.6518
  145SAPE   O3115934   7.275   2.605  10.273 -0.0830 -0.4140  0.1538
  145SAPE   C3115935   7.237   2.487  10.274  0.3681  0.2909 -0.9021
  145SAPE   O3215936   7.135   2.439  10.320 -0.1794 -0.0463  0.2015
  145SAPE   C3215937   7.350   2.400  10.209 -0.0792 -0.0196  0.9070
  145SAPE   H2X15938   7.412   2.364  10.294 -1.4241 -1.6291  1.2495
  145SAPE   H2Y15939   7.412   2.461  10.140 -1.3272  0.2995  0.0341
  145SAPE   C2315940   6.983   2.613   9.756 -0.0688 -0.1771 -0.8663
  145SAPE   H3R15941   7.065   2.540   9.774 -0.4185 -0.2290  0.6424
  145SAPE   H3S15942   7.038   2.698   9.713  1.4770 -0.9118 -0.3963
  145SAPE   C2415943   6.865   2.574   9.657  0.3604  0.0209 -0.3159
  145SAPE   H4R15944   6.788   2.513   9.709 -2.1919  1.1639 -2.4830
  145SAPE   H4S15945   6.893   2.496   9.583 -1.1999 -0.9067  0.0092
  145SAPE   C2515946   6.791   2.697   9.603  0.2141 -0.4882  0.7091
  145SAPE   H5R15947   6.741   2.768   9.670 -0.1551  1.1088 -1.1618
  145SAPE   C2615948   6.791   2.724   9.469  0.0327 -0.0806 -0.7345
  145SAPE   H6R15949   6.740   2.811   9.425  0.7333  0.2146 -0.9890
  145SAPE   C2715950   6.850   2.642   9.356 -0.4361 -0.0212 -0.1099
  145SAPE   H7R15951   6.956   2.634   9.387 -0.4106  0.6682 -0.0008
  145SAPE   H7S15952   6.858   2.710   9.268  1.7213 -1.6550 -1.2862
  145SAPE   C2815953   6.774   2.518   9.318  0.0758  0.5067 -1.0266
  145SAPE   H8R15954   6.719   2.465   9.397  1.8062  0.3733  0.1662
  145SAPE   C2915955   6.764   2.465   9.196  0.4474 -1.1982  0.2887
  145SAPE   H9R15956   6.693   2.382   9.186 -0.7100 -0.3975  1.4620
  145SAPE  C21015957   6.837   2.515   9.069 -0.8143  0.3517  0.1420
  145SAPE  H10R15958   6.936   2.467   9.063 -1.4947 -1.1739  0.6949
  145SAPE  H10S15959   6.850   2.625   9.071  1.6970  0.1509 -1.2484
  145SAPE  C21115960   6.762   2.495   8.940 -0.4089  0.1615  0.0522
  145SAPE  H11R15961   6.714   2.397   8.931 -0.3053  0.2356 -1.4896
  145SAPE  C21215962   6.733   2.582   8.845  0.0411 -0.1288  0.1862
  145SAPE  H12R15963   6.688   2.558   8.747 -0.8931 -0.4583  0.6893
  145SAPE  C21315964   6.762   2.728   8.838 -0.2151  0.1451  0.2362
  145SAPE  H13R15965   6.867   2.749   8.868  0.1710 -2.1796  0.7401
  145SAPE  H13S15966   6.704   2.784   8.915  1.8013  2.6146  0.1180
  145SAPE  C21415967   6.757   2.806   8.706  0.3210 -0.7015 -0.2709
  145SAPE  H14R15968   6.849   2.810   8.647 -0.6747  1.3490 -1.7727
  145SAPE  C21515969   6.647   2.877   8.656 -0.3599  0.5862  0.3612
  145SAPE  H15R15970   6.657   2.943   8.569  1.0828 -0.1504 -0.0680
  145SAPE  C21615971   6.509   2.886   8.721 -0.2148  0.2927 -0.0011
  145SAPE  H16R15972   6.519   2.828   8.815  2.0511  1.4066  0.5109
  145SAPE  H16S15973   6.436   2.846   8.647  0.1963  0.1925 -0.3510
  145SAPE  C21715974   6.472   3.033   8.757  0.0016  0.5766 -0.1787
  145SAPE  H17R15975   6.550   3.080   8.821  1.7905  0.4027 -2.1340
  145SAPE  H17S15976   6.373   3.034   8.808  0.9298 -0.0500  1.7287
  145SAPE  C21815977   6.465   3.126   8.635  0.6358  0.9314  0.7954
  145SAPE  H18R15978   6.507   3.075   8.546 -0.1907  3.8374 -1.4135
  145SAPE  H18S15979   6.541   3.206   8.651  0.6037  0.8900  1.1672
  145SAPE  C21915980   6.324   3.185   8.609  0.3475 -0.2579 -0.4065
  145SAPE  H19R15981   6.290   3.246   8.695  0.3171 -0.2690 -0.4110
  145SAPE  H19S15982   6.255   3.100   8.595 -2.0676  1.5518 -0.0661
  145SAPE  C22015983   6.327   3.280   8.486 -0.5858  0.2907 -0.5147
  145SAPE  H20R15984   6.339   3.206   8.403 -1.3593  1.7894 -2.0280
  145SAPE  H20S15985   6.413   3.349   8.491 -0.7449  0.3981  1.2438
  145SAPE  H20T15986   6.230   3.334   8.479 -0.4344  0.6396  0.0994
  145SAPE   C3315987   7.280   2.287  10.131  0.0077  0.6645  0.0268
  145SAPE   H3X15988   7.220   2.216  10.193  1.6108 -2.5012 -1.7876
  145SAPE   H3Y15989   7.363   2.223  10.095 -1.1699 -0.1306 -1.4012
  145SAPE   C3415990   7.184   2.327  10.022 -0.2244  0.3234 -0.7403
  145SAPE   H4X15991   7.221   2.419   9.973 -0.8600  1.1661  0.3273
  145SAPE   H4Y15992   7.092   2.351  10.078  1.7761  1.0566  2.5135
  145SAPE   C3515993   7.171   2.213   9.916 -0.3005  0.1550  0.3659
  145SAPE   H5X15994   7.103   2.137   9.959  3.7218 -3.6636  0.6355
  145SAPE   H5Y15995   7.273   2.169   9.910  0.3227  1.7303 -1.7780
  145SAPE   C3615996   7.122   2.270   9.779 -0.4100 -0.3309 -0.2795
  145SAPE   H6X15997   7.191   2.355   9.760  3.0735 -3.0368 -0.7635
  145SAPE   H6Y15998   7.020   2.312   9.767 -0.7665 -1.4637 -1.5480
  145SAPE   C3715999   7.130   2.170   9.666  0.6691 -0.1539 -0.2606
  145SAPE   H7X16000   7.061   2.085   9.682  0.3040 -0.2625 -2.2250
  145SAPE   H7Y16001   7.234   2.131   9.672  0.4008 -0.8012  0.3205
  145SAPE   C3816002   7.101   2.237   9.534 -0.3855 -0.4213  0.6394
  145SAPE   H8X16003   7.176   2.316   9.514 -0.8653 -0.2368 -0.4918
  145SAPE   H8Y16004   7.004   2.291   9.538  0.5219  1.5408 -1.5401
  145SAPE   C3916005   7.095   2.135   9.424  0.4055  0.4186 -0.1904
  145SAPE   H9X16006   7.015   2.061   9.444  0.1101  0.6871 -0.3702
  145SAPE   H9Y16007   7.192   2.082   9.407  0.0089  0.4967 -3.3287
  145SAPE  C31016008   7.069   2.199   9.285 -0.2096  0.1591 -0.5813
  145SAPE  H10X16009   7.132   2.291   9.282  0.1092  0.2683  3.4119
  145SAPE  H10Y16010   6.962   2.229   9.288 -0.1143  0.4357  1.0580
  145SAPE  C31116011   7.082   2.111   9.163  0.1899 -0.5550 -0.9703
  145SAPE  H11X16012   7.021   2.019   9.179 -0.2878  0.0166  0.7427
  145SAPE  H11Y16013   7.181   2.066   9.141  0.6426 -0.9726  1.5961
  145SAPE  C31216014   7.034   2.196   9.040 -0.0400 -0.1441  0.4075
  145SAPE  H12X16015   7.100   2.282   9.019 -0.7878  0.1047 -1.0257
  145SAPE  H12Y16016   6.930   2.233   9.052  0.4387  1.3420  0.1088
  145SAPE  C31316017   7.037   2.110   8.913  0.2970  0.0063 -0.0656
  145SAPE  H13X16018   6.974   2.165   8.839 -0.2999  0.7461  0.9639
  145SAPE  H13Y16019   6.976   2.020   8.935  0.7461 -0.0355  1.0377
  145SAPE  C31416020   7.179   2.074   8.872  0.5570 -0.1901 -0.4475
  145SAPE  H14X16021   7.218   1.993   8.937  1.8176 -0.3659 -1.3737
  145SAPE  H14Y16022   7.258   2.150   8.893 -1.6971  1.6740  1.9015
  145SAPE  C31516023   7.195   2.031   8.722 -0.0686 -0.4007 -0.0770
  145SAPE  H15X16024   7.188   2.128   8.668  2.2330 -1.0013 -1.5914
  145SAPE  H15Y16025   7.108   1.967   8.695 -0.3478 -1.1380  2.3283
  145SAPE  C31616026   7.326   1.951   8.691  0.7787 -0.1696  0.1827
  145SAPE  H16X16027   7.336   1.862   8.756  4.1947 -1.5613 -1.9471
  145SAPE  H16Y16028   7.400   2.032   8.711  2.3630 -1.2237 -1.1984
  145SAPE  C31716029   7.355   1.906   8.545  0.7223 -0.7154 -0.0369
  145SAPE  H17X16030   7.464   1.895   8.527  0.6936 -0.3614 -0.4319
  145SAPE  H17Y16031   7.313   1.981   8.475 -1.3377 -1.9484 -0.2374
  145SAPE  C31816032   7.272   1.779   8.519  0.3494 -0.3804 -0.3693
  145SAPE  H18X16033   7.169   1.792   8.559  0.5023  0.3092 -0.1903
  145SAPE  H18Y16034   7.316   1.698   8.582 -1.5285  0.6946  2.5638
  145SAPE  H18Z16035   7.270   1.755   8.411 -1.9334 -1.3989 -0.1571
  146SAPE     N16036   4.792   2.860  10.919 -0.2033 -0.6627 -0.0019
  146SAPE   HN116037   4.780   2.958  10.888 -0.8076 -0.7635 -0.1055
  146SAPE   HN216038   4.697   2.819  10.932 -1.3375  1.4198 -1.1534
  146SAPE   HN316039   4.852   2.860  11.004 -1.1936 -1.1873  0.7287
  146SAPE   C1216040   4.864   2.782  10.814  0.4966  0.1301 -0.2165
  146SAPE  H12A16041   4.786   2.773  10.735 -1.9267  2.1436  1.7300
  146SAPE  H12B16042   4.880   2.683  10.862 -2.9090 -0.4931 -0.1066
  146SAPE   C1116043   4.991   2.847  10.762 -0.6259  0.1974 -0.2186
  146SAPE  H11A16044   4.963   2.952  10.739 -1.6586  0.2600  1.2084
  146SAPE  H11B16045   5.025   2.807  10.664  0.0072  0.8314 -0.2728
  146SAPE     P16046   5.232   2.911  10.808  0.1444 -0.1515  0.2400
  146SAPE   O1316047   5.197   3.053  10.795  0.2369  0.0470  0.2228
  146SAPE   O1416048   5.335   2.879  10.911 -0.4658 -0.4778 -0.0721
  146SAPE   O1216049   5.105   2.836  10.850  0.5593  0.3452  0.1382
  146SAPE   O1116050   5.275   2.868  10.670  0.5366 -0.2176 -0.5052
  146SAPE    C116051   5.296   2.739  10.625  0.2504  0.6437  0.0735
  146SAPE    HA16052   5.327   2.674  10.710 -1.1289  1.6273  1.4023
  146SAPE    HB16053   5.203   2.694  10.585  1.7642 -1.1678 -1.5849
  146SAPE    C216054   5.410   2.733  10.510 -0.7919  0.8493 -0.5326
  146SAPE    HS16055   5.459   2.634  10.521 -2.7565 -0.0053  1.1881
  146SAPE   O2116056   5.501   2.846  10.519 -0.2657 -0.0214 -0.1445
  146SAPE   C2116057   5.566   2.837  10.638  0.3370 -0.8425 -0.4309
  146SAPE   O2216058   5.569   2.736  10.706 -0.2832 -0.3577  0.4158
  146SAPE   C2216059   5.625   2.972  10.681 -0.0493  0.3101  0.0730
  146SAPE   H2R16060   5.643   3.027  10.586  0.1763  0.1811  0.0416
  146SAPE   H2S16061   5.542   3.010  10.745 -0.9340 -0.2168 -0.7238
  146SAPE    C316062   5.346   2.740  10.368  0.0976  0.2532 -0.0967
  146SAPE    HX16063   5.266   2.817  10.363  0.0389  0.4463  2.5351
  146SAPE    HY16064   5.304   2.638  10.351  0.6234  0.1562 -0.9006
  146SAPE   O3116065   5.454   2.739  10.268 -0.3394  0.2991 -0.5276
  146SAPE   C3116066   5.470   2.844  10.185  0.8730 -0.4790  0.0095
  146SAPE   O3216067   5.397   2.940  10.188  0.5595  0.1113 -0.0851
  146SAPE   C3216068   5.594   2.827  10.101  0.4117 -0.4455 -0.2368
  146SAPE   H2X16069   5.653   2.734  10.115  0.4823 -0.4478 -0.5373
  146SAPE   H2Y16070   5.667   2.910  10.115  1.9000 -1.2346 -2.6751
  146SAPE   C2316071   5.769   2.968  10.744 -0.4810 -0.4305  0.9036
  146SAPE   H3R16072   5.777   2.919  10.843 -1.4778  0.0191  1.2193
  146SAPE   H3S16073   5.799   3.075  10.742 -2.6594  0.2641 -2.2349
  146SAPE   C2416074   5.864   2.885  10.655 -0.4461 -0.3261 -0.1703
  146SAPE   H4R16075   5.808   2.790  10.642 -0.7716 -0.5307  2.3053
  146SAPE   H4S16076   5.944   2.870  10.731 -0.1738  1.0094 -0.1676
  146SAPE   C2516077   5.930   2.953  10.544 -0.1631  0.4177 -0.3330
  146SAPE   H5R16078   5.968   3.052  10.574  0.2321  0.8926 -2.2763
  146SAPE   C2616079   5.956   2.931  10.420  0.0341  0.8217  0.3172
  146SAPE   H6R16080   6.022   3.000  10.366  1.5350 -1.6296 -1.1729
  146SAPE   C2716081   5.910   2.807  10.343  0.3299 -0.8788  0.2712
  146SAPE   H7R16082   5.884   2.835  10.239 -0.8929  1.8862  1.2306
  146SAPE   H7S16083   5.816   2.766  10.386 -0.7661 -0.6221 -1.7370
  146SAPE   C2816084   6.000   2.691  10.353 -0.1175 -0.4175  0.1344
  146SAPE   H8R16085   6.074   2.704  10.432 -2.1006 -0.0214  2.0218
  146SAPE   C2916086   5.984   2.568  10.295 -0.3957 -0.2749  0.3206
  146SAPE   H9R16087   6.049   2.484  10.324 -0.1471  0.0725  0.7923
  146SAPE  C21016088   5.874   2.520  10.200 -0.2474  0.4263  0.4043
  146SAPE  H10R16089   5.902   2.435  10.134 -2.2169 -2.4615  3.0273
  146SAPE  H10S16090   5.850   2.611  10.140  0.7875  0.1103 -0.5365
  146SAPE  C21116091   5.743   2.499  10.274  0.5594 -0.3371 -0.2799
  146SAPE  H11R16092   5.740   2.505  10.384  1.2154  0.4634 -0.2969
  146SAPE  C21216093   5.625   2.468  10.208 -0.8847  0.5678 -0.3992
  146SAPE  H12R16094   5.538   2.428  10.262  0.4729 -1.1895  0.6067
  146SAPE  C21316095   5.614   2.456  10.052 -0.5771 -0.0040  0.1302
  146SAPE  H13R16096   5.688   2.381  10.015  1.7507  1.9318  0.5850
  146SAPE  H13S16097   5.647   2.551  10.004  1.1092 -0.8721 -0.5473
  146SAPE  C21416098   5.480   2.407   9.994 -0.0199  1.2899 -0.6567
  146SAPE  H14R16099   5.413   2.350  10.059 -0.6299  3.0028  0.2792
  146SAPE  C21516100   5.435   2.431   9.869 -0.0842 -0.2289 -0.3394
  146SAPE  H15R16101   5.344   2.382   9.834 -0.4387 -1.3910  2.0005
  146SAPE  C21616102   5.513   2.500   9.759 -0.3841 -0.5036 -0.3876
  146SAPE  H16R16103   5.624   2.500   9.771 -0.3091 -2.3856 -0.7814
  146SAPE  H16S16104   5.484   2.607   9.747 -1.4846 -0.9951 -2.5872
  146SAPE  C21716105   5.483   2.434   9.623  0.6740 -0.3554  0.2346
  146SAPE  H17R16106   5.373   2.444   9.611  0.7476  1.3000  0.6924
  146SAPE  H17S16107   5.510   2.326   9.620  1.8237 -0.0792  0.5061
  146SAPE  C21816108   5.554   2.511   9.511 -0.1415  0.2352  0.4949
  146SAPE  H18R16109   5.659   2.535   9.536 -0.1822 -0.0386  0.9430
  146SAPE  H18S16110   5.490   2.601   9.499  1.4112  1.9083  3.7104
  146SAPE  C21916111   5.544   2.437   9.377 -0.4160  0.2817 -0.6791
  146SAPE  H19R16112   5.441   2.395   9.379 -0.6415  0.8192  1.2226
  146SAPE  H19S16113   5.620   2.358   9.364 -1.2869 -0.3193 -2.5698
  146SAPE  C22016114   5.566   2.531   9.257  0.8503  0.0103  0.4120
  146SAPE  H20R16115   5.671   2.566   9.267  0.8531 -0.4267  2.3735
  146SAPE  H20S16116   5.485   2.607   9.258 -0.8720 -1.7091  3.0112
  146SAPE  H20T16117   5.545   2.480   9.160 -1.6419  0.0896  0.8455
  146SAPE   C3316118   5.545   2.840   9.958  0.0759  0.1114  0.1131
  146SAPE   H3X16119   5.495   2.939   9.947 -0.4313  0.2833  3.2292
  146SAPE   H3Y16120   5.479   2.757   9.927  0.6097 -0.0086 -0.7575
  146SAPE   C3416121   5.672   2.833   9.867 -0.2032 -0.4115  0.4095
  146SAPE   H4X16122   5.708   2.728   9.872 -1.6156 -1.0911 -2.0745
  146SAPE   H4Y16123   5.753   2.897   9.908  1.5459 -1.2121 -1.6229
  146SAPE   C3516124   5.647   2.873   9.722 -0.2241  0.7439 -0.5272
  146SAPE   H5X16125   5.633   2.982   9.705 -5.1960  0.8102  2.2192
  146SAPE   H5Y16126   5.563   2.819   9.674 -1.2792  1.0989  0.8640
  146SAPE   C3616127   5.772   2.838   9.642  0.1383 -0.1091 -0.1941
  146SAPE   H6X16128   5.788   2.730   9.620  1.3384 -0.0053  0.1266
  146SAPE   H6Y16129   5.867   2.865   9.693  1.1433 -2.3467 -0.7366
  146SAPE   C3716130   5.766   2.917   9.512 -0.0025 -0.1725  0.3427
  146SAPE   H7X16131   5.857   2.912   9.449 -1.4447  1.5670 -2.0734
  146SAPE   H7Y16132   5.748   3.021   9.547 -3.2716 -0.1505 -1.0032
  146SAPE   C3816133   5.645   2.893   9.415  0.7939 -0.9805  0.5988
  146SAPE   H8X16134   5.546   2.883   9.465 -0.0298 -3.7990 -1.3364
  146SAPE   H8Y16135   5.661   2.788   9.382 -0.2729 -1.4054  1.3589
  146SAPE   C3916136   5.637   2.995   9.298  0.5796  0.2792 -0.2318
  146SAPE   H9X16137   5.734   2.996   9.244  0.3814 -0.0660 -0.6074
  146SAPE   H9Y16138   5.623   3.096   9.340 -2.4652  1.0907 -2.7641
  146SAPE  C31016139   5.529   2.965   9.198  0.5794 -0.3110 -0.1096
  146SAPE  H10X16140   5.439   2.997   9.254  1.4627  1.8592  0.1908
  146SAPE  H10Y16141   5.517   2.857   9.177 -0.8105 -0.3991  0.9978
  146SAPE  C31116142   5.544   3.047   9.067  0.8712  0.1300 -0.1214
  146SAPE  H11X16143   5.629   3.003   9.011  0.3249 -2.4975  1.0022
  146SAPE  H11Y16144   5.581   3.146   9.102  2.0788 -0.5089  0.4869
  146SAPE  C31216145   5.420   3.067   8.975  0.1167  0.6651  0.0942
  146SAPE  H12X16146   5.346   3.127   9.032 -0.5444  0.3565 -0.4422
  146SAPE  H12Y16147   5.386   2.965   8.948 -0.1945  1.1172 -1.3125
  146SAPE  C31316148   5.453   3.143   8.846  0.4285 -0.7401  0.6187
  146SAPE  H13X16149   5.514   3.075   8.783 -0.7969 -1.6403  0.3693
  146SAPE  H13Y16150   5.521   3.227   8.871  1.3008 -0.9802 -0.8255
  146SAPE  C31416151   5.328   3.187   8.775  0.0801  0.3696 -0.1429
  146SAPE  H14X16152   5.279   3.257   8.845  2.3836  1.2922  0.6460
  146SAPE  H14Y16153   5.255   3.106   8.753  2.8334 -2.8486  1.6275
  146SAPE  C31516154   5.360   3.267   8.646 -0.3234 -0.5321  0.2494
  146SAPE  H15X16155   5.436   3.343   8.676  3.2333 -3.4656 -0.5320
  146SAPE  H15Y16156   5.284   3.332   8.598  0.9642  1.2395  0.4902
  146SAPE  C31616157   5.398   3.162   8.538 -0.2005 -0.4432  0.1777
  146SAPE  H16X16158   5.306   3.103   8.517  0.2616 -1.3913  0.7320
  146SAPE  H16Y16159   5.480   3.100   8.581  1.2148  1.1646 -0.0626
  146SAPE  C31716160   5.443   3.231   8.406  0.3060 -0.0033  0.1348
  146SAPE  H17X16161   5.531   3.294   8.432  0.9911 -1.7939  2.5188
  146SAPE  H17Y16162   5.364   3.300   8.370  1.9538  0.3900 -3.1099
  146SAPE  C31816163   5.468   3.131   8.299 -0.2277  0.3934  1.2110
  146SAPE  H18X16164   5.529   3.167   8.214  0.3630  0.4237  1.6416
  146SAPE  H18Y16165   5.374   3.077   8.275  1.0484 -0.9352 -1.1635
  146SAPE  H18Z16166   5.537   3.053   8.339  0.8679  0.1346 -1.0395
  147SAPE     N16167   5.642   6.010  10.771  0.3340  0.1691 -0.4828
  147SAPE   HN116168   5.666   6.107  10.742 -1.3120  0.6537 -0.2974
  147SAPE   HN216169   5.618   5.963  10.682 -0.8859 -0.0492 -0.0556
  147SAPE   HN316170   5.553   6.019  10.823 -0.3261 -1.7333 -1.2103
  147SAPE   C1216171   5.759   5.930  10.827  0.4821  0.0572  0.4253
  147SAPE  H12A16172   5.718   5.826  10.828 -0.6161  0.4572 -0.3467
  147SAPE  H12B16173   5.788   5.960  10.930 -0.2258 -0.2739  0.7263
  147SAPE   C1116174   5.869   5.936  10.717 -0.4450  0.6675 -0.5192
  147SAPE  H11A16175   5.832   5.889  10.623  0.8665 -0.7341 -0.3687
  147SAPE  H11B16176   5.954   5.875  10.753 -0.8981  0.5659  0.4132
  147SAPE     P16177   6.020   6.148  10.778 -0.1559  0.2004  0.1501
  147SAPE   O1316178   6.018   6.292  10.735  0.3498 -0.0333 -0.4072
  147SAPE   O1416179   5.999   6.123  10.924 -0.1605 -0.4375  0.3720
  147SAPE   O1216180   5.910   6.075  10.695 -0.2074  0.2551 -0.0173
  147SAPE   O1116181   6.152   6.072  10.727  0.5501 -0.0638  0.2863
  147SAPE    C116182   6.219   6.135  10.611  0.2194 -0.0885 -0.6529
  147SAPE    HA16183   6.221   6.245  10.625  0.7495 -0.3546  1.9693
  147SAPE    HB16184   6.324   6.100  10.617  1.5142  3.3847 -1.0419
  147SAPE    C216185   6.162   6.104  10.476  0.1578  0.3302  0.4073
  147SAPE    HS16186   6.054   6.126  10.487  0.3915  1.1846  1.1052
  147SAPE   O2116187   6.196   5.960  10.457  0.0607 -1.0226 -0.0159
  147SAPE   C2116188   6.096   5.891  10.404 -0.0382  0.1517  0.4803
  147SAPE   O2216189   5.989   5.931  10.368  0.0002 -0.0931  0.2538
  147SAPE   C2216190   6.148   5.748  10.401  0.0201 -0.8465  0.6552
  147SAPE   H2R16191   6.259   5.747  10.399  0.0450 -1.8772  1.7367
  147SAPE   H2S16192   6.115   5.692  10.491  0.1204 -1.6936  0.1764
  147SAPE    C316193   6.224   6.194  10.367  0.1567 -0.5531  0.2740
  147SAPE    HX16194   6.328   6.156  10.361 -0.1571 -1.3092 -0.4681
  147SAPE    HY16195   6.225   6.295  10.415  1.8788 -0.6086  0.4120
  147SAPE   O3116196   6.163   6.180  10.232  0.3501  0.0455 -0.0912
  147SAPE   C3116197   6.042   6.230  10.229 -0.1511 -0.5107  0.1590
  147SAPE   O3216198   5.980   6.284  10.315 -0.0005  0.1004  0.0223
  147SAPE   C3216199   5.978   6.199  10.098 -0.1053  0.2570 -0.6411
  147SAPE   H2X16200   5.981   6.088  10.088 -0.5301  0.1817  0.0557
  147SAPE   H2Y16201   6.047   6.245  10.025 -2.1256  3.1582 -0.8964
  147SAPE   C2316202   6.094   5.675  10.270 -0.3031  0.0105 -0.6992
  147SAPE   H3R16203   6.082   5.759  10.199  0.1520  0.0532 -0.7256
  147SAPE   H3S16204   5.994   5.633  10.294  0.1029  0.0144  1.1608
  147SAPE   C2416205   6.187   5.561  10.219 -0.3572 -0.7455  1.0553
  147SAPE   H4R16206   6.129   5.494  10.152  0.4858 -1.4960  1.0489
  147SAPE   H4S16207   6.222   5.501  10.306  1.3416 -0.2728  0.7340
  147SAPE   C2516208   6.316   5.604  10.155 -0.5289 -0.2605  0.1716
  147SAPE   H5R16209   6.386   5.643  10.231 -3.8303  1.9195  2.3442
  147SAPE   C2616210   6.340   5.612  10.022 -0.7913 -0.4664  0.0317
  147SAPE   H6R16211   6.441   5.648   9.995 -0.1899 -3.7377 -2.8399
  147SAPE   C2716212   6.251   5.571   9.907  0.3336 -0.3300  0.3971
  147SAPE   H7R16213   6.286   5.613   9.811  2.1404 -2.4874  0.0331
  147SAPE   H7S16214   6.159   5.630   9.929  0.2086 -0.4662  0.2393
  147SAPE   C2816215   6.220   5.420   9.891  0.4575 -0.0486  1.0772
  147SAPE   H8R16216   6.186   5.365   9.980  1.4702 -0.2829  1.3355
  147SAPE   C2916217   6.239   5.342   9.781  0.3650  0.3024 -0.1517
  147SAPE   H9R16218   6.221   5.234   9.783  0.0721  0.1999 -3.2583
  147SAPE  C21016219   6.291   5.387   9.640 -0.4368  0.0075 -0.3023
  147SAPE  H10R16220   6.348   5.300   9.602  0.9351  0.1167  1.3812
  147SAPE  H10S16221   6.357   5.476   9.644  0.1107 -0.4397  1.1653
  147SAPE  C21116222   6.180   5.420   9.549 -0.3810 -0.3976 -0.0985
  147SAPE  H11R16223   6.080   5.434   9.593  0.9944  1.0577  2.8270
  147SAPE  C21216224   6.190   5.434   9.412  0.1637 -0.7309  0.0271
  147SAPE  H12R16225   6.102   5.464   9.353 -0.3564 -0.5967  0.8626
  147SAPE  C21316226   6.317   5.418   9.329  0.3811 -1.2705 -0.4418
  147SAPE  H13R16227   6.405   5.441   9.392  1.0144 -0.5385 -1.5483
  147SAPE  H13S16228   6.315   5.492   9.246  2.0415  0.4718  0.9873
  147SAPE  C21416229   6.342   5.272   9.300  0.6271  0.1195  0.2315
  147SAPE  H14R16230   6.365   5.212   9.389  1.9496 -1.7751 -1.3173
  147SAPE  C21516231   6.344   5.219   9.177  0.3082  0.3984  0.7052
  147SAPE  H15R16232   6.346   5.112   9.153 -3.2394  1.0390 -3.4785
  147SAPE  C21616233   6.309   5.290   9.048  0.0740 -0.2421  0.0250
  147SAPE  H16R16234   6.397   5.357   9.037  0.3612 -0.5675  0.3473
  147SAPE  H16S16235   6.210   5.342   9.046  0.4065  0.4115  0.1407
  147SAPE  C21716236   6.317   5.191   8.928 -0.4337 -0.2488  0.0757
  147SAPE  H17R16237   6.228   5.124   8.930 -0.2604 -0.5251 -0.9268
  147SAPE  H17S16238   6.403   5.120   8.927 -0.3619 -0.1688  0.5943
  147SAPE  C21816239   6.310   5.264   8.792 -0.9730 -0.4655  0.2131
  147SAPE  H18R16240   6.414   5.302   8.780 -0.8091 -0.4472  1.5465
  147SAPE  H18S16241   6.248   5.356   8.797 -0.7447 -0.3007  0.0418
  147SAPE  C21916242   6.272   5.178   8.672  0.0796  0.2315  0.5064
  147SAPE  H19R16243   6.165   5.156   8.694  0.8743 -2.6065  2.0013
  147SAPE  H19S16244   6.320   5.078   8.666 -1.2243 -0.4574  1.1354
  147SAPE  C22016245   6.280   5.250   8.535 -1.9212  0.4536 -0.3439
  147SAPE  H20R16246   6.384   5.274   8.503 -2.2101  0.0909 -1.5989
  147SAPE  H20S16247   6.228   5.346   8.553  0.3054  1.5980  0.3825
  147SAPE  H20T16248   6.227   5.203   8.449  0.3529 -0.7260 -1.1738
  147SAPE   C3316249   5.826   6.253  10.095 -0.8062  0.1137  0.4159
  147SAPE   H3X16250   5.838   6.361  10.073  2.3835  0.8709  4.5379
  147SAPE   H3Y16251   5.781   6.249  10.196  1.1469  2.3780  1.4879
  147SAPE   C3416252   5.731   6.193   9.992  0.3898  0.5338  0.2994
  147SAPE   H4X16253   5.631   6.235  10.018  0.4131  1.1751 -0.6379
  147SAPE   H4Y16254   5.731   6.083  10.013 -0.2168  0.5671  0.5083
  147SAPE   C3516255   5.774   6.229   9.855  0.1558  0.8064 -0.2702
  147SAPE   H5X16256   5.882   6.208   9.856  0.0540  0.0757 -1.7481
  147SAPE   H5Y16257   5.750   6.337   9.843 -1.8638  0.3277 -1.0350
  147SAPE   C3616258   5.721   6.144   9.732  0.1776  0.1222 -0.2063
  147SAPE   H6X16259   5.611   6.158   9.724  0.1131 -0.1780  0.1079
  147SAPE   H6Y16260   5.757   6.039   9.744  1.4500  0.3717 -1.5102
  147SAPE   C3716261   5.768   6.205   9.601 -0.5476 -0.0021  0.5535
  147SAPE   H7X16262   5.877   6.220   9.586 -0.7328  0.5619 -0.3894
  147SAPE   H7Y16263   5.743   6.311   9.580  2.6278  0.3402 -2.6527
  147SAPE   C3816264   5.707   6.135   9.474  0.3419 -0.3804 -0.0415
  147SAPE   H8X16265   5.596   6.134   9.474  0.2929  0.2803  1.9592
  147SAPE   H8Y16266   5.738   6.028   9.472 -0.2595 -0.5634  0.3217
  147SAPE   C3916267   5.759   6.203   9.344  0.2080 -0.3291  0.4269
  147SAPE   H9X16268   5.870   6.212   9.351  0.3146 -1.5902  0.5100
  147SAPE   H9Y16269   5.722   6.307   9.336  3.2932  0.7988 -0.9761
  147SAPE  C31016270   5.713   6.142   9.214 -0.3732 -0.2918  0.1356
  147SAPE  H10X16271   5.605   6.167   9.216 -0.2176  0.4348 -0.0899
  147SAPE  H10Y16272   5.719   6.032   9.224  1.6121 -0.1099  1.8133
  147SAPE  C31116273   5.780   6.186   9.088  0.0625  0.5053  0.2980
  147SAPE  H11X16274   5.888   6.162   9.078  0.5235  2.6746 -0.5650
  147SAPE  H11Y16275   5.783   6.297   9.087 -0.9553  0.6626  3.3604
  147SAPE  C31216276   5.708   6.131   8.966 -0.0631 -0.6503  0.1988
  147SAPE  H12X16277   5.600   6.157   8.974  0.1306  0.8135 -1.3844
  147SAPE  H12Y16278   5.704   6.021   8.955  0.5851 -0.5493 -1.2607
  147SAPE  C31316279   5.755   6.184   8.827 -0.4431 -0.4197 -1.1248
  147SAPE  H13X16280   5.682   6.139   8.756 -1.2235 -1.6373  0.3846
  147SAPE  H13Y16281   5.856   6.144   8.801 -0.7010 -3.0293  1.4281
  147SAPE  C31416282   5.747   6.330   8.794  0.1722 -0.1010 -0.9617
  147SAPE  H14X16283   5.833   6.373   8.849  0.1037  0.6480 -1.4306
  147SAPE  H14Y16284   5.651   6.364   8.840  0.1096 -0.1859 -1.0299
  147SAPE  C31516285   5.759   6.362   8.643 -0.4832 -0.6951 -0.4928
  147SAPE  H15X16286   5.848   6.315   8.597  0.7784  1.4169 -0.3697
  147SAPE  H15Y16287   5.769   6.472   8.630  2.0438 -0.9607 -1.3485
  147SAPE  C31616288   5.640   6.337   8.551  0.0754  0.3741  0.4519
  147SAPE  H16X16289   5.613   6.230   8.539  3.4495 -0.3862 -2.4332
  147SAPE  H16Y16290   5.682   6.374   8.455  1.3523 -1.9391  0.0393
  147SAPE  C31716291   5.515   6.409   8.579  0.8606  0.3147 -0.5357
  147SAPE  H17X16292   5.526   6.515   8.609 -0.5811 -0.2112  2.1922
  147SAPE  H17Y16293   5.478   6.364   8.674 -0.6025  1.2780 -0.6218
  147SAPE  C31816294   5.407   6.406   8.470 -0.0626  0.2734 -0.0342
  147SAPE  H18X16295   5.306   6.429   8.510  0.1484 -1.5410  1.6600
  147SAPE  H18Y16296   5.396   6.305   8.426  2.5632 -1.1144  2.1678
  147SAPE  H18Z16297   5.435   6.478   8.389  3.5769  0.8076  1.5185
  148SAPE     N16298   1.552   2.315  10.548 -0.6721  1.2966 -0.0206
  148SAPE   HN116299   1.515   2.392  10.608  1.0939  1.3671  1.0618
  148SAPE   HN216300   1.501   2.324  10.459 -1.1357  0.8944  0.2007
  148SAPE   HN316301   1.514   2.225  10.582  2.0125 -0.0191 -0.1905
  148SAPE   C1216302   1.707   2.302  10.540  0.1298  0.4414 -0.3555
  148SAPE  H12A16303   1.751   2.298  10.642  1.0073 -0.1432 -0.7429
  148SAPE  H12B16304   1.748   2.393  10.491  2.2495 -1.2486 -1.9648
  148SAPE   C1116305   1.758   2.184  10.456 -0.3112 -0.9344  0.3908
  148SAPE  H11A16306   1.869   2.181  10.465 -0.3024  1.0307  1.5947
  148SAPE  H11B16307   1.722   2.208  10.354 -2.2272 -0.1269  1.2117
  148SAPE     P16308   1.768   1.923  10.494 -0.1029  0.3391  0.5942
  148SAPE   O1316309   1.886   1.921  10.581  0.2880 -0.1887  0.4723
  148SAPE   O1416310   1.672   1.812  10.505  0.6201  0.5742 -0.5496
  148SAPE   O1216311   1.696   2.066  10.498 -0.7684 -0.0504  0.0748
  148SAPE   O1116312   1.828   1.917  10.353 -0.2495 -0.3074 -1.1379
  148SAPE    C116313   1.759   1.841  10.253  0.4089 -0.0973 -0.0361
  148SAPE    HA16314   1.815   1.745  10.247  0.2965 -0.2008  0.4977
  148SAPE    HB16315   1.653   1.810  10.266  0.3314  0.3937  0.5483
  148SAPE    C216316   1.770   1.912  10.117  0.7996  0.2135  0.1000
  148SAPE    HS16317   1.706   2.003  10.124  0.4707 -0.0331  0.3632
  148SAPE   O2116318   1.721   1.820  10.022 -0.3068 -0.4722 -0.0804
  148SAPE   C2116319   1.677   1.872   9.914 -0.0083 -0.0153  0.9916
  148SAPE   O2216320   1.645   1.988   9.891 -0.3636 -0.5447 -0.1876
  148SAPE   C2216321   1.668   1.757   9.806  0.1862 -0.0461  0.5660
  148SAPE   H2R16322   1.760   1.695   9.819 -1.2075 -2.7537 -1.3832
  148SAPE   H2S16323   1.580   1.693   9.828 -1.1676  0.2256 -3.2700
  148SAPE    C316324   1.916   1.957  10.084  0.8457 -0.5138  0.2191
  148SAPE    HX16325   1.967   1.859  10.090  1.9901  0.0185 -0.4107
  148SAPE    HY16326   1.947   2.031  10.161 -1.4333  0.7393  0.0246
  148SAPE   O3116327   1.933   2.025   9.961  0.0152 -0.5480 -0.1108
  148SAPE   C3116328   1.998   1.972   9.860 -0.4500 -0.7283  0.2019
  148SAPE   O3216329   2.076   1.879   9.868 -0.0014 -0.5502  0.5900
  148SAPE   C3216330   1.968   2.043   9.734  0.8498  0.3879  0.3503
  148SAPE   H2X16331   2.021   2.140   9.742 -2.0728  2.1891 -0.5150
  148SAPE   H2Y16332   1.860   2.066   9.722  1.2178  1.5423 -1.1609
  148SAPE   C2316333   1.676   1.799   9.658  0.1648 -0.5745  0.1502
  148SAPE   H3R16334   1.691   1.712   9.590 -2.3789 -2.5693  1.9449
  148SAPE   H3S16335   1.758   1.870   9.635 -0.0659  0.5051  2.3963
  148SAPE   C2416336   1.551   1.877   9.609 -0.1644 -0.1542 -0.1824
  148SAPE   H4R16337   1.549   1.975   9.662  1.2201 -0.5763  0.6884
  148SAPE   H4S16338   1.458   1.829   9.644 -1.5257  1.8149 -0.8948
  148SAPE   C2516339   1.552   1.893   9.462  0.3106  0.5461 -0.8837
  148SAPE   H5R16340   1.603   1.811   9.410  0.7504  0.5444 -0.4601
  148SAPE   C2616341   1.491   1.991   9.396  0.6030 -0.4748  0.5824
  148SAPE   H6R16342   1.511   1.994   9.288 -2.1003 -3.6965 -0.1597
  148SAPE   C2716343   1.401   2.102   9.451  0.1379  0.3596  0.0960
  148SAPE   H7R16344   1.471   2.186   9.470  2.3673 -1.1696 -0.8625
  148SAPE   H7S16345   1.364   2.066   9.549  1.2466 -2.3142 -0.3627
  148SAPE   C2816346   1.286   2.154   9.357 -0.5154  0.2872 -0.7444
  148SAPE   H8R16347   1.187   2.170   9.402  0.0106  1.2730  0.1003
  148SAPE   C2916348   1.300   2.191   9.222  0.4952  0.1428 -0.4286
  148SAPE   H9R16349   1.208   2.236   9.183  0.7742 -0.0828 -1.3788
  148SAPE  C21016350   1.412   2.202   9.126 -0.4632  0.4796  0.1305
  148SAPE  H10R16351   1.509   2.194   9.180 -0.2387 -1.2207 -0.4622
  148SAPE  H10S16352   1.419   2.302   9.078 -0.6001  0.0532 -0.8067
  148SAPE  C21116353   1.405   2.104   9.011 -0.1587  0.1350 -0.8022
  148SAPE  H11R16354   1.330   2.023   9.016  0.9071 -0.8313  0.3264
  148SAPE  C21216355   1.472   2.113   8.894  0.8440  0.6338 -0.1643
  148SAPE  H12R16356   1.460   2.027   8.826 -1.8436  2.1734 -1.8330
  148SAPE  C21316357   1.570   2.222   8.856  0.2440  0.4428  0.7891
  148SAPE  H13R16358   1.570   2.292   8.943 -0.8123 -0.7985  1.8333
  148SAPE  H13S16359   1.526   2.282   8.773  1.0497  2.8473  1.9902
  148SAPE  C21416360   1.708   2.198   8.814  0.2662  0.5824 -0.0243
  148SAPE  H14R16361   1.775   2.280   8.841 -0.2704  0.7770  0.7430
  148SAPE  C21516362   1.758   2.116   8.719  0.0076  0.6508 -0.5980
  148SAPE  H15R16363   1.860   2.136   8.683 -0.1017  1.5506 -0.4276
  148SAPE  C21616364   1.672   2.011   8.644  0.5111  0.1951  0.1888
  148SAPE  H16R16365   1.563   2.028   8.633  0.3580 -1.5598 -1.3916
  148SAPE  H16S16366   1.696   1.909   8.680 -1.6980 -0.7473 -0.8744
  148SAPE  C21716367   1.727   2.026   8.497  0.0274 -0.7628 -0.0738
  148SAPE  H17R16368   1.838   2.028   8.492  0.1224 -0.2116  1.7620
  148SAPE  H17S16369   1.692   2.125   8.460  1.5291  0.6130  2.0166
  148SAPE  C21816370   1.667   1.930   8.404  0.6450 -0.1113  0.1837
  148SAPE  H18R16371   1.673   1.961   8.298 -2.2825  0.3489  0.0641
  148SAPE  H18S16372   1.562   1.908   8.434 -0.2763  2.6066 -0.7847
  148SAPE  C21916373   1.734   1.795   8.405  0.5961 -0.3907  0.4865
  148SAPE  H19R16374   1.756   1.767   8.511  0.0461  2.0382  1.3100
  148SAPE  H19S16375   1.827   1.808   8.345  0.2185  0.5907  0.1005
  148SAPE  C22016376   1.642   1.689   8.329 -0.1098  0.0397 -0.0008
  148SAPE  H20R16377   1.690   1.593   8.303 -1.9158 -0.5338 -1.4564
  148SAPE  H20S16378   1.596   1.737   8.240  2.4640  1.6649 -0.5692
  148SAPE  H20T16379   1.566   1.652   8.400 -1.2274 -1.2618 -1.8061
  148SAPE   C3316380   2.021   1.961   9.616 -0.1763  0.0702 -0.3966
  148SAPE   H3X16381   1.952   1.879   9.585 -1.5257  1.0863 -0.1884
  148SAPE   H3Y16382   2.122   1.924   9.643  0.4379  2.4148  0.8053
  148SAPE   C3416383   2.029   2.051   9.488  0.0539  0.2218  0.0497
  148SAPE   H4X16384   2.130   2.095   9.474 -0.3158  1.5147  1.2245
  148SAPE   H4Y16385   1.957   2.135   9.496 -0.3720 -0.3003  2.4900
  148SAPE   C3516386   1.978   1.968   9.365  0.2438  0.2045 -0.1600
  148SAPE   H5X16387   1.888   1.912   9.398  1.7950 -1.9271  0.6914
  148SAPE   H5Y16388   2.061   1.895   9.355 -0.0943 -0.1283 -0.5566
  148SAPE   C3616389   1.959   2.058   9.245  0.6226 -0.3853 -0.1713
  148SAPE   H6X16390   2.053   2.114   9.226  2.0162 -1.2576  3.4514
  148SAPE   H6Y16391   1.876   2.129   9.264 -0.4305 -1.1767 -1.6309
  148SAPE   C3716392   1.930   1.981   9.108 -0.5645  1.3134 -0.1138
  148SAPE   H7X16393   2.018   1.913   9.100 -0.2843  0.8371  4.2428
  148SAPE   H7Y16394   1.918   2.047   9.020 -1.9201  0.5230 -0.5515
  148SAPE   C3816395   1.821   1.875   9.132  0.8055  0.2294 -0.2136
  148SAPE   H8X16396   1.733   1.929   9.173  1.5283 -1.5041  4.1732
  148SAPE   H8Y16397   1.844   1.791   9.201 -1.3361  0.9089  1.4500
  148SAPE   C3916398   1.761   1.826   8.997 -0.0804 -0.4055  0.1150
  148SAPE   H9X16399   1.833   1.746   8.969 -0.5133 -0.3660 -1.1627
  148SAPE   H9Y16400   1.777   1.890   8.908  1.1449 -1.2666 -0.3178
  148SAPE  C31016401   1.626   1.761   9.008  0.1918 -1.1586  0.2415
  148SAPE  H10X16402   1.555   1.831   9.057  0.3731 -0.5042 -0.4078
  148SAPE  H10Y16403   1.636   1.661   9.055 -1.8913 -1.5147  0.0199
  148SAPE  C31116404   1.570   1.741   8.864 -0.6415 -0.2070 -0.6014
  148SAPE  H11X16405   1.653   1.703   8.801 -0.3786 -0.8715  0.1370
  148SAPE  H11Y16406   1.537   1.839   8.822 -0.2181  0.2328  0.0627
  148SAPE  C31216407   1.457   1.636   8.858 -0.1247  0.1242  0.1263
  148SAPE  H12X16408   1.360   1.670   8.902 -0.0838  1.5157 -0.7829
  148SAPE  H12Y16409   1.488   1.542   8.908  1.0135 -0.5100 -1.6808
  148SAPE  C31316410   1.406   1.596   8.716  0.2159 -0.4681 -0.3810
  148SAPE  H13X16411   1.311   1.540   8.729 -0.8347  0.5274 -3.0278
  148SAPE  H13Y16412   1.490   1.535   8.675  1.1661  1.0090 -0.7368
  148SAPE  C31416413   1.373   1.710   8.625 -0.8610 -0.0075  0.7964
  148SAPE  H14X16414   1.338   1.664   8.530 -0.1949 -0.9098  0.9775
  148SAPE  H14Y16415   1.469   1.758   8.596  0.5191 -2.7570  0.4944
  148SAPE  C31516416   1.274   1.816   8.677  0.0341 -0.0121  0.9188
  148SAPE  H15X16417   1.323   1.885   8.748 -0.3797 -0.3552  1.5451
  148SAPE  H15Y16418   1.197   1.763   8.738  0.5973 -1.0036  0.7799
  148SAPE  C31616419   1.205   1.884   8.562  0.5048 -0.2231 -1.1632
  148SAPE  H16X16420   1.164   1.810   8.490 -0.4537  1.1802 -2.1125
  148SAPE  H16Y16421   1.285   1.932   8.502  0.5793 -0.6083 -1.3769
  148SAPE  C31716422   1.101   1.986   8.601  0.2728 -0.1742  0.5820
  148SAPE  H17X16423   1.014   1.942   8.654 -1.1022 -2.7872 -3.3999
  148SAPE  H17Y16424   1.059   2.036   8.511 -2.7114 -0.1527  1.8616
  148SAPE  C31816425   1.159   2.103   8.681  0.0738  0.0902 -0.3651
  148SAPE  H18X16426   1.094   2.193   8.674  1.3145  1.0654  0.2389
  148SAPE  H18Y16427   1.253   2.144   8.641 -0.0485 -1.1788 -2.0398
  148SAPE  H18Z16428   1.182   2.073   8.786 -3.6120  0.6737  0.7670
  149SAPE     N16429   3.493   5.731  11.259 -0.6698 -0.8182  0.2053
  149SAPE   HN116430   3.426   5.661  11.223  0.2722 -1.7015  0.1271
  149SAPE   HN216431   3.553   5.700  11.338  0.2861  0.5320  0.0420
  149SAPE   HN316432   3.443   5.817  11.291 -1.8684 -1.2938 -0.3414
  149SAPE   C1216433   3.594   5.765  11.149  0.4086 -0.3418  0.3707
  149SAPE  H12A16434   3.681   5.797  11.210  0.8123 -1.5064  0.4361
  149SAPE  H12B16435   3.550   5.850  11.092  1.0385 -0.4848 -0.3495
  149SAPE   C1116436   3.640   5.649  11.049 -0.0163  0.2456 -0.1968
  149SAPE  H11A16437   3.717   5.694  10.983 -0.3923  0.0992 -0.7418
  149SAPE  H11B16438   3.557   5.613  10.985  0.6749  1.0164 -1.5670
  149SAPE     P16439   3.663   5.398  11.120  0.3389 -0.4816  0.2512
  149SAPE   O1316440   3.779   5.326  11.159  0.1558  0.0017 -0.2809
  149SAPE   O1416441   3.534   5.375  11.195 -0.1494 -0.1137 -0.6635
  149SAPE   O1216442   3.700   5.550  11.127 -0.3744 -0.1792 -0.5350
  149SAPE   O1116443   3.628   5.373  10.965  0.3250  0.1011 -0.2488
  149SAPE    C116444   3.614   5.239  10.915 -0.4833  0.5433 -0.1023
  149SAPE    HA16445   3.708   5.211  10.863  0.8177  3.2379  0.6462
  149SAPE    HB16446   3.597   5.164  10.995 -2.0504 -0.0734 -0.9639
  149SAPE    C216447   3.485   5.225  10.823 -0.6865  0.3752  0.7570
  149SAPE    HS16448   3.478   5.117  10.797 -0.3000  0.4738  0.2155
  149SAPE   O2116449   3.502   5.309  10.705  0.9457 -0.4447  0.3402
  149SAPE   C2116450   3.585   5.256  10.616 -0.5862  0.6185  0.1128
  149SAPE   O2216451   3.625   5.142  10.620  0.0880  0.0217 -0.6145
  149SAPE   C2216452   3.610   5.365  10.512 -0.0224 -0.6378  0.4233
  149SAPE   H2R16453   3.634   5.460  10.565  0.7898 -0.5084 -0.1650
  149SAPE   H2S16454   3.701   5.340  10.453  0.7372 -0.7291  1.5913
  149SAPE    C316455   3.363   5.272  10.900 -0.1267  0.3618  0.4165
  149SAPE    HX16456   3.374   5.381  10.917  0.8154  0.2998  0.2369
  149SAPE    HY16457   3.368   5.233  11.004  0.5074  0.2481  0.3477
  149SAPE   O3116458   3.240   5.238  10.837  0.0384 -0.3422 -0.7298
  149SAPE   C3116459   3.166   5.137  10.883 -0.4200  0.3417  0.4406
  149SAPE   O3216460   3.174   5.089  10.997  0.1968 -0.4102 -0.4185
  149SAPE   C3216461   3.084   5.081  10.768  0.5166  0.3065 -0.2193
  149SAPE   H2X16462   3.010   5.160  10.744  0.1514  0.0610  0.1012
  149SAPE   H2Y16463   3.029   4.986  10.782 -3.8800  2.5574 -0.5265
  149SAPE   C2316464   3.496   5.400  10.412 -0.2509 -0.2667  0.8375
  149SAPE   H3R16465   3.516   5.496  10.360  2.5229 -2.3396 -2.3422
  149SAPE   H3S16466   3.393   5.394  10.455 -0.7239  1.4140  0.0245
  149SAPE   C2416467   3.494   5.298  10.299  0.1842  0.0610  0.3871
  149SAPE   H4R16468   3.501   5.194  10.338  1.3953 -0.4739 -1.1177
  149SAPE   H4S16469   3.592   5.315  10.250  0.7536  0.6684  1.6905
  149SAPE   C2516470   3.371   5.310  10.205  0.1374  0.8812  0.4709
  149SAPE   H5R16471   3.271   5.293  10.248  0.1665  1.0351  0.5983
  149SAPE   C2616472   3.385   5.343  10.076  0.3337 -0.8108 -0.2009
  149SAPE   H6R16473   3.296   5.360  10.015  0.8373  0.1267 -0.6852
  149SAPE   C2716474   3.513   5.361   9.994  0.4839 -0.2122  0.0552
  149SAPE   H7R16475   3.578   5.428  10.055  1.0732 -2.5157  2.1269
  149SAPE   H7S16476   3.490   5.418   9.901 -0.3541  1.0577  1.0177
  149SAPE   C2816477   3.582   5.234   9.959 -0.3743  0.3797  0.1519
  149SAPE   H8R16478   3.588   5.163  10.043  0.3759  1.6945  1.2436
  149SAPE   C2916479   3.650   5.212   9.838 -0.5391  0.0485 -0.0626
  149SAPE   H9R16480   3.702   5.117   9.821  1.4588  1.1922 -0.7043
  149SAPE  C21016481   3.665   5.309   9.724 -1.1966 -0.2896  0.0367
  149SAPE  H10R16482   3.755   5.281   9.664 -0.1470 -0.0491  1.4449
  149SAPE  H10S16483   3.682   5.411   9.766  1.6812 -0.5786 -0.2034
  149SAPE  C21116484   3.536   5.313   9.640  0.0166  0.7877 -0.6334
  149SAPE  H11R16485   3.451   5.259   9.684  3.6032 -1.7971  4.0753
  149SAPE  C21216486   3.522   5.361   9.513 -0.9205  0.5770  0.2863
  149SAPE  H12R16487   3.423   5.355   9.464 -0.6066 -2.3541 -0.1619
  149SAPE  C21316488   3.632   5.449   9.435  0.4361 -0.5624  0.1038
  149SAPE  H13R16489   3.696   5.383   9.373  1.7310  0.2560  0.5412
  149SAPE  H13S16490   3.709   5.485   9.506 -0.8568  1.3304  0.6062
  149SAPE  C21416491   3.587   5.565   9.360  0.0099  0.0855  0.0164
  149SAPE  H14R16492   3.621   5.654   9.415 -0.2478 -1.6857  3.2957
  149SAPE  C21516493   3.519   5.582   9.249 -0.0418 -0.5739 -0.4438
  149SAPE  H15R16494   3.488   5.680   9.208 -1.5363 -1.0327 -0.4901
  149SAPE  C21616495   3.464   5.464   9.163 -0.2128  0.7927  0.2148
  149SAPE  H16R16496   3.363   5.482   9.121 -0.7410 -0.6742  0.7929
  149SAPE  H16S16497   3.464   5.370   9.222  0.1955  0.1263 -0.8218
  149SAPE  C21716498   3.569   5.436   9.047  0.0543 -0.5428  0.1673
  149SAPE  H17R16499   3.539   5.339   9.003  0.1197 -1.7686  2.6571
  149SAPE  H17S16500   3.668   5.423   9.095  2.1195  5.0122 -1.7458
  149SAPE  C21816501   3.587   5.546   8.947 -0.5782 -0.7730 -0.5075
  149SAPE  H18R16502   3.654   5.516   8.864 -1.3462 -0.3553 -1.3001
  149SAPE  H18S16503   3.637   5.621   9.012  0.9621 -3.8205  2.0460
  149SAPE  C21916504   3.457   5.596   8.875  0.4774 -0.7592  0.0442
  149SAPE  H19R16505   3.374   5.603   8.949  0.2705  0.9335 -0.3161
  149SAPE  H19S16506   3.430   5.530   8.790 -2.0823  0.0570  0.1398
  149SAPE  C22016507   3.478   5.735   8.820  0.1352  0.3138  0.6597
  149SAPE  H20R16508   3.386   5.763   8.766  0.9121 -1.7187 -1.9664
  149SAPE  H20S16509   3.567   5.729   8.754 -1.5163  3.6035 -2.1433
  149SAPE  H20T16510   3.501   5.807   8.901 -1.2739  0.2734  1.1146
  149SAPE   C3316511   3.164   5.058  10.639 -0.4001  0.1399 -0.4304
  149SAPE   H3X16512   3.208   5.154  10.605 -1.2907  0.6799 -0.1019
  149SAPE   H3Y16513   3.095   5.022  10.560 -1.9320  1.5088  0.2132
  149SAPE   C3416514   3.262   4.938  10.655 -0.4233  0.0489  0.2228
  149SAPE   H4X16515   3.204   4.844  10.655  0.7611 -0.7297  1.9985
  149SAPE   H4Y16516   3.316   4.956  10.751 -0.5808  0.7006  0.1956
  149SAPE   C3516517   3.361   4.923  10.532  0.0429 -0.3819 -0.1460
  149SAPE   H5X16518   3.439   4.849  10.560 -1.4522 -1.5067  1.2694
  149SAPE   H5Y16519   3.402   5.026  10.520 -1.4708  0.1385 -1.1558
  149SAPE   C3616520   3.289   4.887  10.403 -0.4958  0.1971 -0.5397
  149SAPE   H6X16521   3.192   4.939  10.392 -0.8399 -0.5689 -1.3103
  149SAPE   H6Y16522   3.269   4.778  10.416  1.4640 -0.0806  0.4371
  149SAPE   C3716523   3.373   4.914  10.276 -0.0347  0.4338 -0.7482
  149SAPE   H7X16524   3.390   5.022  10.254  0.8984  0.2697 -0.8799
  149SAPE   H7Y16525   3.338   4.863  10.184  0.3934  1.5715 -1.5669
  149SAPE   C3816526   3.519   4.871  10.300  0.5824 -0.1366  0.0513
  149SAPE   H8X16527   3.516   4.778  10.361  1.1663 -0.0158  0.2650
  149SAPE   H8Y16528   3.567   4.956  10.352  1.2195  0.0572 -0.8271
  149SAPE   C3916529   3.596   4.853  10.171  0.2246 -0.2171  0.1724
  149SAPE   H9X16530   3.699   4.884  10.199  0.4953 -1.4491  0.6309
  149SAPE   H9Y16531   3.564   4.929  10.097  2.3754  0.0041 -0.6020
  149SAPE  C31016532   3.589   4.715  10.113  0.0371  0.4594 -0.2490
  149SAPE  H10X16533   3.481   4.688  10.115 -0.5929  2.8059  0.3352
  149SAPE  H10Y16534   3.638   4.653  10.192  1.4317  3.0276  1.0353
  149SAPE  C31116535   3.668   4.687   9.982 -0.1961  0.3869  0.2385
  149SAPE  H11X16536   3.646   4.580   9.960  3.9401 -0.3010 -1.4883
  149SAPE  H11Y16537   3.777   4.701   9.999 -0.2622 -0.5434  1.5154
  149SAPE  C31216538   3.605   4.770   9.867  0.5273 -0.4780  0.2416
  149SAPE  H12X16539   3.642   4.874   9.877 -0.2255 -0.2507  0.7471
  149SAPE  H12Y16540   3.497   4.781   9.892  0.1968  0.3778 -1.4270
  149SAPE  C31316541   3.617   4.708   9.724 -0.6380 -0.1636  0.4604
  149SAPE  H13X16542   3.562   4.612   9.733  0.8743 -1.0353  0.6227
  149SAPE  H13Y16543   3.718   4.665   9.713 -1.1030 -0.8969 -1.4081
  149SAPE  C31416544   3.585   4.804   9.613  0.0181 -0.3957  0.2089
  149SAPE  H14X16545   3.499   4.873   9.630 -0.3783 -0.7398 -0.3799
  149SAPE  H14Y16546   3.551   4.738   9.531 -1.7553 -0.3916  0.8917
  149SAPE  C31516547   3.701   4.897   9.565  0.7655 -0.2973  1.0600
  149SAPE  H15X16548   3.780   4.832   9.521  1.2834  0.0586  1.4473
  149SAPE  H15Y16549   3.748   4.965   9.640  0.5547 -0.4301  1.3118
  149SAPE  C31616550   3.662   4.993   9.450 -0.3937 -0.9405  0.1840
  149SAPE  H16X16551   3.600   5.082   9.477  0.2410 -0.2178 -0.6792
  149SAPE  H16Y16552   3.614   4.935   9.368  2.0985 -0.9140 -1.4054
  149SAPE  C31716553   3.780   5.060   9.378  0.2724 -0.0191 -0.1607
  149SAPE  H17X16554   3.847   4.982   9.335 -1.5349 -1.6664 -0.0992
  149SAPE  H17Y16555   3.831   5.132   9.446 -1.1680  0.7187  0.1827
  149SAPE  C31816556   3.745   5.142   9.244  0.8466 -0.4987  0.1180
  149SAPE  H18X16557   3.722   5.079   9.156 -3.0487  1.1194 -0.2040
  149SAPE  H18Y16558   3.830   5.209   9.218  0.5112  1.6678  3.8931
  149SAPE  H18Z16559   3.652   5.203   9.252  0.7268 -0.5609 -0.7381
  150SAPE     N16560   5.164   3.239  10.573  0.2733  0.4297 -0.4708
  150SAPE   HN116561   5.247   3.202  10.522 -1.0143 -0.8243 -1.7264
  150SAPE   HN216562   5.189   3.326  10.624 -0.3614 -0.2695  1.0923
  150SAPE   HN316563   5.138   3.177  10.652 -1.8566  0.4408 -1.1037
  150SAPE   C1216564   5.044   3.264  10.485  0.0227  0.2442 -0.0851
  150SAPE  H12A16565   5.020   3.163  10.445  2.8265 -0.1981 -0.8486
  150SAPE  H12B16566   5.068   3.326  10.396 -0.5650 -0.4545 -0.7537
  150SAPE   C1116567   4.920   3.317  10.568  0.8565  0.0700  0.0371
  150SAPE  H11A16568   4.832   3.320  10.500  2.0817 -0.3681 -1.6189
  150SAPE  H11B16569   4.942   3.419  10.605  1.8029 -0.6539  1.5635
  150SAPE     P16570   4.783   3.222  10.768  0.3569 -0.2074 -0.0370
  150SAPE   O1316571   4.752   3.087  10.809  0.5534 -0.2984 -0.2716
  150SAPE   O1416572   4.826   3.313  10.874  0.1293  0.2785 -0.2716
  150SAPE   O1216573   4.904   3.224  10.673  0.5753 -0.0289 -0.5249
  150SAPE   O1116574   4.665   3.279  10.683  0.0584  0.0847 -0.0901
  150SAPE    C116575   4.544   3.221  10.636  0.0799  0.1762  0.0404
  150SAPE    HA16576   4.519   3.124  10.685 -1.9945 -1.0042 -3.0780
  150SAPE    HB16577   4.478   3.303  10.671  1.5218  1.6738 -0.6302
  150SAPE    C216578   4.530   3.209  10.486  0.1356 -0.3367 -0.1618
  150SAPE    HS16579   4.427   3.177  10.458  0.7769 -0.5996 -2.4013
  150SAPE   O2116580   4.629   3.127  10.423 -0.0016 -0.0917 -0.7803
  150SAPE   C2116581   4.651   3.008  10.465  0.1788 -1.0785 -0.4375
  150SAPE   O2216582   4.577   2.942  10.539 -0.7025 -0.0287 -0.0222
  150SAPE   C2216583   4.791   2.963  10.405  0.7928 -0.4101  0.1927
  150SAPE   H2R16584   4.821   3.024  10.317 -2.4502  0.1225 -0.6877
  150SAPE   H2S16585   4.856   3.005  10.485 -2.0456 -0.1763  2.5610
  150SAPE    C316586   4.549   3.350  10.432  0.3532 -0.3428 -0.0248
  150SAPE    HX16587   4.655   3.383  10.440  0.5389 -1.0829  0.7877
  150SAPE    HY16588   4.500   3.420  10.503 -0.1454 -1.3396  0.6341
  150SAPE   O3116589   4.493   3.366  10.301  0.1574  0.2798  0.3247
  150SAPE   C3116590   4.575   3.348  10.200  0.2675  0.1488 -1.8668
  150SAPE   O3216591   4.697   3.349  10.211  0.3067  0.2602  0.0472
  150SAPE   C3216592   4.498   3.319  10.075 -0.1861  0.4343 -0.4563
  150SAPE   H2X16593   4.420   3.398  10.076 -1.0748 -0.3672  2.4618
  150SAPE   H2Y16594   4.440   3.226  10.091  1.6302 -0.8253 -0.9047
  150SAPE   C2316595   4.819   2.816  10.395  0.2599 -0.5842 -0.0808
  150SAPE   H3R16596   4.749   2.759  10.332 -1.8301  1.5562  0.1796
  150SAPE   H3S16597   4.813   2.773  10.497  1.2483 -1.3237 -0.3118
  150SAPE   C2416598   4.965   2.797  10.343 -1.6435  0.7144 -0.2829
  150SAPE   H4R16599   5.048   2.840  10.404 -0.2432  0.3315 -1.8568
  150SAPE   H4S16600   4.969   2.854  10.248  0.0534 -1.3106 -1.4988
  150SAPE   C2516601   5.004   2.655  10.311 -0.6863  0.1063  0.4627
  150SAPE   H5R16602   4.996   2.586  10.397 -2.3942  0.7421  0.8514
  150SAPE   C2616603   5.030   2.601  10.189 -0.1350 -0.7327  0.3073
  150SAPE   H6R16604   5.054   2.495  10.170  0.1322 -0.5940 -0.1375
  150SAPE   C2716605   5.023   2.675  10.058 -0.4715 -0.3278  0.5080
  150SAPE   H7R16606   4.993   2.780  10.073 -2.8504 -0.6336 -1.5558
  150SAPE   H7S16607   4.943   2.626   9.998  0.1214 -0.2227 -0.3898
  150SAPE   C2816608   5.163   2.665   9.999  0.1159 -0.3260 -0.3966
  150SAPE   H8R16609   5.250   2.678  10.064  1.6340  2.7943 -2.7643
  150SAPE   C2916610   5.188   2.653   9.867  0.2852  0.3694 -0.5049
  150SAPE   H9R16611   5.293   2.644   9.839  0.1457 -0.7689 -0.6799
  150SAPE  C21016612   5.076   2.639   9.762 -0.0320 -0.3053 -0.5230
  150SAPE  H10R16613   5.071   2.733   9.703  0.2003  0.4288  0.5842
  150SAPE  H10S16614   4.977   2.631   9.813 -0.8570 -0.6359 -2.1206
  150SAPE  C21116615   5.091   2.515   9.678  0.0123 -0.1271  0.1347
  150SAPE  H11R16616   5.095   2.419   9.731 -0.0497  0.1239  0.5965
  150SAPE  C21216617   5.095   2.508   9.538  0.0099  0.2163 -0.0713
  150SAPE  H12R16618   5.119   2.409   9.496 -1.6753 -1.4116  2.5229
  150SAPE  C21316619   5.083   2.620   9.443 -0.3830 -0.4528  0.3703
  150SAPE  H13R16620   5.008   2.698   9.467  0.4244  0.5471 -0.3113
  150SAPE  H13S16621   5.046   2.577   9.347 -2.2119  1.9088 -0.0701
  150SAPE  C21416622   5.213   2.699   9.416 -0.1262 -0.3091 -0.7513
  150SAPE  H14R16623   5.286   2.697   9.499  1.1341  0.4694 -1.8037
  150SAPE  C21516624   5.249   2.753   9.302  0.3262 -0.3803 -0.4514
  150SAPE  H15R16625   5.348   2.799   9.290 -0.3294  0.9311 -1.0734
  150SAPE  C21616626   5.170   2.745   9.170  0.5246  0.0959 -0.6691
  150SAPE  H16R16627   5.120   2.843   9.159 -3.3387 -1.7319 -0.7956
  150SAPE  H16S16628   5.089   2.669   9.177 -0.5409  1.0850 -2.0241
  150SAPE  C21716629   5.256   2.723   9.037  0.4365  0.0244  0.3194
  150SAPE  H17R16630   5.312   2.627   9.034 -0.0356 -0.2508  0.1558
  150SAPE  H17S16631   5.341   2.794   9.036  0.3161  0.1645  0.0672
  150SAPE  C21816632   5.165   2.732   8.918  1.1955  0.0388  0.7897
  150SAPE  H18R16633   5.103   2.823   8.932  0.9957  0.1311 -0.5474
  150SAPE  H18S16634   5.079   2.662   8.923 -1.1525  2.7681  0.6146
  150SAPE  C21916635   5.220   2.729   8.779 -0.6000  0.2458  0.5678
  150SAPE  H19R16636   5.283   2.820   8.769 -1.7339  1.1221  1.1838
  150SAPE  H19S16637   5.149   2.741   8.694 -1.9680  1.1864  1.7945
  150SAPE  C22016638   5.324   2.617   8.752 -0.2444 -0.4745  0.1334
  150SAPE  H20R16639   5.415   2.627   8.816 -1.2374  0.7425  1.4192
  150SAPE  H20S16640   5.372   2.613   8.651 -1.3552 -1.4780 -0.3716
  150SAPE  H20T16641   5.279   2.516   8.764  1.4440 -1.1027  1.5563
  150SAPE   C3316642   4.578   3.316   9.948  0.6344 -0.0206  0.4468
  150SAPE   H3X16643   4.661   3.245   9.965 -0.6803 -1.5007  1.0044
  150SAPE   H3Y16644   4.631   3.413   9.943  0.5965  0.0270  0.8696
  150SAPE   C3416645   4.526   3.287   9.810 -0.0937 -0.2435  0.3735
  150SAPE   H4X16646   4.501   3.178   9.810  1.7997 -0.7250 -0.7854
  150SAPE   H4Y16647   4.610   3.294   9.737  0.3825  0.3462  0.9617
  150SAPE   C3516648   4.402   3.364   9.768 -0.2033 -0.4847  0.8605
  150SAPE   H5X16649   4.407   3.475   9.778 -1.9125  0.1593 -3.0930
  150SAPE   H5Y16650   4.321   3.308   9.820 -0.6819 -3.4173 -2.6436
  150SAPE   C3616651   4.374   3.338   9.618  0.1348  0.1919  0.4389
  150SAPE   H6X16652   4.454   3.394   9.564  2.0008 -1.0068  1.8109
  150SAPE   H6Y16653   4.275   3.377   9.586 -0.3682 -0.7510  0.8045
  150SAPE   C3716654   4.384   3.188   9.561  0.1263  0.6701 -0.4620
  150SAPE   H7X16655   4.323   3.126   9.631 -2.1090  0.8471 -2.1215
  150SAPE   H7Y16656   4.489   3.155   9.572  0.2142  1.3981  1.2649
  150SAPE   C3816657   4.351   3.168   9.419 -0.4674  0.0465  0.1307
  150SAPE   H8X16658   4.249   3.193   9.383  0.2170  1.8309 -0.6904
  150SAPE   H8Y16659   4.360   3.060   9.393 -1.7250 -0.2943  1.0446
  150SAPE   C3916660   4.424   3.265   9.326 -0.7730  0.2722  0.5849
  150SAPE   H9X16661   4.528   3.285   9.362 -0.9458 -0.5348  1.5882
  150SAPE   H9Y16662   4.378   3.366   9.341  1.9281  1.4967  1.2828
  150SAPE  C31016663   4.415   3.227   9.183 -0.3154 -0.4089  0.1106
  150SAPE  H10X16664   4.453   3.310   9.120 -1.2296  0.8238  1.1379
  150SAPE  H10Y16665   4.305   3.224   9.164 -0.3917 -2.7362  0.6439
  150SAPE  C31116666   4.466   3.089   9.146  0.4385 -0.1633 -0.1955
  150SAPE  H11X16667   4.406   3.013   9.201 -0.9324  1.5461  0.7416
  150SAPE  H11Y16668   4.574   3.071   9.167  0.6903 -0.7530 -1.8098
  150SAPE  C31216669   4.461   3.055   9.002  0.3211  0.3867 -0.0943
  150SAPE  H12X16670   4.518   3.128   8.940 -1.7554 -0.1289 -2.7776
  150SAPE  H12Y16671   4.356   3.042   8.967  0.1008  1.7466 -0.0115
  150SAPE  C31316672   4.519   2.916   8.980 -0.9156 -0.3946 -0.2145
  150SAPE  H13X16673   4.463   2.842   9.042  0.5505 -0.1316  1.4727
  150SAPE  H13Y16674   4.617   2.915   9.032 -0.5436 -0.9914 -0.9018
  150SAPE  C31416675   4.547   2.873   8.832 -0.3040  0.5629 -0.2571
  150SAPE  H14X16676   4.461   2.880   8.763 -0.1242  1.2692 -0.4185
  150SAPE  H14Y16677   4.588   2.770   8.823  1.4931  1.1458  0.7060
  150SAPE  C31516678   4.666   2.950   8.770  0.7646 -0.8552 -0.2986
  150SAPE  H15X16679   4.721   2.984   8.861 -0.4326  1.2085 -0.2801
  150SAPE  H15Y16680   4.630   3.046   8.728 -2.0194 -2.1170 -1.0620
  150SAPE  C31616681   4.757   2.874   8.684 -1.0706  0.5508 -0.2373
  150SAPE  H16X16682   4.714   2.875   8.581 -0.3109 -0.2325 -0.5711
  150SAPE  H16Y16683   4.768   2.767   8.712  0.9504  0.3540 -1.6053
  150SAPE  C31716684   4.898   2.944   8.667  0.0660  1.2179  0.4972
  150SAPE  H17X16685   4.957   2.914   8.756  0.1669 -0.4229 -0.0992
  150SAPE  H17Y16686   4.882   3.054   8.661  0.1718  1.1726 -2.4555
  150SAPE  C31816687   4.967   2.900   8.539 -1.0537  0.2250 -0.4506
  150SAPE  H18X16688   4.911   2.922   8.446 -0.0232 -0.4907 -1.2701
  150SAPE  H18Y16689   4.976   2.789   8.532  1.7270  0.3899 -0.6887
  150SAPE  H18Z16690   5.073   2.934   8.530 -0.6361 -1.0379 -0.5547
  151SAPE     N16691   4.526   6.305  10.545  0.4724  0.2567 -0.3337
  151SAPE   HN116692   4.555   6.405  10.535 -3.3810  1.4909 -0.9452
  151SAPE   HN216693   4.518   6.261  10.451 -3.0055 -0.2909  0.0995
  151SAPE   HN316694   4.430   6.307  10.583  1.3312  0.7775  1.9823
  151SAPE   C1216695   4.610   6.215  10.628 -0.6186 -0.4476  0.0962
  151SAPE  H12A16696   4.589   6.227  10.736 -0.3585 -0.1827  0.1185
  151SAPE  H12B16697   4.718   6.230  10.607 -0.9407  2.2977  0.1485
  151SAPE   C1116698   4.591   6.066  10.590 -0.5183 -0.1572  0.3529
  151SAPE  H11A16699   4.488   6.030  10.610 -0.2428 -2.5348 -1.9255
  151SAPE  H11B16700   4.665   6.011  10.653  0.1580 -0.4131 -0.6351
  151SAPE     P16701   4.607   5.920  10.383 -0.0795 -0.0896 -0.1045
  151SAPE   O1316702   4.661   5.812  10.468 -1.1860  0.3176  0.3181
  151SAPE   O1416703   4.460   5.916  10.349 -0.3094  0.2480 -0.0696
  151SAPE   O1216704   4.627   6.061  10.452 -0.1526  0.2166 -0.3717
  151SAPE   O1116705   4.691   5.938  10.255 -0.4392 -0.1416 -0.0928
  151SAPE    C116706   4.728   6.056  10.191 -0.4305  0.0615 -0.6956
  151SAPE    HA16707   4.716   6.047  10.081 -0.4687  2.0572 -0.8899
  151SAPE    HB16708   4.657   6.138  10.214 -1.0382 -1.0258  1.6545
  151SAPE    C216709   4.875   6.115  10.206  0.7057  0.2142  0.2132
  151SAPE    HS16710   4.879   6.205  10.141 -0.2274  0.6349  0.7255
  151SAPE   O2116711   4.964   6.015  10.162  0.3695 -0.5844 -0.2444
  151SAPE   C2116712   4.989   6.008  10.035 -0.3511 -0.5027  0.0072
  151SAPE   O2216713   4.943   6.083   9.950  0.0758  0.3593 -0.4245
  151SAPE   C2216714   5.083   5.892  10.005 -0.8425  0.1898 -0.2463
  151SAPE   H2R16715   5.187   5.906  10.042  0.0056  0.0132 -2.3749
  151SAPE   H2S16716   5.050   5.815  10.078  1.2276  0.7795  1.4172
  151SAPE    C316717   4.901   6.157  10.350 -0.4756 -0.7112 -0.1968
  151SAPE    HX16718   4.910   6.068  10.415 -0.9955 -1.7388 -1.5014
  151SAPE    HY16719   4.801   6.196  10.378 -0.8101 -0.7312 -1.3215
  151SAPE   O3116720   5.007   6.259  10.359  0.0911 -0.3030  0.7714
  151SAPE   C3116721   5.130   6.203  10.373  0.1961 -0.2533 -0.0364
  151SAPE   O3216722   5.150   6.082  10.383 -0.0954  0.0733 -0.2711
  151SAPE   C3216723   5.234   6.308  10.383 -0.4613 -0.6595  0.6170
  151SAPE   H2X16724   5.334   6.261  10.397 -1.1240 -1.8443  1.5853
  151SAPE   H2Y16725   5.199   6.377  10.463  0.7057 -0.0237  0.6000
  151SAPE   C2316726   5.081   5.838   9.864  0.1329  1.0875 -0.2728
  151SAPE   H3R16727   4.978   5.816   9.828  0.1469  0.4603  0.0579
  151SAPE   H3S16728   5.126   5.737   9.852 -2.5085  0.1563 -4.5217
  151SAPE   C2416729   5.166   5.928   9.768  0.3280  1.0047 -0.0492
  151SAPE   H4R16730   5.135   6.031   9.794  1.7347  1.4510 -0.0717
  151SAPE   H4S16731   5.144   5.900   9.663  1.9389 -0.1146 -0.1306
  151SAPE   C2516732   5.312   5.900   9.799  0.0979  0.4239 -0.3850
  151SAPE   H5R16733   5.338   5.920   9.904 -1.1999  0.2127 -0.0037
  151SAPE   C2616734   5.413   5.856   9.718 -0.1346 -1.3322  0.0311
  151SAPE   H6R16735   5.515   5.855   9.759 -0.1472  0.1281  0.1218
  151SAPE   C2716736   5.405   5.813   9.574 -0.7045  0.7061  0.7346
  151SAPE   H7R16737   5.323   5.740   9.553  0.6318 -0.0823 -2.2884
  151SAPE   H7S16738   5.493   5.751   9.546 -2.5684 -1.9137  0.2669
  151SAPE   C2816739   5.385   5.935   9.483  0.1162  0.3352  0.2191
  151SAPE   H8R16740   5.384   6.032   9.536 -0.2334  0.2397  0.3914
  151SAPE   C2916741   5.362   5.930   9.352  0.3803 -0.3276  0.2695
  151SAPE   H9R16742   5.339   6.023   9.299  0.6893  1.3084  2.8626
  151SAPE  C21016743   5.355   5.815   9.261 -0.6441 -0.3581 -0.9607
  151SAPE  H10R16744   5.253   5.800   9.219 -1.2493 -1.7641  0.8739
  151SAPE  H10S16745   5.380   5.725   9.322 -1.6584  0.8628  1.3700
  151SAPE  C21116746   5.465   5.814   9.158 -1.0328 -0.3723 -0.6227
  151SAPE  H11R16747   5.558   5.860   9.195 -2.5125 -0.1190  3.2214
  151SAPE  C21216748   5.457   5.776   9.029  0.4928  0.4546  0.2814
  151SAPE  H12R16749   5.542   5.801   8.963  0.9889 -3.3514 -0.8119
  151SAPE  C21316750   5.331   5.724   8.956 -0.3313  0.3471  0.6662
  151SAPE  H13R16751   5.306   5.802   8.882 -0.3213 -1.3022 -1.1784
  151SAPE  H13S16752   5.240   5.715   9.020 -2.9733  0.9167 -2.7707
  151SAPE  C21416753   5.355   5.589   8.896 -0.2386  0.7070  0.3782
  151SAPE  H14R16754   5.363   5.512   8.974  0.4669 -0.4209 -0.7613
  151SAPE  C21516755   5.370   5.562   8.763  0.2780 -0.9237  0.1771
  151SAPE  H15R16756   5.384   5.459   8.728  1.6534 -0.8667  0.4955
  151SAPE  C21616757   5.369   5.664   8.646 -0.0906  0.6669  0.3111
  151SAPE  H16R16758   5.308   5.756   8.662 -0.1242  0.4082  1.8477
  151SAPE  H16S16759   5.315   5.623   8.558  1.2252  1.0000 -0.6787
  151SAPE  C21716760   5.514   5.688   8.608  0.5666 -0.4095  0.2654
  151SAPE  H17R16761   5.534   5.617   8.524 -0.9532 -0.6079  0.0392
  151SAPE  H17S16762   5.580   5.671   8.696 -0.9322 -3.2854  0.9474
  151SAPE  C21816763   5.534   5.833   8.558  0.1032 -0.1232  0.1135
  151SAPE  H18R16764   5.644   5.848   8.553  0.2627  0.1349  2.7587
  151SAPE  H18S16765   5.488   5.907   8.627 -0.4117 -2.6363  2.6639
  151SAPE  C21916766   5.472   5.847   8.418 -0.3872 -0.1461 -0.6958
  151SAPE  H19R16767   5.362   5.849   8.428 -0.4890 -1.3862 -1.3988
  151SAPE  H19S16768   5.510   5.755   8.369  1.0562  0.4068 -0.6848
  151SAPE  C22016769   5.507   5.967   8.325 -0.6680  0.0725 -0.1242
  151SAPE  H20R16770   5.436   6.052   8.331 -0.0874  0.6090 -0.5986
  151SAPE  H20S16771   5.508   5.919   8.224  1.6578  0.6310 -0.4356
  151SAPE  H20T16772   5.606   6.014   8.344 -0.3157 -0.6885 -0.0339
  151SAPE   C3316773   5.234   6.390  10.253 -0.6078 -0.5185  0.1396
  151SAPE   H3X16774   5.305   6.475  10.263  0.7506 -1.3068 -2.0506
  151SAPE   H3Y16775   5.136   6.442  10.243 -0.3675 -0.4567 -2.9599
  151SAPE   C3416776   5.260   6.313  10.120 -0.7375 -0.2198  0.7943
  151SAPE   H4X16777   5.168   6.253  10.104 -1.2507  0.2762  1.8044
  151SAPE   H4Y16778   5.345   6.241  10.124 -2.4331 -2.2846  1.3142
  151SAPE   C3516779   5.266   6.402   9.991 -0.2275 -1.0421 -0.3755
  151SAPE   H5X16780   5.351   6.472  10.004 -0.6162 -0.5136 -0.6655
  151SAPE   H5Y16781   5.169   6.456   9.987  0.6800  0.7192  0.2601
  151SAPE   C3616782   5.299   6.331   9.860 -0.9182  0.1845 -0.2350
  151SAPE   H6X16783   5.223   6.254   9.832  1.3384 -2.3024  0.0805
  151SAPE   H6Y16784   5.386   6.274   9.898  0.3156  1.7139 -0.6938
  151SAPE   C3716785   5.330   6.423   9.744 -0.1938  0.2570  0.5060
  151SAPE   H7X16786   5.427   6.472   9.767  0.7007 -0.7305 -0.9661
  151SAPE   H7Y16787   5.242   6.489   9.728 -2.0567 -2.1727 -0.0477
  151SAPE   C3816788   5.342   6.342   9.615  0.5669 -0.1914  0.3595
  151SAPE   H8X16789   5.288   6.245   9.617 -0.1487  0.2106  1.5198
  151SAPE   H8Y16790   5.448   6.311   9.601  0.8497  1.1476 -0.5984
  151SAPE   C3916791   5.301   6.434   9.495 -0.2986  1.5013  0.1601
  151SAPE   H9X16792   5.363   6.526   9.488 -0.6328  1.5934 -2.3692
  151SAPE   H9Y16793   5.194   6.464   9.493 -0.0727  2.2966 -1.7542
  151SAPE  C31016794   5.322   6.362   9.358 -0.7968 -0.5409  0.2573
  151SAPE  H10X16795   5.262   6.269   9.370  0.6047 -1.5833 -0.5295
  151SAPE  H10Y16796   5.431   6.343   9.352 -0.8269 -0.4755 -0.4974
  151SAPE  C31116797   5.265   6.457   9.254 -0.5178 -0.0942  0.0088
  151SAPE  H11X16798   5.310   6.557   9.271  0.6051  0.0521 -3.1441
  151SAPE  H11Y16799   5.155   6.470   9.261 -0.4087  0.8135  0.2807
  151SAPE  C31216800   5.306   6.430   9.100 -0.3930  0.5398  0.0735
  151SAPE  H12X16801   5.414   6.452   9.092  0.3652 -2.5139  0.4229
  151SAPE  H12Y16802   5.242   6.483   9.027 -1.3689 -1.4516 -0.5921
  151SAPE  C31316803   5.284   6.282   9.053 -0.2682 -0.0136 -0.2701
  151SAPE  H13X16804   5.304   6.197   9.122 -1.4184 -2.2900 -2.5725
  151SAPE  H13Y16805   5.365   6.266   8.978 -0.7719 -3.0314 -0.2925
  151SAPE  C31416806   5.158   6.247   8.970 -0.2246 -0.0665  0.2505
  151SAPE  H14X16807   5.131   6.331   8.902 -1.4307 -1.2496 -0.7871
  151SAPE  H14Y16808   5.091   6.229   9.057 -0.2776 -0.4343  0.1369
  151SAPE  C31516809   5.172   6.116   8.888 -0.2291  0.6617  0.8664
  151SAPE  H15X16810   5.068   6.096   8.856  0.3348  1.5452 -1.7205
  151SAPE  H15Y16811   5.200   6.029   8.953  0.1542  1.2032  1.4382
  151SAPE  C31616812   5.274   6.109   8.771  0.2122 -0.6432  0.5253
  151SAPE  H16X16813   5.316   6.007   8.757 -1.4817 -1.1540 -1.3276
  151SAPE  H16Y16814   5.353   6.187   8.779  0.2535 -0.5745 -0.4683
  151SAPE  C31716815   5.206   6.116   8.634  0.9749 -0.0160  0.1726
  151SAPE  H17X16816   5.148   6.024   8.613 -2.1727  2.0131 -0.7277
  151SAPE  H17Y16817   5.292   6.126   8.565  0.4788  3.2192 -0.1698
  151SAPE  C31816818   5.122   6.237   8.611 -0.3762 -0.1140  0.1015
  151SAPE  H18X16819   5.035   6.229   8.680 -1.4509  1.1503 -1.0557
  151SAPE  H18Y16820   5.077   6.233   8.510  1.3594 -2.0062 -0.6671
  151SAPE  H18Z16821   5.164   6.338   8.628 -0.8961  0.2994 -0.9711
  152SAPE     N16822   4.400   5.195  10.926  0.1322  0.1713 -0.0548
  152SAPE   HN116823   4.332   5.233  10.858  0.3896  0.0081 -0.4071
  152SAPE   HN216824   4.355   5.212  11.018 -0.4529  0.3588 -0.3688
  152SAPE   HN316825   4.476   5.266  10.927  0.3304 -0.0157 -1.1594
  152SAPE   C1216826   4.449   5.056  10.898  0.0334  0.3933 -0.7617
  152SAPE  H12A16827   4.377   4.982  10.939 -0.5629  1.3907  0.0472
  152SAPE  H12B16828   4.548   5.047  10.947 -0.1306  0.5748 -0.3910
  152SAPE   C1116829   4.479   5.034  10.748 -0.3358  0.3136 -0.2641
  152SAPE  H11A16830   4.540   4.942  10.742  1.4269  1.3744  0.4582
  152SAPE  H11B16831   4.547   5.117  10.717 -0.7137  1.5655  2.0722
  152SAPE     P16832   4.309   4.917  10.599 -0.3805 -0.2234  0.1784
  152SAPE   O1316833   4.307   4.805  10.692 -0.3340  0.1793 -0.4811
  152SAPE   O1416834   4.185   4.945  10.520 -0.2902 -0.1287 -0.4825
  152SAPE   O1216835   4.360   5.043  10.676  0.0696 -0.1994  0.2407
  152SAPE   O1116836   4.429   4.886  10.500  0.6807  0.0756 -0.8632
  152SAPE    C116837   4.414   4.770  10.418 -0.0467  0.6347  0.3331
  152SAPE    HA16838   4.515   4.725  10.412  0.0641  0.6787  1.5102
  152SAPE    HB16839   4.347   4.687  10.451  0.7775 -0.2989 -0.2846
  152SAPE    C216840   4.395   4.787  10.266  0.4342  0.1701  0.2641
  152SAPE    HS16841   4.431   4.698  10.211  2.9795 -1.5437  4.2837
  152SAPE   O2116842   4.453   4.909  10.222  0.5177  0.8530 -0.4353
  152SAPE   C2116843   4.570   4.901  10.174 -0.3846  0.2401 -0.0589
  152SAPE   O2216844   4.648   4.807  10.171  0.2744  0.7580  0.0237
  152SAPE   C2216845   4.593   5.031  10.099 -0.2368  0.3686 -0.2993
  152SAPE   H2R16846   4.533   5.113  10.145 -1.5264  0.4945 -2.1029
  152SAPE   H2S16847   4.700   5.053  10.115 -0.9699  2.4347  2.7373
  152SAPE    C316848   4.236   4.796  10.226 -0.1945  0.1780  0.1872
  152SAPE    HX16849   4.206   4.891  10.276 -1.4233  0.4915 -1.0884
  152SAPE    HY16850   4.172   4.715  10.267 -0.2122  0.2006  0.2044
  152SAPE   O3116851   4.211   4.811  10.085 -0.2632 -0.0645 -0.0305
  152SAPE   C3116852   4.083   4.845  10.063 -0.2279 -0.7396 -0.2620
  152SAPE   O3216853   3.997   4.855  10.149 -1.2062 -0.2538  0.1162
  152SAPE   C3216854   4.054   4.889   9.920 -0.7383  0.1313  0.7118
  152SAPE   H2X16855   4.113   4.982   9.906 -0.5859  0.1177  1.2228
  152SAPE   H2Y16856   3.947   4.917   9.910 -0.0573  2.1305 -2.4275
  152SAPE   C2316857   4.568   5.006   9.951 -0.0770  0.0079 -0.1761
  152SAPE   H3R16858   4.624   4.923   9.905  3.0750  2.7440 -1.7141
  152SAPE   H3S16859   4.611   5.092   9.895  1.7977 -0.3812  0.6030
  152SAPE   C2416860   4.423   5.001   9.910  0.4759 -0.6307 -0.1668
  152SAPE   H4R16861   4.381   5.095   9.951  1.0067  0.3536 -1.8358
  152SAPE   H4S16862   4.372   4.913   9.957  1.9787 -1.0296  0.7977
  152SAPE   C2516863   4.425   4.991   9.760  0.3752  0.7325 -0.6496
  152SAPE   H5R16864   4.464   4.895   9.721 -0.5176 -0.3016  0.9022
  152SAPE   C2616865   4.386   5.082   9.667 -0.0777  0.0466  0.0839
  152SAPE   H6R16866   4.393   5.048   9.562 -3.5793 -2.8657  0.6257
  152SAPE   C2716867   4.333   5.223   9.689 -0.5128  0.5573  1.2390
  152SAPE   H7R16868   4.338   5.261   9.585 -2.6176 -1.8623  0.1371
  152SAPE   H7S16869   4.409   5.285   9.740  1.3580  0.1370 -0.8967
  152SAPE   C2816870   4.203   5.226   9.762 -0.1904  0.3080 -0.0225
  152SAPE   H8R16871   4.196   5.167   9.854 -0.0767 -0.1645 -0.3161
  152SAPE   C2916872   4.089   5.277   9.715 -0.7181  0.7022  0.2368
  152SAPE   H9R16873   4.002   5.263   9.781 -0.8077 -0.8191 -0.1746
  152SAPE  C21016874   4.060   5.348   9.584  0.2621  0.4249  0.4810
  152SAPE  H10R16875   4.095   5.453   9.593 -0.5899  0.8029 -0.4405
  152SAPE  H10S16876   3.951   5.352   9.561  0.5054 -0.4399 -0.9437
  152SAPE  C21116877   4.107   5.292   9.453  0.0441  0.1698  0.9457
  152SAPE  H11R16878   4.177   5.207   9.457 -0.5721 -0.4861 -1.1833
  152SAPE  C21216879   4.080   5.330   9.324 -0.1411 -0.1378  0.4307
  152SAPE  H12R16880   4.104   5.268   9.237  0.3952  0.7283 -0.0623
  152SAPE  C21316881   3.988   5.443   9.280  0.1662 -0.1459  0.4761
  152SAPE  H13R16882   3.974   5.508   9.368  2.3516  0.6647  0.2693
  152SAPE  H13S16883   3.895   5.392   9.246  1.2325 -2.1953  0.4428
  152SAPE  C21416884   4.038   5.528   9.170  0.5256 -0.5927  0.7555
  152SAPE  H14R16885   4.100   5.616   9.190  1.6556 -1.6877  2.3095
  152SAPE  C21516886   4.023   5.519   9.035 -0.1343  0.3884 -0.6472
  152SAPE  H15R16887   4.064   5.597   8.969  0.5519 -0.4074 -1.1784
  152SAPE  C21616888   3.956   5.408   8.949  0.2633 -0.3130  0.2635
  152SAPE  H16R16889   3.886   5.458   8.879  0.3344  0.8054  0.9631
  152SAPE  H16S16890   3.904   5.336   9.015  0.0771 -1.3945 -1.0219
  152SAPE  C21716891   4.065   5.327   8.885  0.0504 -0.4301 -0.1375
  152SAPE  H17R16892   4.158   5.320   8.944  0.8003  1.0632 -1.0878
  152SAPE  H17S16893   4.096   5.383   8.794 -0.0862 -1.2606 -0.7019
  152SAPE  C21816894   4.009   5.188   8.847 -0.5341 -0.0523 -0.2075
  152SAPE  H18R16895   3.899   5.198   8.836 -0.5753  0.4024  0.5480
  152SAPE  H18S16896   4.009   5.122   8.936 -1.0259 -0.9885 -0.8916
  152SAPE  C21916897   4.076   5.127   8.724 -0.2332  0.5590 -0.5053
  152SAPE  H19R16898   4.182   5.100   8.743  0.1225  0.9653 -1.7772
  152SAPE  H19S16899   4.079   5.209   8.649 -3.1223  2.4210  1.2328
  152SAPE  C22016900   4.005   4.998   8.665  0.4692  0.5282 -0.0641
  152SAPE  H20R16901   4.054   4.970   8.569  0.0502  1.7723 -0.6729
  152SAPE  H20S16902   3.901   5.030   8.641 -0.5054 -0.5304  2.4722
  152SAPE  H20T16903   4.010   4.917   8.740  0.3027  0.9126  0.3651
  152SAPE   C3316904   4.107   4.794   9.807  0.2775 -0.6008  0.7462
  152SAPE   H3X16905   4.071   4.690   9.820 -3.4730  0.5389  0.5255
  152SAPE   H3Y16906   4.217   4.777   9.811  0.6231  1.4532  0.9759
  152SAPE   C3416907   4.067   4.840   9.664 -0.0147 -0.2604  0.6397
  152SAPE   H4X16908   4.129   4.930   9.643 -1.7985  0.5812 -1.4661
  152SAPE   H4Y16909   3.959   4.865   9.662  0.1731  0.9984  2.8356
  152SAPE   C3516910   4.092   4.728   9.560 -0.3124 -0.4211 -0.7692
  152SAPE   H5X16911   4.033   4.640   9.593  0.5628 -0.4498  0.8239
  152SAPE   H5Y16912   4.198   4.697   9.567 -0.9551 -2.4353  0.7782
  152SAPE   C3616913   4.070   4.770   9.410 -0.5108  0.9446 -0.4192
  152SAPE   H6X16914   3.972   4.819   9.395 -1.7645 -1.0552  0.8156
  152SAPE   H6Y16915   4.074   4.676   9.351  2.7765 -0.0201  1.0892
  152SAPE   C3716916   4.181   4.868   9.354 -0.2615  0.2567 -0.1038
  152SAPE   H7X16917   4.280   4.818   9.360  0.4164  1.5055 -0.5623
  152SAPE   H7Y16918   4.191   4.958   9.420  4.4342  0.5926 -0.9427
  152SAPE   C3816919   4.178   4.903   9.205 -0.0859  0.9669 -0.4900
  152SAPE   H8X16920   4.090   4.968   9.185  0.0936  0.8137 -1.8549
  152SAPE   H8Y16921   4.155   4.802   9.166  0.2767  0.2708  1.0526
  152SAPE   C3916922   4.304   4.964   9.139 -0.1580  0.2389 -0.1466
  152SAPE   H9X16923   4.384   4.917   9.200  0.4118  2.5961  1.0285
  152SAPE   H9Y16924   4.317   5.070   9.170  1.8940 -0.3027  1.0522
  152SAPE  C31016925   4.323   4.926   8.998 -0.1820 -0.8444 -0.3352
  152SAPE  H10X16926   4.262   4.998   8.939  1.0986 -0.8164 -1.6860
  152SAPE  H10Y16927   4.266   4.832   8.983 -1.5276 -0.0784 -0.2082
  152SAPE  C31116928   4.469   4.928   8.945  0.7148  0.0621  0.1563
  152SAPE  H11X16929   4.535   4.869   9.012  3.9409  3.2558  0.0936
  152SAPE  H11Y16930   4.515   5.027   8.965  0.2751 -0.0853  2.1453
  152SAPE  C31216931   4.474   4.883   8.799  0.1906 -0.1736  0.3254
  152SAPE  H12X16932   4.395   4.946   8.753  0.6202 -0.0639 -0.2706
  152SAPE  H12Y16933   4.444   4.777   8.805 -0.8207  0.1614  2.1484
  152SAPE  C31316934   4.604   4.901   8.729 -0.0461 -0.0178  1.1102
  152SAPE  H13X16935   4.679   4.839   8.784 -1.7396 -3.1457  0.1522
  152SAPE  H13Y16936   4.641   5.006   8.731  0.8521 -0.3073  0.4850
  152SAPE  C31416937   4.608   4.863   8.582  0.3674  0.4850  1.0106
  152SAPE  H14X16938   4.508   4.898   8.549 -1.3086 -3.4250  1.3970
  152SAPE  H14Y16939   4.596   4.754   8.567  0.5284  0.6431 -0.3612
  152SAPE  C31516940   4.733   4.911   8.512 -0.0981  0.1302 -0.2529
  152SAPE  H15X16941   4.744   5.021   8.522 -0.7932  0.1250  0.8041
  152SAPE  H15Y16942   4.736   4.891   8.403  1.3150  0.8536 -0.3707
  152SAPE  C31616943   4.855   4.854   8.584  0.4705  0.1151 -0.3006
  152SAPE  H16X16944   4.840   4.744   8.591 -1.6674  0.2798 -1.5777
  152SAPE  H16Y16945   4.864   4.892   8.688 -0.2348  1.7436 -0.8065
  152SAPE  C31716946   4.980   4.901   8.504  0.1778  0.8465 -0.3283
  152SAPE  H17X16947   5.073   4.882   8.561  0.0221 -3.0252 -1.0720
  152SAPE  H17Y16948   4.974   5.005   8.465  1.2887  0.8017 -0.6367
  152SAPE  C31816949   5.017   4.803   8.387 -0.3419 -0.4364  0.2722
  152SAPE  H18X16950   5.019   4.698   8.423 -1.3967 -0.6315 -0.1830
  152SAPE  H18Y16951   5.108   4.849   8.343 -0.8907  0.4022 -0.0149
  152SAPE  H18Z16952   4.938   4.822   8.311 -1.4171  0.0448  1.4607
  153SAPE     N16953   4.252   0.064  10.737 -0.6505 -0.0750  0.6510
  153SAPE   HN116954   4.178   0.048  10.809 -3.1005  1.5657 -1.3464
  153SAPE   HN216955   4.318  -0.017  10.741 -0.9251 -0.3987 -0.8631
  153SAPE   HN316956   4.300   0.152  10.765  0.3797 -0.2211 -0.5710
  153SAPE   C1216957   4.194   0.081  10.597 -0.0829 -0.2364 -0.2443
  153SAPE  H12A16958   4.090   0.116  10.614  0.3105  0.1071  1.7169
  153SAPE  H12B16959   4.184  -0.021  10.555 -0.0634 -0.7167  0.8958
  153SAPE   C1116960   4.275   0.160  10.500  0.6012 -0.6346 -0.6017
  153SAPE  H11A16961   4.223   0.170  10.402  0.0507  0.4604 -0.2118
  153SAPE  H11B16962   4.371   0.108  10.480 -0.3538 -2.2454 -1.1399
  153SAPE     P16963   4.213   0.406  10.568  0.5526  0.2080  0.3662
  153SAPE   O1316964   4.073   0.358  10.575 -0.5064 -0.1049 -0.1695
  153SAPE   O1416965   4.253   0.500  10.671  0.0381  0.4977  0.3300
  153SAPE   O1216966   4.313   0.284  10.569  0.1402  0.5024 -0.0960
  153SAPE   O1116967   4.234   0.479  10.427  0.1164 -0.1594 -0.0030
  153SAPE    C116968   4.362   0.462  10.359  0.2946  0.3608 -0.3788
  153SAPE    HA16969   4.442   0.497  10.428  1.2514  1.5989 -2.0442
  153SAPE    HB16970   4.373   0.352  10.348 -3.1427 -0.2969  1.4745
  153SAPE    C216971   4.357   0.532  10.225 -0.9292 -0.9605 -0.0859
  153SAPE    HS16972   4.458   0.546  10.181 -1.1521  1.4912  0.0777
  153SAPE   O2116973   4.285   0.659  10.244  0.3683 -0.5412  0.6066
  153SAPE   C2116974   4.352   0.740  10.322  0.3218 -0.0466  0.0689
  153SAPE   O2216975   4.467   0.727  10.363 -0.1026  0.4589 -0.3183
  153SAPE   C2216976   4.256   0.856  10.356 -0.5850 -0.1279 -0.3533
  153SAPE   H2R16977   4.164   0.842  10.296  0.2256 -1.0348 -1.4187
  153SAPE   H2S16978   4.240   0.849  10.466 -0.0255  3.3082  0.0468
  153SAPE    C316979   4.269   0.455  10.127  0.3308  0.3620 -0.0849
  153SAPE    HX16980   4.275   0.513  10.033 -0.4640  0.8670  0.1716
  153SAPE    HY16981   4.168   0.462  10.171  0.2122  1.8395 -0.5334
  153SAPE   O3116982   4.315   0.323  10.108 -0.2075  0.3272 -0.3652
  153SAPE   C3116983   4.231   0.217  10.101 -0.6373 -0.4921 -0.5596
  153SAPE   O3216984   4.108   0.225  10.111 -0.2489 -0.7966  0.2994
  153SAPE   C3216985   4.313   0.093  10.075 -0.0468 -0.8260 -0.1093
  153SAPE   H2X16986   4.328   0.055  10.178 -2.3927  1.5751  1.2134
  153SAPE   H2Y16987   4.409   0.124  10.027 -1.3174  0.3721 -1.9916
  153SAPE   C2316988   4.314   0.995  10.328 -0.0837  0.9834 -1.1209
  153SAPE   H3R16989   4.388   1.012  10.410 -2.0666  0.2416  0.9250
  153SAPE   H3S16990   4.234   1.069  10.345  0.0940  0.8741  0.3322
  153SAPE   C2416991   4.377   1.016  10.191 -0.1082  0.2820  0.0462
  153SAPE   H4R16992   4.453   0.943  10.156 -1.3218 -0.5383 -0.9672
  153SAPE   H4S16993   4.418   1.119  10.185  1.7961 -0.4764 -0.8787
  153SAPE   C2516994   4.257   1.009  10.092  0.2190 -0.1595 -0.2485
  153SAPE   H5R16995   4.162   1.046  10.132  1.5701  1.0199  2.1325
  153SAPE   C2616996   4.243   0.953   9.971  0.2399  0.4240 -0.2249
  153SAPE   H6R16997   4.145   0.955   9.921 -0.0829  2.9115  0.3527
  153SAPE   C2716998   4.367   0.894   9.900 -0.0389 -0.0606 -0.6587
  153SAPE   H7R16999   4.389   0.789   9.929 -0.5824  0.1391  0.5360
  153SAPE   H7S17000   4.460   0.948   9.927  0.2265 -0.4044 -0.8635
  153SAPE   C2817001   4.350   0.910   9.751 -0.0068  0.4996 -0.5278
  153SAPE   H8R17002   4.375   1.010   9.713 -0.3402  0.6943 -0.2429
  153SAPE   C2917003   4.323   0.803   9.672  0.1857  0.3931  0.1617
  153SAPE   H9R17004   4.305   0.831   9.567  2.1981  3.4400  0.4913
  153SAPE  C21017005   4.285   0.666   9.719  0.3626  0.2587 -0.8991
  153SAPE  H10R17006   4.204   0.625   9.656 -0.2424 -2.9860  1.7465
  153SAPE  H10S17007   4.242   0.674   9.821 -1.3330  0.0461 -1.5792
  153SAPE  C21117008   4.410   0.584   9.733 -0.0584  1.3316  0.1379
  153SAPE  H11R17009   4.458   0.584   9.832 -0.3387  3.8859  0.3475
  153SAPE  C21217010   4.452   0.497   9.636  0.6040 -0.0630 -0.4165
  153SAPE  H12R17011   4.551   0.454   9.655  0.9364  1.4927  1.6485
  153SAPE  C21317012   4.390   0.494   9.493 -0.2558 -0.0385 -0.2578
  153SAPE  H13R17013   4.469   0.513   9.417  2.3694 -0.2761  2.2622
  153SAPE  H13S17014   4.328   0.585   9.474  0.2734 -0.0155 -2.1368
  153SAPE  C21417015   4.308   0.372   9.486  0.3747  0.5103  0.2072
  153SAPE  H14R17016   4.268   0.327   9.578  0.1185  2.2363  0.9780
  153SAPE  C21517017   4.271   0.312   9.370  0.5558 -0.0320 -0.8178
  153SAPE  H15R17018   4.196   0.231   9.367 -1.8059  1.8388  2.3091
  153SAPE  C21617019   4.315   0.359   9.236 -0.6464  0.7137 -0.5637
  153SAPE  H16R17020   4.370   0.280   9.182 -3.7869 -0.5078 -2.2683
  153SAPE  H16S17021   4.382   0.447   9.239  1.6862 -1.0085  0.3813
  153SAPE  C21717022   4.198   0.386   9.145 -0.1912  0.0579  0.4288
  153SAPE  H17R17023   4.134   0.467   9.186  0.3185 -0.7934  3.1535
  153SAPE  H17S17024   4.131   0.298   9.139 -0.5784  0.2487  1.6947
  153SAPE  C21817025   4.250   0.414   9.004  0.2145 -0.2437  0.4664
  153SAPE  H18R17026   4.326   0.338   8.976 -1.4775 -1.7051 -0.4114
  153SAPE  H18S17027   4.289   0.517   8.996 -1.6396  0.3372 -2.0716
  153SAPE  C21917028   4.132   0.401   8.901 -0.6241  0.6393 -0.3428
  153SAPE  H19R17029   4.062   0.487   8.896  1.3082  2.5524  2.4554
  153SAPE  H19S17030   4.071   0.319   8.945 -0.6441  1.6522  1.6604
  153SAPE  C22017031   4.184   0.372   8.759  0.5454  0.8057  0.0097
  153SAPE  H20R17032   4.270   0.302   8.757  0.6458  0.9193  0.3802
  153SAPE  H20S17033   4.219   0.466   8.712  1.3293  0.6242  0.2203
  153SAPE  H20T17034   4.107   0.335   8.687  1.1577 -0.0417 -0.2248
  153SAPE   C3317035   4.245   0.005   9.971 -0.4999 -0.0661 -0.0518
  153SAPE   H3X17036   4.141  -0.019  10.000 -0.6032 -0.3244 -0.6164
  153SAPE   H3Y17037   4.294  -0.094   9.987 -1.4415 -0.2731  1.7149
  153SAPE   C3417038   4.240   0.070   9.829 -1.5657  0.1588 -0.1139
  153SAPE   H4X17039   4.332   0.129   9.810 -0.8956 -0.0327  2.2734
  153SAPE   H4Y17040   4.152   0.136   9.815 -0.4718  1.4343 -1.1597
  153SAPE   C3517041   4.236  -0.044   9.722 -0.3500  0.2825  0.3337
  153SAPE   H5X17042   4.143  -0.105   9.734 -0.0323 -0.3988 -0.5790
  153SAPE   H5Y17043   4.327  -0.102   9.747 -0.1396  1.3340  2.2198
  153SAPE   C3617044   4.223   0.011   9.581  0.1107  0.3554  0.2810
  153SAPE   H6X17045   4.304   0.080   9.550 -0.7663  0.8967 -0.8797
  153SAPE   H6Y17046   4.127   0.066   9.576 -0.7568 -1.2336 -1.6164
  153SAPE   C3717047   4.200  -0.101   9.475  0.2320  0.1331 -0.8297
  153SAPE   H7X17048   4.115  -0.169   9.495 -0.2067  1.5486  2.7665
  153SAPE   H7Y17049   4.290  -0.166   9.481 -0.8371 -1.2723  0.9852
  153SAPE   C3817050   4.193  -0.046   9.330  0.0726 -0.4905 -0.1883
  153SAPE   H8X17051   4.276   0.028   9.325  1.3720 -1.7986  1.1145
  153SAPE   H8Y17052   4.095  -0.002   9.303 -1.2912 -2.0167  2.0063
  153SAPE   C3917053   4.231  -0.156   9.230 -0.0856 -0.8100 -0.8222
  153SAPE   H9X17054   4.158  -0.239   9.238  0.3542 -1.0212  2.3636
  153SAPE   H9Y17055   4.327  -0.205   9.257 -0.5565 -1.9120 -1.1020
  153SAPE  C31017056   4.228  -0.099   9.080 -0.2342 -0.2362  0.1186
  153SAPE  H10X17057   4.284  -0.003   9.078  1.2965 -0.9486  3.1673
  153SAPE  H10Y17058   4.122  -0.098   9.047  0.0332 -2.7838 -1.0271
  153SAPE  C31117059   4.317  -0.186   8.989 -0.6473  1.0461  0.4347
  153SAPE  H11X17060   4.287  -0.292   8.974  0.1365  1.1627 -2.5988
  153SAPE  H11Y17061   4.417  -0.190   9.037  0.9007  4.2369 -2.0883
  153SAPE  C31217062   4.337  -0.127   8.844  0.8199 -0.4248 -0.3559
  153SAPE  H12X17063   4.399  -0.036   8.841 -0.5985  0.5771 -0.3577
  153SAPE  H12Y17064   4.234  -0.113   8.804  0.5510 -2.9822 -0.7358
  153SAPE  C31317065   4.398  -0.232   8.750 -0.0510  0.6532 -0.4280
  153SAPE  H13X17066   4.411  -0.204   8.644 -0.2051 -0.9482 -0.8868
  153SAPE  H13Y17067   4.334  -0.323   8.746  2.1597 -0.9706 -0.3784
  153SAPE  C31417068   4.534  -0.288   8.800  0.3671 -0.2097  0.0265
  153SAPE  H14X17069   4.579  -0.356   8.724  0.5037 -0.5713  0.4252
  153SAPE  H14Y17070   4.525  -0.342   8.897  1.2355 -1.8455 -0.7673
  153SAPE  C31517071   4.651  -0.185   8.805  0.5946 -0.1189 -0.6741
  153SAPE  H15X17072   4.611  -0.102   8.866  2.5128 -1.1843  2.2501
  153SAPE  H15Y17073   4.685  -0.150   8.705  0.5016  1.3908 -0.1964
  153SAPE  C31617074   4.789  -0.227   8.871  0.8847 -0.4318 -1.0759
  153SAPE  H16X17075   4.861  -0.144   8.857  0.0939  0.5583  0.4562
  153SAPE  H16Y17076   4.823  -0.316   8.814 -0.9091 -0.9869 -1.3522
  153SAPE  C31717077   4.778  -0.264   9.018 -0.3480 -0.0421  0.0489
  153SAPE  H17X17078   4.707  -0.349   9.022 -0.0467 -0.3626 -1.1799
  153SAPE  H17Y17079   4.730  -0.182   9.078 -2.6183 -1.4031  0.2180
  153SAPE  C31817080   4.906  -0.302   9.078 -0.6548  0.0480 -0.5175
  153SAPE  H18X17081   4.974  -0.216   9.090  0.1729 -0.8655  1.8503
  153SAPE  H18Y17082   4.960  -0.373   9.011 -0.2505 -0.5829  0.4609
  153SAPE  H18Z17083   4.890  -0.336   9.182  2.1530  0.8449  0.2462
  154SAPE     N17084   4.566   0.803  10.754 -0.1089  0.5086  1.0111
  154SAPE   HN117085   4.670   0.797  10.765  0.0267  1.1701  0.2592
  154SAPE   HN217086   4.526   0.869  10.823 -0.0780  0.0450  1.4733
  154SAPE   HN317087   4.527   0.707  10.758 -0.4357  0.5339 -0.6618
  154SAPE   C1217088   4.557   0.839  10.607 -0.0922 -0.5799  0.0371
  154SAPE  H12A17089   4.449   0.830  10.583 -0.1756 -3.6685  1.1479
  154SAPE  H12B17090   4.620   0.773  10.544  1.5518  1.5583 -0.6923
  154SAPE   C1117091   4.614   0.982  10.589  0.2289  0.8211 -0.0065
  154SAPE  H11A17092   4.617   0.999  10.479 -2.4118 -0.3375 -0.3453
  154SAPE  H11B17093   4.714   0.994  10.636  0.9105  1.0761 -1.4746
  154SAPE     P17094   4.518   1.145  10.777 -0.0299  0.4881  0.1772
  154SAPE   O1317095   4.418   1.252  10.788 -0.4764  0.4810 -0.6776
  154SAPE   O1417096   4.507   1.043  10.883  0.2833 -0.0415 -0.2766
  154SAPE   O1217097   4.512   1.071  10.637 -0.2977 -0.1288 -0.3584
  154SAPE   O1117098   4.663   1.201  10.790 -0.0842  0.1317 -0.3741
  154SAPE    C117099   4.684   1.339  10.763  0.4370 -0.2112  0.1684
  154SAPE    HA17100   4.592   1.399  10.750  0.7054  0.7976  2.4761
  154SAPE    HB17101   4.748   1.387  10.840 -0.5350 -0.8414  1.4007
  154SAPE    C217102   4.763   1.364  10.633  0.2783  0.6538 -0.1995
  154SAPE    HS17103   4.797   1.470  10.622  3.8303 -0.0845  2.1730
  154SAPE   O2117104   4.683   1.316  10.522  0.0248  0.2455 -0.2408
  154SAPE   C2117105   4.581   1.385  10.481  0.2980 -0.2857  0.3037
  154SAPE   O2217106   4.542   1.497  10.523 -0.1636 -0.6030 -0.1463
  154SAPE   C2217107   4.494   1.310  10.386 -0.0503 -0.2167  0.4758
  154SAPE   H2R17108   4.520   1.202  10.387 -0.7714 -0.3934  0.8787
  154SAPE   H2S17109   4.394   1.319  10.434 -0.1073  3.2320 -0.0489
  154SAPE    C317110   4.898   1.284  10.644  0.1656  0.1982  0.2284
  154SAPE    HX17111   4.868   1.190  10.695  1.4622  0.2587  1.1463
  154SAPE    HY17112   4.967   1.339  10.711 -0.6372  1.2508  0.2187
  154SAPE   O3117113   4.955   1.245  10.519 -0.1998 -0.1224 -0.0659
  154SAPE   C3117114   4.989   1.346  10.443 -0.6531 -0.4133 -0.3533
  154SAPE   O3217115   4.996   1.464  10.474 -0.3001  0.5532  0.6054
  154SAPE   C3217116   5.031   1.291  10.305  0.2421  1.0243 -0.3613
  154SAPE   H2X17117   4.943   1.239  10.261  1.4233 -2.6257  1.2058
  154SAPE   H2Y17118   5.102   1.210  10.331 -0.1225  0.7435 -0.2172
  154SAPE   C2317119   4.488   1.382  10.248  0.3155 -0.3722 -0.5031
  154SAPE   H3R17120   4.472   1.492  10.259  2.4543 -0.0432 -0.3550
  154SAPE   H3S17121   4.400   1.342  10.193  0.3398 -3.9374  1.7649
  154SAPE   C2417122   4.624   1.363  10.168  0.0951  0.0318  0.1147
  154SAPE   H4R17123   4.708   1.413  10.221  0.2720  0.2818 -0.3894
  154SAPE   H4S17124   4.609   1.429  10.079 -2.1304  0.3923  0.7056
  154SAPE   C2517125   4.671   1.226  10.138 -0.5589  0.4644  0.9929
  154SAPE   H5R17126   4.683   1.158  10.223 -3.9230 -1.5845  0.0459
  154SAPE   C2617127   4.695   1.174  10.013  0.4575  0.4624 -0.3718
  154SAPE   H6R17128   4.732   1.071  10.022  0.1545  0.4820  1.6040
  154SAPE   C2717129   4.683   1.233   9.880 -0.1280 -0.6646  0.2671
  154SAPE   H7R17130   4.735   1.175   9.801  1.4142  1.1962 -0.1536
  154SAPE   H7S17131   4.731   1.333   9.881  0.2091 -0.8061 -0.6682
  154SAPE   C2817132   4.540   1.242   9.825 -0.3979 -0.0946  0.6142
  154SAPE   H8R17133   4.458   1.218   9.894 -0.7491  3.8791  1.8408
  154SAPE   C2917134   4.524   1.280   9.695 -0.0899 -0.0443  0.3846
  154SAPE   H9R17135   4.423   1.286   9.651  0.2933  0.0085 -0.5167
  154SAPE  C21017136   4.630   1.317   9.586  0.4419  0.2800  0.1181
  154SAPE  H10R17137   4.721   1.366   9.624  1.7358 -0.3212 -2.0622
  154SAPE  H10S17138   4.581   1.395   9.523 -1.1699 -0.7437  0.0356
  154SAPE  C21117139   4.669   1.197   9.506  0.2385 -0.0305 -0.6030
  154SAPE  H11R17140   4.747   1.134   9.551 -1.2577 -1.2098  0.4723
  154SAPE  C21217141   4.612   1.147   9.392 -0.4696 -0.0480  0.0234
  154SAPE  H12R17142   4.658   1.051   9.363  1.2796 -0.5230  3.8545
  154SAPE  C21317143   4.503   1.207   9.317  0.5005 -0.3052 -0.0452
  154SAPE  H13R17144   4.548   1.249   9.224  1.8152 -0.3088  0.5643
  154SAPE  H13S17145   4.473   1.294   9.380  2.3435  0.8677 -0.6802
  154SAPE  C21417146   4.396   1.109   9.266  1.3854  0.2310 -0.1829
  154SAPE  H14R17147   4.376   1.016   9.321  0.6834  1.3970  1.6489
  154SAPE  C21517148   4.333   1.125   9.143 -0.1528 -0.1498  0.3053
  154SAPE  H15R17149   4.256   1.054   9.111 -0.5779  0.8786 -1.0603
  154SAPE  C21617150   4.347   1.231   9.038  0.7682  0.1164  0.2993
  154SAPE  H16R17151   4.415   1.311   9.074  2.4322 -0.4906 -1.3875
  154SAPE  H16S17152   4.247   1.278   9.024 -0.8498 -2.6491  1.6775
  154SAPE  C21717153   4.383   1.176   8.900 -0.4692  0.6498  0.0701
  154SAPE  H17R17154   4.347   1.073   8.883 -0.7287  0.5758  1.0301
  154SAPE  H17S17155   4.493   1.162   8.906 -0.4197  1.4806  3.1169
  154SAPE  C21817156   4.347   1.259   8.777  0.9628  0.0428  0.8338
  154SAPE  H18R17157   4.390   1.361   8.786  0.5968  0.3036 -0.2202
  154SAPE  H18S17158   4.236   1.271   8.769  1.0865  1.1969  0.6869
  154SAPE  C21917159   4.374   1.204   8.636 -0.0407 -0.3579 -0.6905
  154SAPE  H19R17160   4.470   1.147   8.639  1.4086  2.0070  0.6555
  154SAPE  H19S17161   4.381   1.290   8.567 -1.2971  0.5366  0.2499
  154SAPE  C22017162   4.261   1.116   8.594  0.4197 -0.3020  0.6657
  154SAPE  H20R17163   4.173   1.170   8.551  0.6210 -1.4256 -1.2798
  154SAPE  H20S17164   4.223   1.045   8.670 -0.2689 -1.8542 -1.0445
  154SAPE  H20T17165   4.301   1.044   8.520  0.3631 -2.2218  2.4207
  154SAPE   C3317166   5.097   1.397  10.212 -0.2506 -0.0691 -0.5216
  154SAPE   H3X17167   5.183   1.449  10.259  1.0077 -0.0423 -2.7019
  154SAPE   H3Y17168   5.021   1.473  10.183 -0.6509 -0.1963  0.1914
  154SAPE   C3417169   5.149   1.332  10.086 -0.1745 -0.4504  0.3477
  154SAPE   H4X17170   5.224   1.252  10.101  1.2975  1.1650  2.1586
  154SAPE   H4Y17171   5.197   1.418  10.034  0.8378 -0.8288  0.6324
  154SAPE   C3517172   5.060   1.255   9.995  0.4644 -0.1619 -0.2123
  154SAPE   H5X17173   4.963   1.308   9.987  0.3904  0.0064  1.4362
  154SAPE   H5Y17174   5.031   1.154  10.032  2.9115 -2.0521 -2.9853
  154SAPE   C3617175   5.137   1.230   9.861 -0.3017 -0.0091 -0.2085
  154SAPE   H6X17176   5.226   1.163   9.865 -0.8953 -0.9694 -1.8325
  154SAPE   H6Y17177   5.172   1.328   9.821 -0.3130 -0.0199 -0.2453
  154SAPE   C3717178   5.046   1.156   9.756  0.3370  0.0846  0.1687
  154SAPE   H7X17179   4.961   1.227   9.740  1.1916  1.5039  1.6659
  154SAPE   H7Y17180   4.995   1.070   9.803 -0.2771  0.3111 -0.0648
  154SAPE   C3817181   5.119   1.128   9.630  0.1904 -0.2062  0.7930
  154SAPE   H8X17182   5.184   1.037   9.626  2.3441  1.3071 -1.7726
  154SAPE   H8Y17183   5.185   1.211   9.597 -1.6609  0.7291 -0.7159
  154SAPE   C3917184   5.025   1.126   9.505  0.2155  0.3700  0.4405
  154SAPE   H9X17185   4.968   1.221   9.517  0.0668  0.0309  2.7678
  154SAPE   H9Y17186   4.960   1.038   9.489  0.4985  0.6132 -2.9087
  154SAPE  C31017187   5.109   1.125   9.377 -0.0141  0.6923 -1.0494
  154SAPE  H10X17188   5.158   1.025   9.371 -1.1078  0.1625 -1.5346
  154SAPE  H10Y17189   5.194   1.195   9.392  0.6928 -0.0155 -1.6943
  154SAPE  C31117190   5.031   1.154   9.252  0.5355 -0.2563  0.0647
  154SAPE  H11X17191   5.109   1.171   9.175 -0.1398  0.9751 -0.3632
  154SAPE  H11Y17192   4.963   1.241   9.261 -0.1125 -0.6960 -0.4306
  154SAPE  C31217193   4.941   1.044   9.211  0.4398  0.1090 -0.4612
  154SAPE  H12X17194   4.852   1.049   9.277  0.0327  1.5704 -1.0781
  154SAPE  H12Y17195   4.979   0.941   9.229  0.7837  0.2409 -0.4275
  154SAPE  C31317196   4.900   1.050   9.067  0.5957 -0.7467 -0.4690
  154SAPE  H13X17197   4.833   0.968   9.034  0.6011 -0.2366 -1.7789
  154SAPE  H13Y17198   4.991   1.031   9.006 -0.6313  1.0341 -3.0171
  154SAPE  C31417199   4.825   1.173   9.020 -0.5938  0.1936 -0.4783
  154SAPE  H14X17200   4.870   1.266   9.061  0.0094  0.0772 -0.8608
  154SAPE  H14Y17201   4.722   1.164   9.059 -0.6342 -0.3808 -0.6972
  154SAPE  C31517202   4.801   1.191   8.873  0.1250 -0.0069 -0.2897
  154SAPE  H15X17203   4.741   1.105   8.837  1.0138 -1.2482  1.0587
  154SAPE  H15Y17204   4.897   1.171   8.822 -0.9500 -4.8284 -0.9478
  154SAPE  C31617205   4.741   1.335   8.847  0.0714 -0.8242  0.7811
  154SAPE  H16X17206   4.802   1.421   8.885  0.2681 -0.8704  0.5701
  154SAPE  H16Y17207   4.650   1.352   8.908 -0.2966  2.6480 -0.4792
  154SAPE  C31717208   4.715   1.355   8.699  0.0294 -0.1072  0.5533
  154SAPE  H17X17209   4.642   1.439   8.688  0.2027 -0.0652 -0.3508
  154SAPE  H17Y17210   4.673   1.262   8.655 -0.2041  1.1490 -2.0671
  154SAPE  C31817211   4.835   1.396   8.605  0.3225  0.0583 -0.1307
  154SAPE  H18X17212   4.927   1.359   8.655 -1.5137 -1.4657  2.4457
  154SAPE  H18Y17213   4.824   1.504   8.585 -2.1211 -0.2194 -0.6114
  154SAPE  H18Z17214   4.817   1.343   8.509 -0.2347  1.3826 -0.7762
  155SAPE     N17215   5.678   1.962  10.867  0.0114  0.2414 -0.2107
  155SAPE   HN117216   5.774   1.958  10.908 -0.3601  1.6785  0.8454
  155SAPE   HN217217   5.656   1.894  10.791 -1.6889  0.1705  0.3156
  155SAPE   HN317218   5.664   2.053  10.818  0.9916  0.1482 -0.7120
  155SAPE   C1217219   5.568   1.944  10.973  0.2374 -0.1742  0.3823
  155SAPE  H12A17220   5.606   1.989  11.067  1.3471 -0.7920  0.2522
  155SAPE  H12B17221   5.563   1.837  11.001 -0.0039  0.0073  1.0320
  155SAPE   C1117222   5.422   1.987  10.937  0.3368  0.3061 -0.8862
  155SAPE  H11A17223   5.360   1.993  11.029 -0.8008  2.5989 -1.7315
  155SAPE  H11B17224   5.376   1.913  10.868 -1.7717 -0.4571  1.1863
  155SAPE     P17225   5.328   2.156  10.767  0.3079 -0.0508  0.7094
  155SAPE   O1317226   5.181   2.140  10.805  0.1974  0.4340 -0.4408
  155SAPE   O1417227   5.366   2.288  10.711 -0.1425 -0.0610  0.1053
  155SAPE   O1217228   5.419   2.119  10.890  0.0985  0.2767 -0.0226
  155SAPE   O1117229   5.359   2.039  10.666 -0.2415  0.4953 -0.1411
  155SAPE    C117230   5.473   2.038  10.585 -0.5050  0.0004  0.1296
  155SAPE    HA17231   5.564   2.084  10.629  0.5701 -1.5095 -0.4526
  155SAPE    HB17232   5.490   1.932  10.559 -0.5879 -0.6594  2.5265
  155SAPE    C217233   5.435   2.101  10.449 -0.1227 -0.3769 -1.6167
  155SAPE    HS17234   5.414   2.207  10.475 -0.9839 -0.0353 -3.5321
  155SAPE   O2117235   5.320   2.041  10.390 -0.1962 -0.1873  0.0367
  155SAPE   C2117236   5.245   2.123  10.315  0.6582 -0.3045  0.1888
  155SAPE   O2217237   5.257   2.246  10.323 -0.2800 -0.0328  0.1372
  155SAPE   C2217238   5.140   2.041  10.241 -0.4491  0.1081 -0.1493
  155SAPE   H2R17239   5.182   1.939  10.235 -0.6065 -0.1081  1.7316
  155SAPE   H2S17240   5.055   2.034  10.312 -1.7179 -0.3896 -1.6580
  155SAPE    C317241   5.560   2.106  10.360 -0.1631 -0.0416 -0.1157
  155SAPE    HX17242   5.623   2.182  10.411 -2.1484  1.1810  0.6491
  155SAPE    HY17243   5.529   2.155  10.265 -1.8814 -0.7409  0.0399
  155SAPE   O3117244   5.625   1.979  10.327  0.2305 -0.3952  0.5647
  155SAPE   C3117245   5.751   1.968  10.343 -0.2889 -0.4718 -0.0189
  155SAPE   O3217246   5.825   2.055  10.384  0.8068 -0.1862  0.0536
  155SAPE   C3217247   5.788   1.813  10.325  0.0557 -0.8383 -0.1588
  155SAPE   H2X17248   5.749   1.785  10.225 -1.2192 -1.5817  0.5173
  155SAPE   H2Y17249   5.729   1.764  10.406  1.6032  2.8737  3.5963
  155SAPE   C2317250   5.100   2.108  10.107  0.5523 -0.0227 -0.1629
  155SAPE   H3R17251   5.077   2.213  10.133 -0.4941  0.1859 -1.7904
  155SAPE   H3S17252   5.009   2.058  10.066  0.8277  1.3957 -2.7436
  155SAPE   C2417253   5.201   2.114   9.984  0.1176  0.5936 -0.7696
  155SAPE   H4R17254   5.294   2.171  10.007  1.0265 -0.5882 -1.4512
  155SAPE   H4S17255   5.154   2.181   9.909 -0.4617  1.9362  0.7237
  155SAPE   C2517256   5.229   1.980   9.921  0.2239 -0.8333  0.4335
  155SAPE   H5R17257   5.278   1.905   9.985  1.2936  0.0719  0.7166
  155SAPE   C2617258   5.203   1.953   9.794 -0.3038 -0.4955 -0.5106
  155SAPE   H6R17259   5.231   1.851   9.761 -1.7212 -1.0740  0.0095
  155SAPE   C2717260   5.141   2.033   9.686 -0.1756  0.2273 -0.6072
  155SAPE   H7R17261   5.059   2.083   9.743  0.1650  0.0545  0.0400
  155SAPE   H7S17262   5.086   1.976   9.608 -3.4379 -1.6812  2.7462
  155SAPE   C2817263   5.236   2.131   9.619 -0.2028 -0.5391  0.1623
  155SAPE   H8R17264   5.310   2.183   9.682 -1.3202  1.9865 -0.4685
  155SAPE   C2917265   5.247   2.155   9.486 -0.4136 -0.1035 -0.0973
  155SAPE   H9R17266   5.339   2.208   9.455 -0.4449  0.8892  1.4470
  155SAPE  C21017267   5.179   2.093   9.364  0.5556 -0.7833 -0.4959
  155SAPE  H10R17268   5.167   2.167   9.283 -3.2811  0.9189  1.3565
  155SAPE  H10S17269   5.079   2.051   9.388  0.5371 -1.0065 -0.9570
  155SAPE  C21117270   5.260   1.970   9.320  0.0751  0.1462 -0.1677
  155SAPE  H11R17271   5.246   1.883   9.386 -1.2541 -1.0410 -1.8897
  155SAPE  C21217272   5.312   1.953   9.201  0.1721  0.3468 -0.0260
  155SAPE  H12R17273   5.367   1.860   9.179  1.4136  1.1173 -0.2882
  155SAPE  C21317274   5.304   2.043   9.089 -0.2521  0.1459 -0.6176
  155SAPE  H13R17275   5.363   2.134   9.114  1.9092 -1.0262 -1.1795
  155SAPE  H13S17276   5.198   2.071   9.072  0.3423  1.8310 -1.8992
  155SAPE  C21417277   5.358   1.995   8.959  0.5701  0.1226  0.1958
  155SAPE  H14R17278   5.324   1.892   8.938 -0.5063 -0.3951  3.7614
  155SAPE  C21517279   5.432   2.066   8.875 -0.0409 -0.0556  0.2209
  155SAPE  H15R17280   5.459   2.024   8.777  2.4821  0.9927  0.3886
  155SAPE  C21617281   5.475   2.210   8.882 -0.0449  0.3767  0.2299
  155SAPE  H16R17282   5.506   2.238   8.984  1.0779  0.0821 -0.0201
  155SAPE  H16S17283   5.390   2.276   8.852 -1.7399 -1.1878  1.3278
  155SAPE  C21717284   5.588   2.248   8.781 -0.9936 -0.0055 -0.6572
  155SAPE  H17R17285   5.559   2.220   8.677  1.8050 -0.2181 -1.4513
  155SAPE  H17S17286   5.673   2.182   8.808 -1.1964 -0.3749 -0.9013
  155SAPE  C21817287   5.654   2.383   8.813  0.0371  0.6582  0.0461
  155SAPE  H18R17288   5.715   2.378   8.905  0.9134 -1.3738 -0.5784
  155SAPE  H18S17289   5.577   2.462   8.821 -1.2476 -0.6380  1.3117
  155SAPE  C21917290   5.753   2.424   8.701  0.2765 -0.5791 -0.8968
  155SAPE  H19R17291   5.767   2.534   8.711  1.3678 -0.8775  1.3707
  155SAPE  H19S17292   5.699   2.415   8.604  0.0614  1.9380 -1.0706
  155SAPE  C22017293   5.880   2.345   8.695 -0.0806 -0.3486  0.5770
  155SAPE  H20R17294   5.868   2.237   8.673 -0.2921 -0.3060  0.4796
  155SAPE  H20S17295   5.927   2.339   8.796  0.4866  2.0819  0.5282
  155SAPE  H20T17296   5.951   2.391   8.623 -0.3654 -1.0776 -0.1800
  155SAPE   C3317297   5.934   1.768  10.345  0.1641  0.3169 -0.6363
  155SAPE   H3X17298   5.945   1.767  10.455 -3.6369 -1.0856 -0.1042
  155SAPE   H3Y17299   6.016   1.830  10.302  1.5152  0.2328  1.6824
  155SAPE   C3417300   5.959   1.624  10.296  0.1313 -0.2559 -0.5672
  155SAPE   H4X17301   5.881   1.560  10.342 -0.2219  1.7377  1.7939
  155SAPE   H4Y17302   6.060   1.589  10.328  0.8256  1.1564 -1.1369
  155SAPE   C3517303   5.954   1.611  10.140 -0.0242  0.8810  0.3230
  155SAPE   H5X17304   6.040   1.668  10.100  0.6146  1.8425  2.9085
  155SAPE   H5Y17305   5.857   1.650  10.104 -0.6112 -1.2525 -0.5793
  155SAPE   C3617306   5.962   1.464  10.100 -0.0333  0.7374  0.6082
  155SAPE   H6X17307   5.861   1.422  10.120  0.0673  1.7074  3.8470
  155SAPE   H6Y17308   6.021   1.418  10.182  0.3198  0.0158 -0.0435
  155SAPE   C3717309   6.020   1.438   9.958  0.3427 -0.3190 -0.4747
  155SAPE   H7X17310   6.024   1.331   9.928 -0.3287 -0.0648 -1.5177
  155SAPE   H7Y17311   6.121   1.485   9.960  0.4468 -0.4981 -1.2082
  155SAPE   C3817312   5.947   1.508   9.846 -0.1148 -0.1431 -0.9834
  155SAPE   H8X17313   5.934   1.617   9.862  0.0291 -0.5022  2.0602
  155SAPE   H8Y17314   5.847   1.459   9.841  0.0571 -0.4970 -0.9608
  155SAPE   C3917315   6.034   1.500   9.721  0.4501 -0.1601  0.2340
  155SAPE   H9X17316   6.058   1.393   9.704  0.1748  0.1021 -2.1427
  155SAPE   H9Y17317   6.128   1.555   9.744  0.6109 -0.1302 -0.4870
  155SAPE  C31017318   5.943   1.551   9.609 -0.2493 -0.4352  0.0368
  155SAPE  H10X17319   5.921   1.656   9.640  1.3728 -0.6033  1.9064
  155SAPE  H10Y17320   5.843   1.507   9.624 -1.0126  0.9507 -0.7234
  155SAPE  C31117321   6.008   1.521   9.472  0.4343  0.1854  0.2749
  155SAPE  H11X17322   6.006   1.414   9.444  0.9560 -0.0852  1.2287
  155SAPE  H11Y17323   6.113   1.545   9.497  0.9427  0.3117 -1.7649
  155SAPE  C31217324   5.971   1.609   9.357 -0.1908  0.0527  1.4759
  155SAPE  H12X17325   6.050   1.596   9.279 -0.2204 -0.9445  1.6094
  155SAPE  H12Y17326   5.963   1.715   9.389 -0.2886 -0.5544  3.5397
  155SAPE  C31317327   5.842   1.557   9.293 -0.1463  0.0637  0.4473
  155SAPE  H13X17328   5.749   1.575   9.351 -1.0392 -1.2098 -0.5147
  155SAPE  H13Y17329   5.835   1.448   9.272  0.7832  0.3904 -1.8241
  155SAPE  C31417330   5.825   1.620   9.152 -0.2702  0.3519 -0.4622
  155SAPE  H14X17331   5.905   1.576   9.088  1.5437 -0.1415  1.9909
  155SAPE  H14Y17332   5.853   1.727   9.163  3.5323 -0.5515  0.1826
  155SAPE  C31517333   5.682   1.574   9.098 -0.6108  0.1075  1.2318
  155SAPE  H15X17334   5.598   1.604   9.165 -0.5478  1.9396  0.5342
  155SAPE  H15Y17335   5.682   1.463   9.093  1.9664  0.0461  1.1461
  155SAPE  C31617336   5.660   1.630   8.958 -0.1679  0.2768  0.7402
  155SAPE  H16X17337   5.554   1.623   8.927  0.3710  2.3627 -1.8979
  155SAPE  H16Y17338   5.731   1.586   8.885 -1.6110 -0.4198 -0.3020
  155SAPE  C31717339   5.703   1.781   8.941  0.3435  1.0231  0.4618
  155SAPE  H17X17340   5.809   1.802   8.967  0.6164  0.0398  0.1419
  155SAPE  H17Y17341   5.643   1.840   9.014 -0.5224  0.0124  0.5972
  155SAPE  C31817342   5.666   1.818   8.802 -0.1172 -0.2468 -0.1621
  155SAPE  H18X17343   5.556   1.806   8.797 -0.1207 -0.7768  0.8299
  155SAPE  H18Y17344   5.726   1.758   8.730  1.6466  0.2017  0.8763
  155SAPE  H18Z17345   5.691   1.925   8.792 -0.5738 -0.0653  0.5325
  156SAPE     N17346   3.106   0.210  10.790 -0.4130  0.7324 -0.2695
  156SAPE   HN117347   3.041   0.256  10.724 -3.1172 -0.9183  1.0674
  156SAPE   HN217348   3.039   0.165  10.855 -1.0144  0.6696 -0.9274
  156SAPE   HN317349   3.164   0.285  10.832  0.8258 -0.8404  0.9853
  156SAPE   C1217350   3.189   0.101  10.734 -0.2227  1.0654 -0.1602
  156SAPE  H12A17351   3.130   0.008  10.750  0.0356  1.1890  1.8232
  156SAPE  H12B17352   3.277   0.084  10.800 -1.1291 -0.9581  0.5997
  156SAPE   C1117353   3.218   0.104  10.586  0.6311  0.4178 -0.2445
  156SAPE  H11A17354   3.123   0.092  10.531  0.0878  0.4345  0.6720
  156SAPE  H11B17355   3.284   0.019  10.558  0.1285  0.2058 -0.7943
  156SAPE     P17356   3.421   0.246  10.482 -0.6546 -0.1978  0.0198
  156SAPE   O1317357   3.490   0.353  10.550  0.1182  0.7973 -0.4080
  156SAPE   O1417358   3.504   0.122  10.463 -0.4805  0.5598 -0.2167
  156SAPE   O1217359   3.286   0.228  10.559 -0.0026 -0.0996  0.0363
  156SAPE   O1117360   3.370   0.301  10.342 -0.1280  0.3337  0.0215
  156SAPE    C117361   3.285   0.234  10.253 -0.0154 -0.4398  0.2222
  156SAPE    HA17362   3.241   0.144  10.300 -2.0256  1.1039  1.4652
  156SAPE    HB17363   3.196   0.293  10.222 -0.2257 -1.7932 -1.9808
  156SAPE    C217364   3.359   0.206  10.121 -0.0850  0.8818  0.0241
  156SAPE    HS17365   3.289   0.146  10.059  1.5047 -2.7920  1.4945
  156SAPE   O2117366   3.477   0.127  10.149  0.6868  0.5261  0.6469
  156SAPE   C2117367   3.482   0.007  10.090 -1.6110 -0.9088  0.5037
  156SAPE   O2217368   3.404  -0.042  10.011 -0.3580 -0.4541  0.4392
  156SAPE   C2217369   3.628  -0.045  10.115  0.2762  0.1219 -0.3262
  156SAPE   H2R17370   3.694   0.020  10.053 -1.0152  1.0639 -0.7589
  156SAPE   H2S17371   3.648  -0.030  10.223  0.7317 -1.7440 -0.1101
  156SAPE    C317372   3.401   0.336  10.043  0.4349 -0.0547 -0.5899
  156SAPE    HX17373   3.472   0.375  10.119 -0.3559 -2.3806  1.4545
  156SAPE    HY17374   3.321   0.411  10.030  0.4469  0.2977  1.1603
  156SAPE   O3117375   3.465   0.311   9.912 -0.6980 -0.0277 -0.3445
  156SAPE   C3117376   3.376   0.279   9.827  0.9461  0.6070  0.3613
  156SAPE   O3217377   3.257   0.256   9.855 -0.2792 -0.6717 -0.0505
  156SAPE   C3217378   3.433   0.264   9.685 -0.1019  0.2819 -0.3475
  156SAPE   H2X17379   3.481   0.165   9.669 -2.5609 -0.9424 -0.5866
  156SAPE   H2Y17380   3.508   0.346   9.677  1.1565 -0.5231  2.1742
  156SAPE   C2317381   3.650  -0.191  10.085 -0.0930 -0.4821 -0.1768
  156SAPE   H3R17382   3.561  -0.246  10.122  0.2240 -0.0845  1.2607
  156SAPE   H3S17383   3.734  -0.232  10.144 -1.8001 -0.3787  2.4993
  156SAPE   C2417384   3.667  -0.212   9.932 -0.2365  0.2554  0.2341
  156SAPE   H4R17385   3.576  -0.182   9.875 -0.3714 -2.7778 -1.3540
  156SAPE   H4S17386   3.674  -0.322   9.921  1.1403  0.1889  1.4577
  156SAPE   C2517387   3.789  -0.150   9.865  0.9146 -0.2732  1.2007
  156SAPE   H5R17388   3.853  -0.082   9.923  0.7934  0.0551  0.9473
  156SAPE   C2617389   3.819  -0.170   9.738 -0.1410 -0.0623  0.9169
  156SAPE   H6R17390   3.906  -0.115   9.699 -0.7037  0.1196 -0.1115
  156SAPE   C2717391   3.746  -0.247   9.636  0.1196 -0.1445  1.0893
  156SAPE   H7R17392   3.734  -0.183   9.546 -2.3179 -1.1038  0.6408
  156SAPE   H7S17393   3.643  -0.273   9.669  0.8971 -2.1707  2.1257
  156SAPE   C2817394   3.823  -0.371   9.602 -0.3867  0.9948 -0.3513
  156SAPE   H8R17395   3.883  -0.410   9.686  0.7246  1.1697 -1.0323
  156SAPE   C2917396   3.833  -0.430   9.482  0.3307  0.0978  0.5538
  156SAPE   H9R17397   3.890  -0.522   9.463  0.8291  0.2812  1.1089
  156SAPE  C21017398   3.759  -0.389   9.356 -0.1089  0.1704 -0.0830
  156SAPE  H10R17399   3.696  -0.302   9.384 -2.8385 -2.0691  1.2641
  156SAPE  H10S17400   3.686  -0.468   9.329 -1.9922  1.3030  1.4694
  156SAPE  C21117401   3.854  -0.363   9.237  0.2956 -0.3321 -0.3751
  156SAPE  H11R17402   3.899  -0.447   9.181 -0.8396  0.9893 -3.5094
  156SAPE  C21217403   3.879  -0.245   9.180  0.9656 -0.0899  0.8850
  156SAPE  H12R17404   3.959  -0.243   9.104  1.1948  3.6242  1.0534
  156SAPE  C21317405   3.820  -0.108   9.215 -1.1539 -0.2764  0.3401
  156SAPE  H13R17406   3.889  -0.023   9.195 -0.1117 -0.7801  1.6805
  156SAPE  H13S17407   3.809  -0.093   9.324 -1.6244 -3.1531  0.7598
  156SAPE  C21417408   3.687  -0.082   9.150 -0.2922 -0.2380 -0.1698
  156SAPE  H14R17409   3.598  -0.097   9.213  0.1898  0.1378  0.6097
  156SAPE  C21517410   3.668  -0.039   9.021 -0.9412 -0.0037 -0.8162
  156SAPE  H15R17411   3.565  -0.038   8.984 -1.4241 -0.7497  0.4183
  156SAPE  C21617412   3.776  -0.018   8.918  1.2712 -0.0218 -0.2852
  156SAPE  H16R17413   3.870  -0.063   8.957 -0.1048  0.4360  4.0622
  156SAPE  H16S17414   3.790   0.091   8.904  0.6169  0.1865  0.6302
  156SAPE  C21717415   3.740  -0.091   8.783  0.6099 -0.4551  0.1988
  156SAPE  H17R17416   3.710  -0.196   8.803  1.5697 -0.5825  1.0700
  156SAPE  H17S17417   3.825  -0.091   8.710 -2.4773  2.2627 -3.8562
  156SAPE  C21817418   3.629  -0.018   8.707 -0.2857 -0.0300  0.0685
  156SAPE  H18R17419   3.679   0.072   8.666  0.8558 -1.5108 -1.9790
  156SAPE  H18S17420   3.543  -0.004   8.776 -0.1372 -1.9315  0.7030
  156SAPE  C21917421   3.597  -0.102   8.585  0.6609  0.1297  0.2194
  156SAPE  H19R17422   3.676  -0.124   8.511  1.4658  1.4032  0.6672
  156SAPE  H19S17423   3.515  -0.053   8.528 -0.5065 -0.4972  1.2903
  156SAPE  C22017424   3.540  -0.243   8.622  0.3881 -0.2970  0.1943
  156SAPE  H20R17425   3.493  -0.244   8.723  2.3668 -0.9336  1.1624
  156SAPE  H20S17426   3.626  -0.313   8.622  0.5046 -0.1988  1.7527
  156SAPE  H20T17427   3.461  -0.272   8.550  0.6819  0.4118 -0.4289
  156SAPE   C3317428   3.322   0.293   9.579  0.0759  0.1068 -0.2922
  156SAPE   H3X17429   3.269   0.389   9.599  1.4472  0.7448  0.4167
  156SAPE   H3Y17430   3.247   0.214   9.598 -2.0334  1.7814 -1.1662
  156SAPE   C3417431   3.381   0.301   9.435 -0.5287  0.8567 -0.4898
  156SAPE   H4X17432   3.437   0.207   9.417  1.6588  2.0508 -0.3617
  156SAPE   H4Y17433   3.461   0.379   9.432 -1.5492  2.2611  3.0743
  156SAPE   C3517434   3.285   0.339   9.329 -0.1255 -0.7171  0.1308
  156SAPE   H5X17435   3.235   0.435   9.354 -0.3263 -0.5965 -0.7042
  156SAPE   H5Y17436   3.205   0.262   9.325  0.6582 -1.5509  0.0381
  156SAPE   C3617437   3.354   0.356   9.196  0.5033  0.6103  0.3260
  156SAPE   H6X17438   3.396   0.257   9.170 -0.2917  0.6995 -1.5013
  156SAPE   H6Y17439   3.430   0.436   9.207 -1.9903  3.1541  0.2966
  156SAPE   C3717440   3.256   0.401   9.080 -0.2154  0.3590  0.4828
  156SAPE   H7X17441   3.205   0.496   9.109 -1.3366 -0.7438  2.3644
  156SAPE   H7Y17442   3.171   0.330   9.077  0.3307 -0.2610 -1.6431
  156SAPE   C3817443   3.320   0.411   8.939  0.1963  0.1296  0.2012
  156SAPE   H8X17444   3.354   0.307   8.916 -3.3779 -1.0760 -0.2077
  156SAPE   H8Y17445   3.413   0.471   8.950  0.9801 -0.5807 -1.8567
  156SAPE   C3917446   3.216   0.450   8.831 -0.2675  0.2821 -0.1714
  156SAPE   H9X17447   3.175   0.553   8.844 -1.1243 -0.1002  0.2038
  156SAPE   H9Y17448   3.129   0.383   8.846 -1.6923  1.8497 -1.0945
  156SAPE  C31017449   3.274   0.431   8.689 -0.6996 -0.2346 -0.6108
  156SAPE  H10X17450   3.317   0.329   8.674  0.3786  0.0511  0.3963
  156SAPE  H10Y17451   3.356   0.503   8.672  0.0717 -1.0166 -0.2765
  156SAPE  C31117452   3.167   0.449   8.579 -0.4275 -0.0436 -0.2337
  156SAPE  H11X17453   3.123   0.549   8.600  1.0633  0.2724  1.7808
  156SAPE  H11Y17454   3.077   0.386   8.594  0.7159 -1.7248 -0.1363
  156SAPE  C31217455   3.217   0.453   8.442 -0.2893  0.0988  1.1778
  156SAPE  H12X17456   3.293   0.373   8.429 -2.0197 -1.5335  0.6687
  156SAPE  H12Y17457   3.271   0.546   8.416  2.5350 -1.2958  1.6304
  156SAPE  C31317458   3.095   0.435   8.348 -0.2377 -0.7255 -0.1817
  156SAPE  H13X17459   3.018   0.507   8.380  1.4638  0.7255  0.8408
  156SAPE  H13Y17460   3.053   0.333   8.364  0.4292 -1.2365 -1.5163
  156SAPE  C31417461   3.138   0.451   8.200  0.0432  0.3234 -0.2741
  156SAPE  H14X17462   3.201   0.373   8.152  0.1602  0.1362  0.1764
  156SAPE  H14Y17463   3.197   0.545   8.195 -0.4000  0.6382  0.3410
  156SAPE  C31517464   3.018   0.487   8.112  0.3937  0.0472  0.4483
  156SAPE  H15X17465   2.962   0.575   8.149  3.6586  1.9541  1.1873
  156SAPE  H15Y17466   2.944   0.404   8.113  2.4068 -1.8664  1.1180
  156SAPE  C31617467   3.066   0.508   7.961  0.3950  0.3989 -0.5381
  156SAPE  H16X17468   3.137   0.429   7.929  0.6786  0.4142  0.0252
  156SAPE  H16Y17469   3.127   0.601   7.953  0.0987  0.7116  0.5667
  156SAPE  C31717470   2.957   0.520   7.860  0.3025 -0.0425  0.8871
  156SAPE  H17X17471   2.894   0.429   7.865  0.0279  0.0906  0.1170
  156SAPE  H17Y17472   2.995   0.530   7.756 -1.8273 -0.6576  0.0010
  156SAPE  C31817473   2.887   0.648   7.884  0.5999 -0.3987 -0.3929
  156SAPE  H18X17474   2.832   0.651   7.980 -0.3060  0.7440 -0.9147
  156SAPE  H18Y17475   2.809   0.662   7.806  1.3357  1.8526 -0.8047
  156SAPE  H18Z17476   2.959   0.732   7.881 -0.8312  0.9197  0.5053
  157SAPE     N17477   3.337   5.875  10.799  0.0154 -0.5783  0.2272
  157SAPE   HN117478   3.294   5.956  10.847 -0.1110 -1.2114  1.2246
  157SAPE   HN217479   3.309   5.788  10.850 -0.2112 -1.0379 -0.6621
  157SAPE   HN317480   3.441   5.884  10.793 -0.0242 -0.7585 -0.8366
  157SAPE   C1217481   3.265   5.878  10.665  0.0373 -0.1102 -0.5460
  157SAPE  H12A17482   3.292   5.782  10.616 -0.6429 -2.0692  2.6246
  157SAPE  H12B17483   3.298   5.964  10.603 -2.6616  0.5978 -1.1465
  157SAPE   C1117484   3.116   5.888  10.697 -0.0090 -0.9748  0.1830
  157SAPE  H11A17485   3.086   5.804  10.763 -0.1392  0.0844  1.5135
  157SAPE  H11B17486   3.060   5.888  10.601 -2.2200  0.1442  1.3943
  157SAPE     P17487   3.095   6.159  10.700 -0.1335  0.0118  0.1349
  157SAPE   O1317488   3.002   6.239  10.781  0.1376 -0.1209 -0.2409
  157SAPE   O1417489   3.232   6.205  10.688 -0.7637 -0.2246 -0.2942
  157SAPE   O1217490   3.098   6.013  10.764  0.2085 -1.0316 -0.0926
  157SAPE   O1117491   3.039   6.125  10.559 -0.7515 -0.6442  0.1597
  157SAPE    C117492   2.910   6.169  10.513  0.3848  0.0556  0.4018
  157SAPE    HA17493   2.840   6.096  10.558 -1.0886 -0.3858 -2.3722
  157SAPE    HB17494   2.880   6.264  10.561  0.3475  0.6644 -0.7997
  157SAPE    C217495   2.879   6.180  10.356  0.9727 -0.0106 -0.3439
  157SAPE    HS17496   2.771   6.156  10.343  0.8084 -1.5163  2.8061
  157SAPE   O2117497   2.954   6.084  10.281  0.6228 -0.1209  0.5231
  157SAPE   C2117498   2.930   5.961  10.295  0.4813 -0.3552 -0.1945
  157SAPE   O2217499   2.830   5.905  10.337  0.1259 -0.7495  0.2192
  157SAPE   C2217500   3.041   5.874  10.245 -0.2339  0.4054 -0.0615
  157SAPE   H2R17501   3.034   5.855  10.136  2.9108 -0.1450 -0.2741
  157SAPE   H2S17502   3.139   5.919  10.274  1.7313 -3.0375 -0.7033
  157SAPE    C317503   2.907   6.325  10.304 -0.0898 -0.1817  1.1013
  157SAPE    HX17504   3.015   6.333  10.281 -0.5024 -0.0466 -1.0282
  157SAPE    HY17505   2.898   6.400  10.385  0.4310  0.5626  0.4910
  157SAPE   O3117506   2.852   6.356  10.178 -0.2731  0.2891  0.6406
  157SAPE   C3117507   2.754   6.446  10.176  0.5672 -0.1908 -0.1044
  157SAPE   O3217508   2.707   6.503  10.279  0.2660  0.3323  0.3691
  157SAPE   C3217509   2.703   6.469  10.031 -0.4313  0.2493 -0.5082
  157SAPE   H2X17510   2.749   6.569  10.013 -0.4448  0.4702  0.6225
  157SAPE   H2Y17511   2.593   6.475  10.047 -0.3547  0.1278  0.0643
  157SAPE   C2317512   3.051   5.739  10.321 -1.2106 -0.3061  0.5488
  157SAPE   H3R17513   2.952   5.688  10.318 -1.7165  0.6584  0.4081
  157SAPE   H3S17514   3.085   5.752  10.426  1.7331 -2.4001 -0.0197
  157SAPE   C2417515   3.153   5.641  10.252  0.0834 -0.1566  0.5940
  157SAPE   H4R17516   3.157   5.654  10.142 -1.0265 -0.0179  0.5584
  157SAPE   H4S17517   3.137   5.532  10.267 -0.1162 -0.0897  0.8726
  157SAPE   C2517518   3.295   5.676  10.298 -0.2288  0.0121 -0.8897
  157SAPE   H5R17519   3.308   5.640  10.401 -0.1586 -1.2152 -1.3070
  157SAPE   C2617520   3.396   5.747  10.228  0.4682  0.0048  0.5567
  157SAPE   H6R17521   3.483   5.780  10.287  1.1511  0.7138 -0.7966
  157SAPE   C2717522   3.390   5.794  10.086 -0.6641  0.1588 -0.2329
  157SAPE   H7R17523   3.416   5.902  10.084  1.6962 -0.3533 -2.1198
  157SAPE   H7S17524   3.285   5.782  10.052 -1.1630  1.7612  0.6466
  157SAPE   C2817525   3.497   5.724  10.012 -0.3226 -0.5269 -0.2707
  157SAPE   H8R17526   3.589   5.704  10.069  1.1258  0.7305 -2.0618
  157SAPE   C2917527   3.492   5.686   9.884  0.5500  0.1770  0.3166
  157SAPE   H9R17528   3.578   5.634   9.839 -0.0389  1.0958 -2.0213
  157SAPE  C21017529   3.373   5.696   9.792 -0.2601 -0.0107 -0.4115
  157SAPE  H10R17530   3.405   5.731   9.691 -2.0263  0.3224 -0.8906
  157SAPE  H10S17531   3.306   5.775   9.833 -0.4628 -0.3891 -0.0121
  157SAPE  C21117532   3.281   5.578   9.786  0.2346 -0.1769  0.3539
  157SAPE  H11R17533   3.267   5.531   9.884 -1.2537 -0.8227 -0.1311
  157SAPE  C21217534   3.220   5.523   9.677 -0.2512 -0.3773  0.5167
  157SAPE  H12R17535   3.158   5.434   9.696  0.4879 -0.9684  0.2043
  157SAPE  C21317536   3.242   5.555   9.528 -0.3714 -0.9034  0.0649
  157SAPE  H13R17537   3.227   5.470   9.458 -1.8289  0.5787 -1.5271
  157SAPE  H13S17538   3.345   5.595   9.518 -0.0830 -2.0092 -1.9307
  157SAPE  C21417539   3.144   5.661   9.483 -0.3213 -0.5366 -0.1752
  157SAPE  H14R17540   3.156   5.756   9.537  1.6815 -1.4610  1.1168
  157SAPE  C21517541   3.047   5.660   9.396 -0.6930 -0.1114  0.4813
  157SAPE  H15R17542   2.977   5.742   9.376 -0.4906 -0.2561 -0.9763
  157SAPE  C21617543   3.014   5.547   9.305 -0.3643  0.7715 -0.1226
  157SAPE  H16R17544   2.905   5.540   9.325 -0.0792 -0.7168  1.0591
  157SAPE  H16S17545   3.055   5.449   9.339 -1.0114 -0.4641 -2.6198
  157SAPE  C21717546   3.043   5.560   9.155 -0.5144  0.4004 -0.2643
  157SAPE  H17R17547   3.049   5.460   9.108  0.0692  0.8584 -1.2113
  157SAPE  H17S17548   3.143   5.605   9.137  0.2663 -1.5657 -1.0645
  157SAPE  C21817549   2.931   5.632   9.075  0.2083 -0.4801 -0.3210
  157SAPE  H18R17550   2.964   5.612   8.970 -0.2792 -1.1418 -0.3621
  157SAPE  H18S17551   2.941   5.736   9.112  0.3588 -0.7158  0.3043
  157SAPE  C21917552   2.790   5.572   9.073  0.5058 -0.0265  0.0733
  157SAPE  H19R17553   2.725   5.635   9.008 -2.4122 -1.3156  1.5714
  157SAPE  H19S17554   2.738   5.574   9.171 -0.6520  0.8014 -0.5362
  157SAPE  C22017555   2.789   5.429   9.014  0.0598 -0.4594 -0.4303
  157SAPE  H20R17556   2.863   5.371   9.073  1.5061 -0.0057 -1.7293
  157SAPE  H20S17557   2.809   5.423   8.905  0.2491 -0.9213 -0.3738
  157SAPE  H20T17558   2.687   5.386   9.028 -0.2096 -0.2724 -1.6669
  157SAPE   C3317559   2.754   6.366   9.933  0.2818  0.0430 -0.3982
  157SAPE   H3X17560   2.707   6.271   9.964  1.2150 -1.2210 -2.6420
  157SAPE   H3Y17561   2.864   6.350   9.942 -0.0863 -2.8979 -0.1240
  157SAPE   C3417562   2.734   6.400   9.790 -0.3186 -0.0820  0.4725
  157SAPE   H4X17563   2.798   6.343   9.720 -1.4896  1.3869 -1.9180
  157SAPE   H4Y17564   2.772   6.504   9.791 -1.3171  0.3004  1.9305
  157SAPE   C3517565   2.589   6.388   9.751 -0.0607 -0.1430  0.6824
  157SAPE   H5X17566   2.544   6.461   9.823  2.2124  0.9531  1.0889
  157SAPE   H5Y17567   2.543   6.289   9.774 -2.5748  1.2972  2.2892
  157SAPE   C3617568   2.567   6.427   9.603 -0.3787  0.3014 -0.3690
  157SAPE   H6X17569   2.584   6.536   9.590  0.4679  0.2710  0.3551
  157SAPE   H6Y17570   2.461   6.393   9.603  0.2965 -2.0078  0.6492
  157SAPE   C3717571   2.656   6.353   9.501  0.0074  0.0585  0.4997
  157SAPE   H7X17572   2.636   6.244   9.496 -0.8232  0.2283 -0.0107
  157SAPE   H7Y17573   2.765   6.364   9.519 -0.1362  4.1779 -0.1761
  157SAPE   C3817574   2.634   6.400   9.360 -0.5040  0.0874 -0.1399
  157SAPE   H8X17575   2.695   6.340   9.289  2.6930  0.6371  1.9365
  157SAPE   H8Y17576   2.669   6.505   9.353  0.5510 -0.3053 -0.9102
  157SAPE   C3917577   2.489   6.399   9.312  0.5589 -0.1638  0.2715
  157SAPE   H9X17578   2.412   6.442   9.379  1.1713 -0.1054  0.9528
  157SAPE   H9Y17579   2.455   6.293   9.313  0.7781 -0.2616 -0.9044
  157SAPE  C31017580   2.469   6.444   9.163 -0.0538  0.0466  0.4152
  157SAPE  H10X17581   2.557   6.397   9.116  0.3808  0.8927  0.3647
  157SAPE  H10Y17582   2.470   6.554   9.176  0.3036 -0.1421  2.3133
  157SAPE  C31117583   2.334   6.396   9.101 -0.4788  0.2873  0.3479
  157SAPE  H11X17584   2.248   6.429   9.163 -2.2833 -1.3658 -1.1569
  157SAPE  H11Y17585   2.336   6.285   9.098  0.3213  0.2990  0.3016
  157SAPE  C31217586   2.302   6.440   8.952 -0.2199 -0.6347 -0.4667
  157SAPE  H12X17587   2.335   6.543   8.928 -1.6007 -0.1078 -0.1878
  157SAPE  H12Y17588   2.197   6.433   8.917 -0.4171 -0.9428  0.1740
  157SAPE  C31317589   2.378   6.353   8.846 -0.0247 -0.6470 -0.5088
  157SAPE  H13X17590   2.359   6.245   8.860 -0.1372 -0.6255 -0.4981
  157SAPE  H13Y17591   2.484   6.386   8.850  0.5051 -2.3393  1.7608
  157SAPE  C31417592   2.338   6.397   8.708 -0.1424 -0.0190 -0.1482
  157SAPE  H14X17593   2.380   6.498   8.690  1.5874 -0.5772  0.5179
  157SAPE  H14Y17594   2.227   6.401   8.706 -0.1367  1.1962  0.6309
  157SAPE  C31517595   2.407   6.319   8.598  0.6834  0.4093 -0.3494
  157SAPE  H15X17596   2.365   6.216   8.598  0.2082  0.5051  2.7243
  157SAPE  H15Y17597   2.516   6.320   8.620  0.4885 -0.5691  0.7444
  157SAPE  C31617598   2.380   6.372   8.461  0.2226  0.7032 -0.0412
  157SAPE  H16X17599   2.453   6.453   8.441  0.5929  0.2124 -0.7040
  157SAPE  H16Y17600   2.274   6.406   8.454 -1.0659 -2.7901  0.1656
  157SAPE  C31717601   2.416   6.284   8.336 -0.4989  0.3841 -0.5073
  157SAPE  H17X17602   2.365   6.185   8.331  0.5601 -0.1223 -2.5011
  157SAPE  H17Y17603   2.523   6.258   8.344 -0.7762 -0.5645  0.2675
  157SAPE  C31817604   2.399   6.361   8.204  0.0102  0.3886 -0.3202
  157SAPE  H18X17605   2.412   6.283   8.126  0.7131 -0.0767  0.2510
  157SAPE  H18Y17606   2.479   6.436   8.186  1.2026  0.0393  2.8604
  157SAPE  H18Z17607   2.300   6.403   8.177  0.5615  0.6870 -1.9751
  158SAPE     N17608   4.786   5.238  10.468  0.3213 -0.0941 -0.0946
  158SAPE   HN117609   4.827   5.182  10.391 -1.7559 -0.3547 -1.0530
  158SAPE   HN217610   4.820   5.208  10.562 -0.5731 -0.8757 -0.0050
  158SAPE   HN317611   4.687   5.208  10.474  0.2866  0.1762  0.9435
  158SAPE   C1217612   4.775   5.385  10.462 -0.3363 -0.2913 -0.4536
  158SAPE  H12A17613   4.774   5.422  10.357  1.8021 -1.3749 -0.9154
  158SAPE  H12B17614   4.866   5.431  10.507 -3.2669  5.0506  0.8245
  158SAPE   C1117615   4.652   5.437  10.528 -0.9557  0.0617 -0.2515
  158SAPE  H11A17616   4.651   5.548  10.524 -2.2037  0.1962  2.1897
  158SAPE  H11B17617   4.655   5.407  10.634  2.0635  0.2693 -0.1878
  158SAPE     P17618   4.404   5.444  10.498 -0.1811 -0.3077  0.1689
  158SAPE   O1317619   4.308   5.335  10.519 -0.0714 -0.2053 -0.3425
  158SAPE   O1417620   4.409   5.543  10.607 -0.5036 -0.2111  0.0939
  158SAPE   O1217621   4.538   5.389  10.452 -0.3780  0.3125 -0.0302
  158SAPE   O1117622   4.364   5.527  10.372  0.2664  0.2252  0.3038
  158SAPE    C117623   4.350   5.461  10.248  0.4102 -0.3236 -0.8154
  158SAPE    HA17624   4.352   5.350  10.249 -0.1090 -0.3532  1.2195
  158SAPE    HB17625   4.247   5.497  10.223  0.6249  2.1107  1.3744
  158SAPE    C217626   4.443   5.527  10.143 -0.6412 -0.1299  0.1168
  158SAPE    HS17627   4.535   5.530  10.204 -1.7459 -0.4001  1.8642
  158SAPE   O2117628   4.399   5.661  10.109 -0.6044  0.4982  0.8492
  158SAPE   C2117629   4.500   5.724  10.035  0.0588  0.1470  0.4769
  158SAPE   O2217630   4.619   5.688  10.035 -0.1391  0.3511  0.3500
  158SAPE   C2217631   4.451   5.847   9.967  0.4808 -0.8543 -0.0103
  158SAPE   H2R17632   4.340   5.848   9.961  0.5309  1.4741 -2.1868
  158SAPE   H2S17633   4.474   5.927  10.041  3.0279 -0.5034 -1.0823
  158SAPE    C317634   4.449   5.427  10.021  0.1076 -0.7928  0.0127
  158SAPE    HX17635   4.344   5.426   9.983  0.4329  1.1182 -1.0580
  158SAPE    HY17636   4.475   5.326  10.060 -1.9842 -1.0849  0.8135
  158SAPE   O3117637   4.534   5.467   9.907  0.0715  0.5911  0.0060
  158SAPE   C3117638   4.656   5.421   9.899  0.7911  0.6482  0.3869
  158SAPE   O3217639   4.706   5.345   9.984 -0.0863  0.1772 -0.1180
  158SAPE   C3217640   4.729   5.494   9.792  0.2461 -0.1916  0.0672
  158SAPE   H2X17641   4.755   5.600   9.815 -1.2309  0.0992  0.5201
  158SAPE   H2Y17642   4.666   5.496   9.701  0.9289  0.6082 -0.3975
  158SAPE   C2317643   4.509   5.872   9.832 -0.8073  0.5970  0.4603
  158SAPE   H3R17644   4.507   5.774   9.780  2.7578  2.0313 -2.8737
  158SAPE   H3S17645   4.616   5.900   9.843 -0.9491  0.3794  2.9829
  158SAPE   C2417646   4.430   5.971   9.749  0.3698  1.1996 -0.0274
  158SAPE   H4R17647   4.425   6.068   9.803 -0.2346  0.0246  2.1944
  158SAPE   H4S17648   4.329   5.926   9.746  1.3719 -1.9807  4.0450
  158SAPE   C2517649   4.492   5.973   9.609 -0.2148  0.0887 -0.2944
  158SAPE   H5R17650   4.579   6.040   9.601  0.4850 -0.8300 -0.5787
  158SAPE   C2617651   4.447   5.918   9.500  0.5752  0.0796 -0.1210
  158SAPE   H6R17652   4.505   5.925   9.407  1.1631 -1.0554  0.1396
  158SAPE   C2717653   4.317   5.837   9.490 -0.0369 -0.6444  0.5543
  158SAPE   H7R17654   4.302   5.836   9.380  2.0005 -0.5572  0.2333
  158SAPE   H7S17655   4.233   5.894   9.536 -0.2548  0.3656 -1.0157
  158SAPE   C2817656   4.313   5.702   9.553 -0.6893  0.3277  0.6856
  158SAPE   H8R17657   4.239   5.688   9.633 -2.1566  0.1891 -0.6440
  158SAPE   C2917658   4.374   5.592   9.495  0.4070  0.7783 -0.5368
  158SAPE   H9R17659   4.386   5.500   9.553 -0.7188  0.9036 -0.0777
  158SAPE  C21017660   4.446   5.587   9.368 -0.5231  0.5972  0.7410
  158SAPE  H10R17661   4.553   5.585   9.396 -0.5365 -1.3748  0.8240
  158SAPE  H10S17662   4.429   5.679   9.307 -0.0760  0.2696  0.1046
  158SAPE  C21117663   4.398   5.469   9.284  0.0299 -0.1890  1.0355
  158SAPE  H11R17664   4.301   5.483   9.235  0.5681 -0.1657 -0.0381
  158SAPE  C21217665   4.454   5.348   9.278  0.0576  0.5372 -0.1783
  158SAPE  H12R17666   4.398   5.271   9.222  0.4124  0.4289 -0.3853
  158SAPE  C21317667   4.577   5.293   9.341 -0.5488  0.6446 -0.5395
  158SAPE  H13R17668   4.547   5.225   9.423 -0.3537 -0.8717 -1.6799
  158SAPE  H13S17669   4.635   5.373   9.393 -1.3164  1.1487 -0.4346
  158SAPE  C21417670   4.669   5.223   9.244  0.5511 -0.3892  0.2233
  158SAPE  H14R17671   4.701   5.262   9.146  0.3950  1.0098  0.7080
  158SAPE  C21517672   4.728   5.107   9.268 -0.4513 -0.2563  0.1691
  158SAPE  H15R17673   4.812   5.084   9.201 -2.9967 -0.5500 -3.1510
  158SAPE  C21617674   4.737   5.022   9.393  0.7411  0.0817  0.5151
  158SAPE  H16R17675   4.637   4.999   9.435 -0.3027 -0.0158 -1.9186
  158SAPE  H16S17676   4.764   5.097   9.471 -0.7793  1.3610 -0.1526
  158SAPE  C21717677   4.830   4.901   9.401  0.7977 -0.4610  0.5138
  158SAPE  H17R17678   4.934   4.932   9.379  0.4383  1.3564  1.1549
  158SAPE  H17S17679   4.789   4.828   9.327 -2.2572  0.1041  1.4943
  158SAPE  C21817680   4.838   4.827   9.539 -0.0766 -0.5810 -0.0696
  158SAPE  H18R17681   4.933   4.770   9.540  0.4920  0.3257  1.7200
  158SAPE  H18S17682   4.742   4.772   9.541 -0.2826 -0.2057  0.7208
  158SAPE  C21917683   4.838   4.922   9.663  0.0517  0.0887  0.2052
  158SAPE  H19R17684   4.741   4.975   9.664 -0.6955 -0.8961 -3.6004
  158SAPE  H19S17685   4.910   5.005   9.646 -0.2361  0.3615  0.3131
  158SAPE  C22017686   4.869   4.854   9.797 -0.1802  0.0278  0.6162
  158SAPE  H20R17687   4.810   4.760   9.803  0.1025 -0.2977 -1.2400
  158SAPE  H20S17688   4.842   4.912   9.888 -1.0519 -0.7340  0.8657
  158SAPE  H20T17689   4.973   4.819   9.812  0.0079  0.4641  0.3255
  158SAPE   C3317690   4.856   5.415   9.756 -0.3922  0.4170  0.4633
  158SAPE   H3X17691   4.849   5.304   9.750 -0.6762  0.4272  0.6195
  158SAPE   H3Y17692   4.936   5.433   9.831 -0.0201 -1.2265  0.4920
  158SAPE   C3417693   4.918   5.460   9.625 -0.0602 -0.2281  0.3905
  158SAPE   H4X17694   5.013   5.403   9.612 -0.1757 -0.4418  0.4963
  158SAPE   H4Y17695   4.962   5.559   9.648 -0.1554 -0.4173  1.4167
  158SAPE   C3517696   4.852   5.464   9.487  0.0743  0.0783 -0.3115
  158SAPE   H5X17697   4.762   5.530   9.486  0.1729  0.2101 -0.6173
  158SAPE   H5Y17698   4.829   5.366   9.442  1.1820  0.5505 -1.9698
  158SAPE   C3617699   4.936   5.542   9.386  0.2736  0.0970 -0.5870
  158SAPE   H6X17700   5.037   5.498   9.373  0.6074  1.0199 -1.2273
  158SAPE   H6Y17701   4.946   5.647   9.421  2.3273 -0.4607  0.6680
  158SAPE   C3717702   4.871   5.540   9.250  0.2863  0.5904  0.1181
  158SAPE   H7X17703   4.773   5.591   9.257 -0.7791 -1.2761 -0.7759
  158SAPE   H7Y17704   4.848   5.437   9.218 -0.7097  1.1531 -1.0899
  158SAPE   C3817705   4.956   5.603   9.134  0.6840 -0.7546  0.1164
  158SAPE   H8X17706   5.052   5.548   9.132 -0.1548 -2.5246  3.1774
  158SAPE   H8Y17707   4.972   5.711   9.156 -2.2170 -0.1004 -0.4775
  158SAPE   C3917708   4.883   5.612   8.998 -0.7354  0.2945 -0.5421
  158SAPE   H9X17709   4.792   5.675   9.007  0.2505  1.5811  0.8237
  158SAPE   H9Y17710   4.845   5.511   8.973  1.2941 -0.6001 -0.1753
  158SAPE  C31017711   4.974   5.673   8.887 -0.2179  0.4422 -0.0817
  158SAPE  H10X17712   5.077   5.632   8.900 -0.8151 -2.0038 -2.2100
  158SAPE  H10Y17713   4.983   5.783   8.892  0.1666  0.4169 -0.1685
  158SAPE  C31117714   4.928   5.618   8.758 -0.0744 -0.1998  0.1759
  158SAPE  H11X17715   4.818   5.629   8.762 -0.4232 -2.8261 -0.3683
  158SAPE  H11Y17716   4.961   5.512   8.749  3.9849  0.8397  0.5570
  158SAPE  C31217717   4.967   5.704   8.642 -0.2251 -0.0591  0.5113
  158SAPE  H12X17718   5.076   5.725   8.645 -0.0927 -0.4756 -0.8089
  158SAPE  H12Y17719   4.905   5.796   8.641  0.3102  0.3491  1.9236
  158SAPE  C31317720   4.955   5.624   8.514  0.1618 -0.0045 -0.2358
  158SAPE  H13X17721   5.041   5.555   8.501 -0.4573 -1.0727  1.0778
  158SAPE  H13Y17722   4.967   5.698   8.432  2.3425 -0.9854 -0.8570
  158SAPE  C31417723   4.824   5.539   8.502 -0.1862  0.2209 -0.6574
  158SAPE  H14X17724   4.745   5.612   8.531 -0.6680  0.1277 -1.6683
  158SAPE  H14Y17725   4.832   5.450   8.567 -1.5892  0.2367 -0.4362
  158SAPE  C31517726   4.801   5.490   8.360 -0.4587  0.1055  0.0127
  158SAPE  H15X17727   4.896   5.463   8.308  0.0450  1.3326  0.2625
  158SAPE  H15Y17728   4.761   5.575   8.301 -1.9789  0.8676  2.0445
  158SAPE  C31617729   4.702   5.371   8.356  0.0910  0.0047 -0.4557
  158SAPE  H16X17730   4.748   5.284   8.407  1.5037  1.2460  0.4768
  158SAPE  H16Y17731   4.694   5.340   8.250  2.0768 -0.2728 -0.5626
  158SAPE  C31717732   4.565   5.411   8.407 -0.9363  1.0289  0.0546
  158SAPE  H17X17733   4.523   5.497   8.351 -1.7001 -0.4161 -1.6855
  158SAPE  H17Y17734   4.578   5.446   8.512 -1.1199 -0.5058  0.6171
  158SAPE  C31817735   4.473   5.292   8.405  0.8644 -0.1982  0.3894
  158SAPE  H18X17736   4.374   5.329   8.437  1.3585  2.3018 -0.7343
  158SAPE  H18Y17737   4.502   5.205   8.468 -2.0029 -0.8546  0.9270
  158SAPE  H18Z17738   4.464   5.250   8.303  1.0835 -2.2991  1.1795
  159SAPE     N17739   3.404   5.469   6.210  0.3889 -0.8397 -1.0644
  159SAPE   HN117740   3.474   5.445   6.137 -0.2597  1.6892 -2.6079
  159SAPE   HN217741   3.307   5.448   6.178  1.0724 -2.0604 -2.4561
  159SAPE   HN317742   3.407   5.571   6.229 -3.2231 -0.5675 -1.3378
  159SAPE   C1217743   3.438   5.405   6.346  0.3234 -0.1562 -0.2257
  159SAPE  H12A17744   3.528   5.453   6.389 -0.4894  1.2135  0.0050
  159SAPE  H12B17745   3.455   5.296   6.334 -2.9027 -0.7377 -0.6160
  159SAPE   C1117746   3.318   5.433   6.443 -0.2614 -0.5252  0.6400
  159SAPE  H11A17747   3.315   5.543   6.462  0.0709 -0.3778 -0.1198
  159SAPE  H11B17748   3.334   5.381   6.540  3.2115 -0.9925 -0.0417
  159SAPE     P17749   3.123   5.252   6.415 -0.0637  0.1356  0.0476
  159SAPE   O1317750   2.974   5.261   6.407 -0.1239  0.3038 -0.2328
  159SAPE   O1417751   3.192   5.158   6.322 -0.4252  0.1406 -0.2793
  159SAPE   O1217752   3.196   5.388   6.385  0.1172  0.2147 -0.0251
  159SAPE   O1117753   3.169   5.218   6.566  0.0609 -0.2635  0.0169
  159SAPE    C117754   3.126   5.301   6.680  0.7420  0.0317 -0.3932
  159SAPE    HA17755   3.210   5.341   6.741 -0.5444 -0.7172  1.9703
  159SAPE    HB17756   3.065   5.385   6.640  1.0921  0.8427  0.7282
  159SAPE    C217757   3.050   5.212   6.787  0.1717 -0.6463 -0.1478
  159SAPE    HS17758   2.956   5.182   6.736 -1.0071  2.6694 -0.1840
  159SAPE   O2117759   3.019   5.286   6.913 -0.2659 -0.3014 -0.2762
  159SAPE   C2117760   2.919   5.379   6.900 -0.7887 -0.2187 -0.7802
  159SAPE   O2217761   2.863   5.401   6.795  0.3505 -0.1960  0.0261
  159SAPE   C2217762   2.893   5.442   7.035  0.6483  0.1625 -0.3576
  159SAPE   H2R17763   2.862   5.365   7.109  0.4163  1.7373  1.2543
  159SAPE   H2S17764   2.991   5.483   7.069  1.1966  2.0924 -3.7784
  159SAPE    C317765   3.133   5.085   6.829  0.6224  0.2917 -0.3725
  159SAPE    HX17766   3.225   5.119   6.881  0.7585  1.4490 -1.3265
  159SAPE    HY17767   3.170   5.029   6.740  0.2769  1.3247 -1.1826
  159SAPE   O3117768   3.071   5.006   6.935 -0.1727  0.1022  0.2502
  159SAPE   C3117769   2.982   4.928   6.888  0.1946  0.4369 -0.9142
  159SAPE   O3217770   2.951   4.923   6.769 -0.2661  0.2333  0.1718
  159SAPE   C3217771   2.917   4.847   6.999 -0.4458 -0.1573  0.1170
  159SAPE   H2X17772   2.894   4.746   6.957  1.6575 -0.9342  0.7103
  159SAPE   H2Y17773   2.817   4.893   7.007  0.0849  1.1319 -0.4695
  159SAPE   C2317774   2.785   5.559   7.020 -0.5119  0.6115 -0.3068
  159SAPE   H3R17775   2.684   5.514   7.006  0.3538 -1.0302 -1.5722
  159SAPE   H3S17776   2.806   5.617   6.927  0.4053  0.1657 -0.3872
  159SAPE   C2417777   2.780   5.650   7.149  0.0084 -0.3146 -0.2628
  159SAPE   H4R17778   2.715   5.740   7.136  1.7071  0.6362 -3.4041
  159SAPE   H4S17779   2.881   5.694   7.160 -0.0232 -0.3485  0.1793
  159SAPE   C2517780   2.738   5.591   7.280 -0.0180  0.0620  0.9202
  159SAPE   H5R17781   2.638   5.547   7.277  0.5414 -1.1974 -0.4996
  159SAPE   C2617782   2.802   5.579   7.392 -0.6786 -0.3480  1.1970
  159SAPE   H6R17783   2.757   5.527   7.478  0.0145 -1.0802  1.1272
  159SAPE   C2717784   2.933   5.638   7.422 -1.1009 -0.2073  0.0789
  159SAPE   H7R17785   2.918   5.693   7.517  0.0011  0.2567  0.0021
  159SAPE   H7S17786   2.962   5.711   7.344 -0.2278 -2.0143 -1.3671
  159SAPE   C2817787   3.042   5.527   7.417 -0.5938 -0.3156 -0.1888
  159SAPE   H8R17788   3.025   5.444   7.348  0.1579 -1.0134  0.4493
  159SAPE   C2917789   3.144   5.528   7.499  0.9976 -0.1626  0.3186
  159SAPE   H9R17790   3.221   5.449   7.503  1.6708  0.5082  3.0609
  159SAPE  C21017791   3.182   5.632   7.594  0.0432 -0.4710 -0.6246
  159SAPE  H10R17792   3.196   5.582   7.693 -4.0698 -0.2797  0.2303
  159SAPE  H10S17793   3.103   5.707   7.617  0.1602  0.0368 -1.8499
  159SAPE  C21117794   3.312   5.694   7.551  0.4270  0.0943 -0.0399
  159SAPE  H11R17795   3.324   5.706   7.442 -1.5076  0.5256 -0.2568
  159SAPE  C21217796   3.400   5.753   7.627  0.0220 -0.3448 -0.2860
  159SAPE  H12R17797   3.483   5.804   7.577 -0.1263  0.1908  0.0013
  159SAPE  C21317798   3.395   5.777   7.777 -0.3321  0.0320 -0.3047
  159SAPE  H13R17799   3.465   5.707   7.828 -1.0065 -1.1572 -0.9613
  159SAPE  H13S17800   3.303   5.732   7.822  0.2176 -0.7783  0.0524
  159SAPE  C21417801   3.415   5.916   7.827  0.2695 -0.3437  0.1788
  159SAPE  H14R17802   3.424   5.996   7.752 -0.4238  1.9378  2.3845
  159SAPE  C21517803   3.400   5.943   7.960 -0.9990  0.1618  0.4584
  159SAPE  H15R17804   3.403   6.050   7.985 -0.4972  0.4916 -0.9336
  159SAPE  C21617805   3.367   5.845   8.074 -0.5516  0.1952  0.2458
  159SAPE  H16R17806   3.455   5.801   8.126  0.5323  2.0377  0.0547
  159SAPE  H16S17807   3.308   5.757   8.041  1.6518 -1.7054  1.0615
  159SAPE  C21717808   3.277   5.893   8.187  0.0981 -0.4674  0.3638
  159SAPE  H17R17809   3.199   5.944   8.127 -0.2532 -0.7728  0.5555
  159SAPE  H17S17810   3.327   5.973   8.247  3.8216 -1.4294 -1.1939
  159SAPE  C21817811   3.224   5.780   8.280 -0.5923  0.3234 -0.4887
  159SAPE  H18R17812   3.191   5.698   8.213  1.5652  0.0784 -1.3397
  159SAPE  H18S17813   3.149   5.824   8.349 -1.0125  0.7414 -1.2087
  159SAPE  C21917814   3.335   5.741   8.381 -0.0065  0.1629 -0.1909
  159SAPE  H19R17815   3.373   5.820   8.450 -1.2607  0.8426 -0.2588
  159SAPE  H19S17816   3.422   5.690   8.335 -0.3832 -1.6555  1.0159
  159SAPE  C22017817   3.283   5.628   8.479  0.3753 -0.2695 -0.4237
  159SAPE  H20R17818   3.364   5.629   8.555 -0.3133  0.5031  0.3279
  159SAPE  H20S17819   3.272   5.532   8.425  0.3772 -0.4350 -0.1292
  159SAPE  H20T17820   3.194   5.656   8.539  0.1392 -0.9481 -0.4460
  159SAPE   C3317821   2.990   4.834   7.133 -0.0929 -0.2180 -0.0128
  159SAPE   H3X17822   3.009   4.932   7.181  1.2478 -0.8489  0.7919
  159SAPE   H3Y17823   3.089   4.788   7.115  0.2421  1.1635 -2.0022
  159SAPE   C3417824   2.912   4.743   7.231  0.2767  0.1293  0.5299
  159SAPE   H4X17825   2.904   4.639   7.191 -0.7581  0.4642 -0.1781
  159SAPE   H4Y17826   2.807   4.778   7.234  0.0705 -0.5238  1.1379
  159SAPE   C3517827   2.972   4.737   7.372 -0.0709  0.9484  0.5884
  159SAPE   H5X17828   2.998   4.842   7.397  0.7268  1.0943 -0.7497
  159SAPE   H5Y17829   3.066   4.679   7.378 -0.8898 -0.3042  4.7342
  159SAPE   C3617830   2.866   4.683   7.468  0.0681  0.3128  0.1883
  159SAPE   H6X17831   2.828   4.587   7.427 -0.0490  0.5774 -0.3243
  159SAPE   H6Y17832   2.773   4.744   7.470 -1.0963 -1.3712 -0.5268
  159SAPE   C3717833   2.923   4.672   7.613  0.0736  0.3642 -0.2187
  159SAPE   H7X17834   2.997   4.589   7.620  0.8496  1.1279  0.9393
  159SAPE   H7Y17835   2.837   4.637   7.674  0.4725  0.2906  0.3135
  159SAPE   C3817836   2.989   4.794   7.681 -0.5286  0.6341  0.8144
  159SAPE   H8X17837   2.935   4.891   7.672 -1.6677 -0.0200  0.3540
  159SAPE   H8Y17838   3.074   4.831   7.620 -1.7041 -0.9551 -1.9718
  159SAPE   C3917839   3.016   4.773   7.829 -0.2100 -0.2921 -0.2161
  159SAPE   H9X17840   3.106   4.709   7.825  1.4985  2.0222 -3.7330
  159SAPE   H9Y17841   2.932   4.717   7.876  0.5320 -1.9522 -0.7827
  159SAPE  C31017842   3.043   4.903   7.898 -0.1685  0.0460 -0.2516
  159SAPE  H10X17843   2.960   4.975   7.876 -1.6900 -1.1314  1.3482
  159SAPE  H10Y17844   3.138   4.946   7.860  0.0605 -2.4887 -2.9093
  159SAPE  C31117845   3.060   4.926   8.055 -0.7974  0.3217 -0.8967
  159SAPE  H11X17846   2.964   4.906   8.107  0.0807 -1.7068  0.0107
  159SAPE  H11Y17847   3.087   5.033   8.071 -0.0208 -0.2359  2.0505
  159SAPE  C31217848   3.173   4.853   8.132 -0.6043  0.1381  0.5732
  159SAPE  H12X17849   3.150   4.744   8.127  0.4791 -0.3185  3.5796
  159SAPE  H12Y17850   3.179   4.871   8.241 -0.3424  1.3674  0.3738
  159SAPE  C31317851   3.301   4.871   8.062  1.2077 -0.2154  0.1268
  159SAPE  H13X17852   3.311   4.982   8.057  0.9442 -0.1948 -0.0085
  159SAPE  H13Y17853   3.299   4.828   7.960  0.9567  1.9577 -0.8462
  159SAPE  C31417854   3.423   4.824   8.148  0.4125 -0.1013  0.2215
  159SAPE  H14X17855   3.515   4.838   8.088  0.7815 -3.0508 -0.0296
  159SAPE  H14Y17856   3.423   4.714   8.165  1.3474 -0.5353 -2.0913
  159SAPE  C31517857   3.448   4.901   8.274  0.1461 -0.3827 -1.0458
  159SAPE  H15X17858   3.370   4.870   8.346  0.9381  0.5506  0.2547
  159SAPE  H15Y17859   3.449   5.011   8.264  1.8643 -0.4999 -2.7341
  159SAPE  C31617860   3.580   4.861   8.340 -0.7924  0.9532  0.2433
  159SAPE  H16X17861   3.672   4.887   8.282  0.7287 -2.3246  0.9572
  159SAPE  H16Y17862   3.579   4.750   8.345 -3.2626  0.9689  1.3948
  159SAPE  C31717863   3.597   4.922   8.480 -0.1791 -1.3918  0.4250
  159SAPE  H17X17864   3.499   4.926   8.532  0.1272  0.0901  0.9305
  159SAPE  H17Y17865   3.613   5.031   8.464 -0.1075 -1.4876 -0.1790
  159SAPE  C31817866   3.699   4.853   8.569 -1.1237 -0.0383 -0.2450
  159SAPE  H18X17867   3.796   4.841   8.516  0.8244  1.7067  2.6294
  159SAPE  H18Y17868   3.665   4.750   8.591  0.7874 -1.4181 -3.1468
  159SAPE  H18Z17869   3.727   4.909   8.660 -0.2400  0.6686 -0.9272
  160SAPE     N17870   1.736   6.169   6.176  0.4024  0.5513  0.0628
  160SAPE   HN117871   1.685   6.259   6.180  0.6528  0.8422 -2.0084
  160SAPE   HN217872   1.826   6.184   6.125 -0.1326 -0.4884 -1.2583
  160SAPE   HN317873   1.675   6.098   6.130 -1.5633  2.7036 -0.8323
  160SAPE   C1217874   1.748   6.125   6.325 -0.1515  0.3598 -0.1622
  160SAPE  H12A17875   1.840   6.172   6.365 -0.8106  1.4132  0.1431
  160SAPE  H12B17876   1.772   6.016   6.320 -1.5137  0.0216  0.4034
  160SAPE   C1117877   1.615   6.169   6.396 -0.4050 -0.1210 -0.1921
  160SAPE  H11A17878   1.613   6.148   6.505 -0.0315 -0.4310 -0.2413
  160SAPE  H11B17879   1.539   6.103   6.347  1.4168 -0.8974 -2.1236
  160SAPE     P17880   1.453   6.365   6.431 -0.0390 -0.2502 -0.2329
  160SAPE   O1317881   1.478   6.507   6.457 -0.4255 -0.3726  0.0094
  160SAPE   O1417882   1.338   6.328   6.345 -0.5275 -0.2070  0.4395
  160SAPE   O1217883   1.582   6.302   6.365  0.1837 -0.2857  0.5224
  160SAPE   O1117884   1.436   6.294   6.568  0.0758 -0.1411 -0.2402
  160SAPE    C117885   1.501   6.333   6.691  0.0356 -0.1527 -0.6241
  160SAPE    HA17886   1.611   6.346   6.677  1.0741 -2.1664  3.7485
  160SAPE    HB17887   1.456   6.427   6.731  2.4807  0.7914  0.1016
  160SAPE    C217888   1.508   6.219   6.795  0.2992  1.2896  0.3089
  160SAPE    HS17889   1.537   6.125   6.743 -0.1146  0.7978  0.9455
  160SAPE   O2117890   1.372   6.189   6.843  0.3505  0.2130 -0.3114
  160SAPE   C2117891   1.356   6.076   6.918 -0.7496  0.0973 -0.3295
  160SAPE   O2217892   1.439   5.988   6.927  0.2899  0.3647  0.1200
  160SAPE   C2217893   1.220   6.076   6.985 -0.1437 -0.3426 -0.0662
  160SAPE   H2R17894   1.210   6.171   7.042 -0.9453 -0.0571 -0.6514
  160SAPE   H2S17895   1.154   6.090   6.896 -1.8200 -0.1244  1.1780
  160SAPE    C317896   1.613   6.245   6.902  0.1232  0.0355 -0.2140
  160SAPE    HX17897   1.698   6.276   6.837  0.9053 -1.0426  0.2648
  160SAPE    HY17898   1.659   6.164   6.963  0.5659  0.5230  0.1099
  160SAPE   O3117899   1.580   6.359   6.979 -0.3891  0.1770  0.1248
  160SAPE   C3117900   1.509   6.333   7.093  0.3234  0.1565 -0.3080
  160SAPE   O3217901   1.501   6.227   7.151  0.1299  0.1460 -0.0021
  160SAPE   C3217902   1.437   6.456   7.138 -0.2051 -0.2595  0.2758
  160SAPE   H2X17903   1.333   6.420   7.151  0.5422 -3.1150 -0.8553
  160SAPE   H2Y17904   1.452   6.535   7.061  1.6028 -0.8201 -0.0082
  160SAPE   C2317905   1.179   5.960   7.075 -0.1548  0.5360  0.2880
  160SAPE   H3R17906   1.180   5.861   7.025  0.6171  0.3759  0.6082
  160SAPE   H3S17907   1.075   5.980   7.109 -0.0289 -0.2281  1.1655
  160SAPE   C2417908   1.262   5.953   7.206 -0.1663 -0.0951 -0.2922
  160SAPE   H4R17909   1.270   6.054   7.252 -2.5562 -0.0497  0.1687
  160SAPE   H4S17910   1.362   5.911   7.182  0.3582  1.9195 -1.8266
  160SAPE   C2517911   1.194   5.855   7.296  0.0340  0.4275  0.2637
  160SAPE   H5R17912   1.165   5.761   7.246  0.2477  0.3596  0.2672
  160SAPE   C2617913   1.164   5.865   7.428 -0.1291  0.0759  0.3917
  160SAPE   H6R17914   1.102   5.788   7.477 -2.8159  0.3032 -2.3616
  160SAPE   C2717915   1.189   5.982   7.519 -0.1736  0.5504  0.3261
  160SAPE   H7R17916   1.243   6.064   7.467  0.5433 -1.3124 -2.0411
  160SAPE   H7S17917   1.264   5.957   7.596  1.2683 -0.0140 -1.2085
  160SAPE   C2817918   1.061   6.033   7.582 -0.2106 -0.2358  0.6228
  160SAPE   H8R17919   1.017   6.115   7.523  1.2976 -0.0506 -0.3204
  160SAPE   C2917920   1.016   6.001   7.701  0.1816 -0.6478 -0.2349
  160SAPE   H9R17921   0.915   6.040   7.724  0.1811 -0.6464 -0.2391
  160SAPE  C21017922   1.085   5.907   7.800 -0.2166 -0.1859 -0.0006
  160SAPE  H10R17923   1.166   5.967   7.847  1.7103 -1.8625 -1.0270
  160SAPE  H10S17924   1.139   5.822   7.752 -2.1193 -1.1838 -0.5093
  160SAPE  C21117925   0.993   5.851   7.905  0.2943 -0.1282  0.3185
  160SAPE  H11R17926   0.928   5.770   7.869 -0.4639  1.5029 -2.2118
  160SAPE  C21217927   0.971   5.902   8.027 -0.2377  0.2476  0.3117
  160SAPE  H12R17928   0.889   5.855   8.084  0.9210 -1.8465  0.3566
  160SAPE  C21317929   1.033   6.030   8.083  0.0530 -0.1323 -0.2638
  160SAPE  H13R17930   1.048   6.108   8.006  2.1061  1.3742  1.5278
  160SAPE  H13S17931   1.138   6.001   8.107 -0.6005 -0.8860  1.9104
  160SAPE  C21417932   0.973   6.094   8.204  0.3459 -0.5951 -0.3605
  160SAPE  H14R17933   0.868   6.066   8.220 -1.0957  4.4373  0.5373
  160SAPE  C21517934   1.033   6.176   8.293 -0.3362  0.3057 -0.6709
  160SAPE  H15R17935   0.961   6.214   8.367 -1.1157  1.0217 -1.7718
  160SAPE  C21617936   1.172   6.221   8.304 -0.3411  0.0726  0.1843
  160SAPE  H16R17937   1.216   6.220   8.202  3.5173  0.4741  1.6683
  160SAPE  H16S17938   1.224   6.144   8.365 -0.7939 -0.0792  0.3818
  160SAPE  C21717939   1.189   6.357   8.374  0.0614 -0.2484 -0.2937
  160SAPE  H17R17940   1.178   6.355   8.485  0.6178 -1.0608 -0.2424
  160SAPE  H17S17941   1.120   6.428   8.324 -1.1750 -1.0118  0.2498
  160SAPE  C21817942   1.333   6.418   8.358  0.0273 -0.0346  0.0943
  160SAPE  H18R17943   1.365   6.403   8.253 -1.2064 -0.1562 -0.2802
  160SAPE  H18S17944   1.403   6.364   8.425 -1.8308 -1.2874  1.1307
  160SAPE  C21917945   1.354   6.570   8.385 -0.0280  0.4437  0.3409
  160SAPE  H19R17946   1.282   6.632   8.329 -2.1067 -2.3470 -0.2936
  160SAPE  H19S17947   1.446   6.624   8.354 -1.2380  1.9879 -0.6438
  160SAPE  C22017948   1.331   6.610   8.528  0.2427 -0.6370 -0.5177
  160SAPE  H20R17949   1.298   6.716   8.532  0.6225 -0.5056 -0.8163
  160SAPE  H20S17950   1.424   6.614   8.589 -1.4975 -1.3669  2.4020
  160SAPE  H20T17951   1.251   6.555   8.583 -1.9413  0.4474 -2.4441
  160SAPE   C3317952   1.483   6.510   7.283  0.5750  0.5526  0.6200
  160SAPE   H3X17953   1.479   6.428   7.358  0.6946  0.4914  0.5600
  160SAPE   H3Y17954   1.405   6.581   7.319 -1.3590 -0.6140 -1.0221
  160SAPE   C3417955   1.619   6.583   7.278  0.6025  0.0362 -0.2292
  160SAPE   H4X17956   1.599   6.667   7.208  0.5137 -1.7662 -2.4748
  160SAPE   H4Y17957   1.693   6.515   7.232 -0.6590 -1.1186 -0.6407
  160SAPE   C3517958   1.661   6.649   7.410  0.7453 -0.1519  0.0391
  160SAPE   H5X17959   1.577   6.685   7.474 -0.4920 -1.8238 -0.5761
  160SAPE   H5Y17960   1.717   6.740   7.379 -0.5845  1.4220  1.9583
  160SAPE   C3617961   1.752   6.550   7.489  0.3238 -0.1783  0.3792
  160SAPE   H6X17962   1.811   6.485   7.421 -0.7762 -1.2377  0.4063
  160SAPE   H6Y17963   1.688   6.490   7.558  0.1100  0.9860  1.2308
  160SAPE   C3717964   1.846   6.625   7.584  0.2880  0.0049 -0.4152
  160SAPE   H7X17965   1.770   6.688   7.635 -1.3621 -1.3822 -1.0487
  160SAPE   H7Y17966   1.918   6.695   7.537 -0.5791  2.3265  1.5075
  160SAPE   C3817967   1.915   6.526   7.684 -0.3549 -0.0050  0.2361
  160SAPE   H8X17968   1.998   6.477   7.628  0.8154  0.8934  1.1284
  160SAPE   H8Y17969   1.838   6.454   7.721 -1.1177  0.4163 -0.5000
  160SAPE   C3917970   1.967   6.606   7.809  0.1475 -0.0626 -0.2205
  160SAPE   H9X17971   1.880   6.631   7.874  0.3445 -0.9669  0.4127
  160SAPE   H9Y17972   2.013   6.701   7.773  1.1006 -0.5624 -0.3496
  160SAPE  C31017973   2.073   6.536   7.896 -0.5972 -0.2206  0.1531
  160SAPE  H10X17974   2.040   6.431   7.917 -0.7525 -0.7572 -2.5029
  160SAPE  H10Y17975   2.074   6.586   7.996 -2.2082  0.6281 -0.2249
  160SAPE  C31117976   2.211   6.518   7.835 -0.2551 -0.7606 -0.1531
  160SAPE  H11X17977   2.206   6.459   7.741  0.9089 -2.7750  0.9958
  160SAPE  H11Y17978   2.265   6.460   7.913 -0.5116 -0.8319 -0.0266
  160SAPE  C31217979   2.285   6.653   7.810  0.4440  0.5339  0.0659
  160SAPE  H12X17980   2.224   6.708   7.735 -1.7788 -2.4054 -0.4472
  160SAPE  H12Y17981   2.384   6.635   7.763  0.5594 -2.3023  1.2134
  160SAPE  C31317982   2.283   6.743   7.935 -0.2004 -0.2658 -0.4931
  160SAPE  H13X17983   2.181   6.761   7.975  0.0766 -0.9671  0.5801
  160SAPE  H13Y17984   2.327   6.842   7.909 -0.3026  0.7387  2.6455
  160SAPE  C31417985   2.371   6.667   8.046  0.2324  0.5738  0.3074
  160SAPE  H14X17986   2.446   6.603   7.994  0.4086 -0.8358  2.2014
  160SAPE  H14Y17987   2.306   6.611   8.115  0.8482  1.1583  1.3805
  160SAPE  C31517988   2.449   6.780   8.116  0.2408  0.0238 -0.9541
  160SAPE  H15X17989   2.375   6.858   8.142  1.1814  0.6763 -0.1582
  160SAPE  H15Y17990   2.526   6.825   8.049  3.4766 -0.4624  2.1143
  160SAPE  C31617991   2.515   6.740   8.244  0.2373  1.3196 -0.2768
  160SAPE  H16X17992   2.444   6.679   8.304  0.1572  2.0888  0.4241
  160SAPE  H16Y17993   2.537   6.830   8.304 -2.1420  2.5182 -1.0905
  160SAPE  C31717994   2.647   6.658   8.224 -0.1226  1.0135  0.8446
  160SAPE  H17X17995   2.721   6.724   8.175  1.3727 -0.9589  0.3291
  160SAPE  H17Y17996   2.628   6.575   8.153  0.2388 -0.1292  2.0538
  160SAPE  C31817997   2.711   6.585   8.346 -0.1558  0.2403  0.3926
  160SAPE  H18X17998   2.718   6.661   8.427 -0.2566 -0.2281  0.8449
  160SAPE  H18Y17999   2.812   6.551   8.318 -0.3326  0.1809 -0.1811
  160SAPE  H18Z18000   2.644   6.499   8.367  1.4317 -1.3191 -0.6596
  161SAPE     N18001   2.896   3.561   6.175  0.1961  0.2049  0.0597
  161SAPE   HN118002   2.879   3.661   6.198 -1.9191 -0.0067 -0.3700
  161SAPE   HN218003   2.841   3.506   6.244 -2.0472  0.9888 -1.0239
  161SAPE   HN318004   2.997   3.534   6.179 -0.4168 -2.2466  2.1774
  161SAPE   C1218005   2.835   3.533   6.040 -0.3047  0.1185 -0.0454
  161SAPE  H12A18006   2.852   3.424   6.026 -0.5199  0.1246 -0.3530
  161SAPE  H12B18007   2.896   3.576   5.958 -1.2531  0.5689 -0.5280
  161SAPE   C1118008   2.689   3.587   6.023  0.1544  0.2597  0.3836
  161SAPE  H11A18009   2.652   3.565   5.921  0.4764  1.4478 -0.0032
  161SAPE  H11B18010   2.697   3.698   6.021  0.9715  0.2220  0.9590
  161SAPE     P18011   2.548   3.624   6.252  0.4943  0.3613 -0.3242
  161SAPE   O1318012   2.654   3.726   6.285  1.2791  0.2819 -0.6825
  161SAPE   O1418013   2.419   3.677   6.212  0.2445 -0.4032  0.3167
  161SAPE   O1218014   2.599   3.535   6.129  0.5670 -0.5769 -0.1679
  161SAPE   O1118015   2.536   3.518   6.366 -0.2096 -0.1917  0.5809
  161SAPE    C118016   2.494   3.381   6.340  0.3892  0.0738  0.1611
  161SAPE    HA18017   2.397   3.377   6.286  0.8074 -2.2673 -0.5437
  161SAPE    HB18018   2.566   3.329   6.272  0.3703 -0.0826  0.2594
  161SAPE    C218019   2.479   3.283   6.467 -0.1845 -0.3236  0.0555
  161SAPE    HS18020   2.375   3.288   6.506  0.1880  0.4944  0.9709
  161SAPE   O2118021   2.574   3.315   6.572 -0.4405 -0.0544  0.2823
  161SAPE   C2118022   2.529   3.410   6.656  0.7261  0.1570  0.3389
  161SAPE   O2218023   2.417   3.460   6.656  0.0663  0.2220  0.7261
  161SAPE   C2218024   2.643   3.452   6.744  0.8562  0.2476  0.1807
  161SAPE   H2R18025   2.718   3.370   6.745  0.1691 -0.4316 -0.9485
  161SAPE   H2S18026   2.676   3.539   6.685  0.7738  0.5854  0.6304
  161SAPE    C318027   2.490   3.134   6.426 -0.0926 -0.2377  0.4498
  161SAPE    HX18028   2.600   3.119   6.420 -0.1880 -0.6572 -0.2992
  161SAPE    HY18029   2.464   3.121   6.319  2.9668  0.2253 -0.4624
  161SAPE   O3118030   2.424   3.052   6.531 -0.2081  0.0234 -0.0239
  161SAPE   C3118031   2.292   3.053   6.508 -0.1103  0.0866  0.5667
  161SAPE   O3218032   2.237   3.103   6.412 -0.2292  0.3008  0.4619
  161SAPE   C3218033   2.220   2.983   6.627 -0.0688 -0.5104 -0.1522
  161SAPE   H2X18034   2.285   2.897   6.654  1.9661  0.6635 -1.0745
  161SAPE   H2Y18035   2.126   2.943   6.584  0.9824 -1.3510 -1.7775
  161SAPE   C2318036   2.601   3.507   6.884  0.8398  0.5383 -0.3112
  161SAPE   H3R18037   2.522   3.584   6.871 -0.6985 -0.4355  2.4301
  161SAPE   H3S18038   2.682   3.561   6.939 -0.0289  0.6745  0.8744
  161SAPE   C2418039   2.554   3.396   6.978  0.5527  0.3587  0.3138
  161SAPE   H4R18040   2.459   3.357   6.936  0.1183  0.2146  1.4259
  161SAPE   H4S18041   2.524   3.442   7.075 -2.2363  0.1593 -0.3644
  161SAPE   C2518042   2.651   3.282   7.001  0.3655 -0.4719 -0.1146
  161SAPE   H5R18043   2.652   3.214   6.915 -0.5918 -0.5870 -0.0448
  161SAPE   C2618044   2.725   3.255   7.109  0.1597 -0.1871  0.7227
  161SAPE   H6R18045   2.791   3.169   7.120  0.5402  0.2737  2.3252
  161SAPE   C2718046   2.723   3.335   7.237 -0.3552 -0.1509 -0.7011
  161SAPE   H7R18047   2.709   3.251   7.309  0.4488 -0.9166 -1.4296
  161SAPE   H7S18048   2.628   3.393   7.244 -0.5834 -0.6890  1.9097
  161SAPE   C2818049   2.828   3.440   7.266 -0.5120  0.2343 -0.2077
  161SAPE   H8R18050   2.892   3.475   7.184 -0.0953  0.9457  0.4089
  161SAPE   C2918051   2.860   3.486   7.391 -0.0068 -1.3121  0.2099
  161SAPE   H9R18052   2.924   3.574   7.403 -1.3258  0.0887 -2.1445
  161SAPE  C21018053   2.803   3.447   7.531  0.3379 -0.6492  0.4275
  161SAPE  H10R18054   2.692   3.441   7.520  0.2486 -2.5319  1.7000
  161SAPE  H10S18055   2.808   3.534   7.599  1.0250  0.5403 -1.0798
  161SAPE  C21118056   2.857   3.317   7.588 -0.2057 -0.5313 -0.4809
  161SAPE  H11R18057   2.887   3.236   7.520 -0.1961 -1.8359  1.0177
  161SAPE  C21218058   2.864   3.292   7.724  0.2462  0.0419 -0.9430
  161SAPE  H12R18059   2.907   3.194   7.749  2.2713  1.0932 -0.0846
  161SAPE  C21318060   2.818   3.381   7.843  0.1465  0.4540 -0.5533
  161SAPE  H13R18061   2.781   3.319   7.926  0.7042  1.5731  0.5648
  161SAPE  H13S18062   2.728   3.429   7.799 -0.8009 -0.0535  0.7725
  161SAPE  C21418063   2.915   3.489   7.878 -0.1723 -0.5830  0.6595
  161SAPE  H14R18064   2.961   3.539   7.792  0.1393 -1.2794  0.4128
  161SAPE  C21518065   2.948   3.528   8.002 -0.6517  0.3757  0.0340
  161SAPE  H15R18066   3.023   3.608   8.015  1.2652 -1.3021 -0.2945
  161SAPE  C21618067   2.897   3.477   8.133  1.0334 -0.2306  0.7498
  161SAPE  H16R18068   2.813   3.405   8.119  1.7440 -0.5229 -3.0637
  161SAPE  H16S18069   2.849   3.549   8.203 -0.8102 -0.8749  0.2048
  161SAPE  C21718070   3.012   3.403   8.212  0.6385  0.1079 -0.3737
  161SAPE  H17R18071   3.081   3.478   8.255  0.0909 -0.7974  2.2196
  161SAPE  H17S18072   3.069   3.336   8.144  0.3153 -0.6375  0.0731
  161SAPE  C21818073   2.970   3.315   8.328 -0.5698  0.3906 -0.8877
  161SAPE  H18R18074   2.910   3.229   8.290 -0.6935 -0.6169  1.4159
  161SAPE  H18S18075   2.915   3.363   8.411 -0.8976 -0.9474 -0.2997
  161SAPE  C21918076   3.091   3.257   8.393  0.2359  0.9436 -0.0292
  161SAPE  H19R18077   3.162   3.339   8.412  1.8631  0.4205 -3.2455
  161SAPE  H19S18078   3.145   3.185   8.328 -0.1884 -0.5015  1.1405
  161SAPE  C22018079   3.065   3.186   8.528 -0.0692  0.1288 -0.7852
  161SAPE  H20R18080   3.014   3.246   8.606  0.8037  1.0448 -0.8976
  161SAPE  H20S18081   3.158   3.152   8.577  1.1147  2.4809 -1.2592
  161SAPE  H20T18082   3.005   3.094   8.511 -1.6443  0.5132  2.0560
  161SAPE   C3318083   2.205   3.072   6.756  0.1460 -0.1213  0.2774
  161SAPE   H3X18084   2.114   3.133   6.738  0.1423  0.3410  1.7823
  161SAPE   H3Y18085   2.282   3.151   6.771  0.1314 -0.0950  0.2134
  161SAPE   C3418086   2.209   2.995   6.890 -0.0111  0.3053 -0.3307
  161SAPE   H4X18087   2.302   2.936   6.906  0.8332  1.8564  0.7741
  161SAPE   H4Y18088   2.122   2.926   6.896 -0.6064  0.9825 -1.0535
  161SAPE   C3518089   2.213   3.090   7.011 -0.0246 -0.3728  0.4253
  161SAPE   H5X18090   2.118   3.148   7.003  1.1921  1.5412 -0.7577
  161SAPE   H5Y18091   2.304   3.152   6.996 -0.7507  1.0165  1.5445
  161SAPE   C3618092   2.212   3.016   7.146  0.1518  0.0174  0.0506
  161SAPE   H6X18093   2.291   2.937   7.137 -0.4002 -0.3930 -1.4523
  161SAPE   H6Y18094   2.119   2.956   7.154  0.9331 -1.7263 -2.6439
  161SAPE   C3718095   2.231   3.108   7.267  0.0574 -0.1625 -0.2975
  161SAPE   H7X18096   2.153   3.187   7.272  1.1803  1.1376 -2.0183
  161SAPE   H7Y18097   2.323   3.169   7.256 -0.1511  0.7288  2.1464
  161SAPE   C3818098   2.245   3.028   7.403  0.4151 -0.0470  0.1275
  161SAPE   H8X18099   2.329   2.957   7.394 -0.4104 -0.9660 -0.5407
  161SAPE   H8Y18100   2.147   2.975   7.410  0.6927 -0.4704  0.8687
  161SAPE   C3918101   2.270   3.118   7.521 -0.5641  0.2940  0.3828
  161SAPE   H9X18102   2.195   3.199   7.519 -0.6945  0.1630 -0.3878
  161SAPE   H9Y18103   2.367   3.172   7.511 -0.7063  0.3502 -0.8648
  161SAPE  C31018104   2.273   3.033   7.651 -0.0595  0.6831 -0.0331
  161SAPE  H10X18105   2.347   2.952   7.639  2.5225  2.2960  3.4149
  161SAPE  H10Y18106   2.181   2.973   7.668 -0.5394  1.3952 -0.0317
  161SAPE  C31118107   2.313   3.096   7.779 -0.0208  0.1892  0.1568
  161SAPE  H11X18108   2.420   3.125   7.787  0.3107 -1.1270  0.6976
  161SAPE  H11Y18109   2.315   3.017   7.857  0.8431 -0.8327 -0.8530
  161SAPE  C31218110   2.222   3.216   7.823  0.5900  0.3521  0.5257
  161SAPE  H12X18111   2.121   3.172   7.833  1.2357 -0.9571  1.5655
  161SAPE  H12Y18112   2.214   3.293   7.743  2.4123  0.3179  0.2578
  161SAPE  C31318113   2.267   3.285   7.953  1.0396  0.5277  0.6327
  161SAPE  H13X18114   2.279   3.211   8.035  0.2734 -1.1568 -0.7097
  161SAPE  H13Y18115   2.181   3.350   7.980  0.2455  0.1019 -0.7841
  161SAPE  C31418116   2.378   3.391   7.934 -0.6835  0.5573 -0.1897
  161SAPE  H14X18117   2.353   3.466   7.855 -0.0670 -1.2238 -2.1813
  161SAPE  H14Y18118   2.465   3.332   7.897 -2.6297 -1.8061 -1.2709
  161SAPE  C31518119   2.416   3.464   8.063  0.4740 -0.0614  0.2610
  161SAPE  H15X18120   2.323   3.509   8.103 -1.1165 -1.2054 -1.9434
  161SAPE  H15Y18121   2.491   3.545   8.049  0.2160  0.0583 -0.4939
  161SAPE  C31618122   2.475   3.380   8.175  0.2380  0.3466  0.6591
  161SAPE  H16X18123   2.548   3.308   8.132 -2.1248 -1.8486  0.1052
  161SAPE  H16Y18124   2.390   3.323   8.218 -1.4199  2.6927  0.6774
  161SAPE  C31718125   2.526   3.459   8.298  0.3270 -0.1719 -0.6286
  161SAPE  H17X18126   2.602   3.529   8.256 -1.2061  0.2609 -2.8432
  161SAPE  H17Y18127   2.581   3.398   8.372  1.7923  0.5690 -1.0620
  161SAPE  C31818128   2.425   3.551   8.367  0.5278 -0.3951  0.9623
  161SAPE  H18X18129   2.474   3.615   8.444  0.9209  1.9178 -1.0643
  161SAPE  H18Y18130   2.335   3.497   8.403 -0.6150  0.0522 -1.0553
  161SAPE  H18Z18131   2.402   3.625   8.287  3.2555  0.6070  0.9927
  162SAPE     N18132   3.688   0.408   6.095 -0.2760  0.1352 -0.3672
  162SAPE   HN118133   3.588   0.430   6.079  0.2065  1.8507 -1.3127
  162SAPE   HN218134   3.746   0.494   6.080  1.5771 -0.7920  1.0186
  162SAPE   HN318135   3.721   0.336   6.027  0.3636  0.8594 -0.8483
  162SAPE   C1218136   3.712   0.351   6.230  0.3274  0.3815 -0.7327
  162SAPE  H12A18137   3.657   0.255   6.240  0.2681  0.5767  1.1517
  162SAPE  H12B18138   3.677   0.423   6.307 -1.0546 -4.3753  3.7439
  162SAPE   C1118139   3.868   0.325   6.247  1.2353  0.3298  0.7387
  162SAPE  H11A18140   3.890   0.231   6.192 -1.3714 -0.4052  0.8406
  162SAPE  H11B18141   3.884   0.311   6.356 -2.5919  0.0279  1.3880
  162SAPE     P18142   3.997   0.547   6.291 -0.3259 -0.2084  0.1682
  162SAPE   O1318143   4.119   0.499   6.364  0.1537 -0.6767 -0.1006
  162SAPE   O1418144   4.021   0.661   6.203 -0.2478 -0.0988 -0.0869
  162SAPE   O1218145   3.948   0.434   6.188 -0.5158  0.0659 -0.7269
  162SAPE   O1118146   3.868   0.567   6.386 -0.0714  0.1473  0.2107
  162SAPE    C118147   3.789   0.683   6.366 -0.3477  0.3201  0.1861
  162SAPE    HA18148   3.843   0.775   6.333 -0.7766  0.7050  0.5385
  162SAPE    HB18149   3.709   0.665   6.290 -0.5913 -0.0178  0.5217
  162SAPE    C218150   3.729   0.729   6.502 -0.4477  0.7832 -0.7156
  162SAPE    HS18151   3.686   0.832   6.508 -0.8384  0.5888 -0.0610
  162SAPE   O2118152   3.819   0.700   6.612  0.6883 -0.3234  0.4047
  162SAPE   C2118153   3.926   0.789   6.606  0.2631  1.0224 -0.4069
  162SAPE   O2218154   3.924   0.888   6.542 -0.3733 -0.1854 -0.2140
  162SAPE   C2218155   4.046   0.731   6.677  0.1225 -0.3684  0.1203
  162SAPE   H2R18156   4.011   0.658   6.752  1.5123 -0.6691  0.4986
  162SAPE   H2S18157   4.113   0.685   6.601 -0.2585 -0.6169 -0.0633
  162SAPE    C318158   3.612   0.633   6.534  1.0024  0.0148  0.0063
  162SAPE    HX18159   3.623   0.527   6.502 -0.4230 -0.7677  1.8978
  162SAPE    HY18160   3.533   0.666   6.463 -1.6450 -0.1726  2.6201
  162SAPE   O3118161   3.548   0.644   6.667 -0.5142 -0.9119  0.3740
  162SAPE   C3118162   3.573   0.556   6.767 -0.1942  0.0260  0.8922
  162SAPE   O3218163   3.648   0.460   6.763  0.1199  0.4612 -0.5828
  162SAPE   C3218164   3.498   0.588   6.900  0.0374 -0.3220 -0.0943
  162SAPE   H2X18165   3.417   0.513   6.913 -0.4891  0.0274 -1.2000
  162SAPE   H2Y18166   3.444   0.684   6.887  3.6928  1.6232 -2.4530
  162SAPE   C2318167   4.128   0.842   6.747  0.7765  0.8151  0.2494
  162SAPE   H3R18168   4.056   0.909   6.799  1.0180  0.4528  1.0631
  162SAPE   H3S18169   4.180   0.899   6.667  1.3248 -0.8901 -0.6690
  162SAPE   C2418170   4.237   0.771   6.840  0.1925 -0.0094  0.3889
  162SAPE   H4R18171   4.320   0.842   6.862  1.0691 -0.7273 -0.5025
  162SAPE   H4S18172   4.279   0.691   6.776 -0.2629 -0.0518  0.1412
  162SAPE   C2518173   4.177   0.714   6.967 -0.6120  0.1779 -0.2480
  162SAPE   H5R18174   4.160   0.606   6.963  0.4171 -0.0765  1.3695
  162SAPE   C2618175   4.145   0.786   7.076  0.1165  0.0829  0.5370
  162SAPE   H6R18176   4.125   0.725   7.165 -1.6226 -0.3375 -0.1069
  162SAPE   C2718177   4.157   0.938   7.103 -0.8277 -0.0645  0.4057
  162SAPE   H7R18178   4.053   0.974   7.121  0.0783  3.8959 -1.1684
  162SAPE   H7S18179   4.198   0.999   7.019  0.8661  0.2829  1.4471
  162SAPE   C2818180   4.245   0.966   7.219 -1.2009 -0.6299 -1.0056
  162SAPE   H8R18181   4.353   0.975   7.203 -0.9705 -1.6316 -0.1271
  162SAPE   C2918182   4.214   0.990   7.349 -0.1894 -0.2670 -0.4575
  162SAPE   H9R18183   4.292   0.991   7.426 -0.7119  0.4572  0.0771
  162SAPE  C21018184   4.081   1.003   7.414 -0.4526  0.8597 -0.3596
  162SAPE  H10R18185   4.060   0.904   7.459  0.4405 -0.3042 -2.3584
  162SAPE  H10S18186   4.003   1.018   7.336 -1.8304  2.7614  1.2839
  162SAPE  C21118187   4.065   1.117   7.511 -0.6218  0.4754 -0.8415
  162SAPE  H11R18188   4.027   1.209   7.463 -1.3253 -0.3076 -1.8173
  162SAPE  C21218189   4.089   1.117   7.646  0.3739  0.8161  0.0589
  162SAPE  H12R18190   4.075   1.210   7.704 -0.2863  1.9306 -1.8052
  162SAPE  C21318191   4.146   1.006   7.734 -0.5031 -0.1499 -0.3818
  162SAPE  H13R18192   4.206   0.938   7.671 -2.4434 -0.2958 -2.1905
  162SAPE  H13S18193   4.058   0.957   7.782  0.5682 -2.6723 -0.8321
  162SAPE  C21418194   4.238   1.059   7.843 -0.6968  0.5754 -0.2430
  162SAPE  H14R18195   4.302   1.145   7.817  0.3254  0.5534  2.0056
  162SAPE  C21518196   4.252   1.026   7.972  0.2035  1.2461  0.3755
  162SAPE  H15R18197   4.343   1.053   8.028  0.2914 -0.2553  1.0063
  162SAPE  C21618198   4.173   0.908   8.028 -0.4523  0.2167  0.2951
  162SAPE  H16R18199   4.236   0.858   8.103  0.5298  2.8891  1.3921
  162SAPE  H16S18200   4.143   0.833   7.951  0.3770 -0.9312  1.0658
  162SAPE  C21718201   4.048   0.964   8.103 -0.5091 -0.1790 -0.1690
  162SAPE  H17R18202   3.987   0.877   8.136 -1.6315  0.2011 -1.1482
  162SAPE  H17S18203   3.979   1.029   8.045  1.2557  2.0610  0.1177
  162SAPE  C21818204   4.072   1.039   8.240  0.0454  0.1844 -0.1420
  162SAPE  H18R18205   4.117   1.135   8.205 -2.4538  1.4425 -0.1142
  162SAPE  H18S18206   4.131   0.999   8.324 -0.0821 -0.2824 -0.2723
  162SAPE  C21918207   3.937   1.078   8.317 -0.1803  0.6614 -0.1366
  162SAPE  H19R18208   3.851   1.107   8.253  0.8768  3.5116 -0.4169
  162SAPE  H19S18209   3.950   1.173   8.374  1.1966  0.6757 -0.4367
  162SAPE  C22018210   3.897   0.961   8.409  1.1381 -0.0048  0.0184
  162SAPE  H20R18211   3.813   0.991   8.475  1.4997 -0.3940  0.6679
  162SAPE  H20S18212   3.979   0.930   8.477  0.8034 -2.7997 -0.7506
  162SAPE  H20T18213   3.865   0.878   8.342  1.8421  0.2161 -0.6068
  162SAPE   C3318214   3.596   0.587   7.021  0.3052 -0.2534 -0.1719
  162SAPE   H3X18215   3.686   0.524   7.004  1.8364  1.5001  1.0102
  162SAPE   H3Y18216   3.547   0.549   7.114  1.2069  1.3275  0.9988
  162SAPE   C3418217   3.645   0.729   7.048  0.3232  0.5592  0.4085
  162SAPE   H4X18218   3.561   0.790   7.008 -0.3293 -0.5117  0.0977
  162SAPE   H4Y18219   3.739   0.733   6.989  0.7517 -0.7656  0.9692
  162SAPE   C3518220   3.674   0.753   7.198 -1.1772 -0.1399  0.2395
  162SAPE   H5X18221   3.750   0.834   7.203  0.0372 -1.1624 -0.8450
  162SAPE   H5Y18222   3.728   0.669   7.245  0.2728  0.8384  0.3739
  162SAPE   C3618223   3.559   0.788   7.292  0.7820 -0.4571  0.5097
  162SAPE   H6X18224   3.509   0.695   7.328 -1.2329  0.7858  1.1453
  162SAPE   H6Y18225   3.490   0.849   7.230 -1.9987 -2.8250  1.0447
  162SAPE   C3718226   3.579   0.860   7.424 -0.0670 -0.0103  0.1202
  162SAPE   H7X18227   3.483   0.878   7.477  0.2106 -0.1340  0.6714
  162SAPE   H7Y18228   3.619   0.958   7.389  0.5036  0.0011  0.8050
  162SAPE   C3818229   3.684   0.791   7.507 -0.6481  0.3119 -0.3768
  162SAPE   H8X18230   3.778   0.784   7.447 -0.9764 -1.7963 -0.7079
  162SAPE   H8Y18231   3.643   0.689   7.517 -3.6444  1.4185 -0.3391
  162SAPE   C3918232   3.713   0.865   7.641  0.4116  0.0503  0.1135
  162SAPE   H9X18233   3.771   0.959   7.624 -0.4640  0.6639  0.4369
  162SAPE   H9Y18234   3.771   0.802   7.712 -1.6208  0.0235  1.8772
  162SAPE  C31018235   3.588   0.910   7.721 -1.0021  0.5196 -0.1366
  162SAPE  H10X18236   3.522   0.824   7.742  0.2681 -0.8104 -1.3470
  162SAPE  H10Y18237   3.533   0.984   7.659 -0.2775  3.3279  2.3566
  162SAPE  C31118238   3.630   0.974   7.856 -0.7671  0.2141  0.4016
  162SAPE  H11X18239   3.718   1.040   7.842 -0.1510 -0.5619  0.5261
  162SAPE  H11Y18240   3.640   0.887   7.924 -1.8179 -0.8008 -0.7072
  162SAPE  C31218241   3.520   1.067   7.912 -0.8511  0.9767  0.3489
  162SAPE  H12X18242   3.424   1.042   7.863 -1.8776  1.0496  2.2605
  162SAPE  H12Y18243   3.543   1.172   7.883 -2.0355  0.8859 -1.0191
  162SAPE  C31318244   3.484   1.047   8.060 -0.0723 -0.4118 -0.5954
  162SAPE  H13X18245   3.562   1.077   8.133 -0.6399  0.5689 -0.3756
  162SAPE  H13Y18246   3.461   0.939   8.074  0.5110 -0.5503 -0.6883
  162SAPE  C31418247   3.353   1.117   8.118  0.4686 -0.1168 -0.1124
  162SAPE  H14X18248   3.361   1.100   8.228  0.7016  0.4186 -0.0422
  162SAPE  H14Y18249   3.262   1.070   8.075  0.3180  0.8670 -0.8978
  162SAPE  C31518250   3.344   1.264   8.087  0.1247 -0.0415 -0.1778
  162SAPE  H15X18251   3.235   1.285   8.090 -0.5156 -2.0032 -3.7411
  162SAPE  H15Y18252   3.374   1.299   7.985 -4.2732 -0.8101 -1.9666
  162SAPE  C31618253   3.412   1.343   8.193 -0.1903 -0.5637 -0.7664
  162SAPE  H16X18254   3.520   1.324   8.212 -0.4471 -0.6369  0.7658
  162SAPE  H16Y18255   3.364   1.327   8.292 -0.0914  1.7432 -0.2909
  162SAPE  C31718256   3.412   1.489   8.154  0.0970 -0.4048  0.2114
  162SAPE  H17X18257   3.307   1.525   8.161  0.1591 -0.2501  0.3327
  162SAPE  H17Y18258   3.441   1.515   8.050  0.6797  1.9497  0.9025
  162SAPE  C31818259   3.483   1.578   8.256 -0.1378 -0.9109 -0.2725
  162SAPE  H18X18260   3.509   1.680   8.220 -1.9223 -0.1275  0.5395
  162SAPE  H18Y18261   3.577   1.527   8.286 -0.4414 -0.4770  1.5145
  162SAPE  H18Z18262   3.418   1.586   8.346  0.0155 -1.1943 -0.1359
  163SAPE     N18263   2.774   5.341   6.562 -0.1337 -0.0667 -0.1946
  163SAPE   HN118264   2.716   5.422   6.532 -0.9088 -0.4046  0.3693
  163SAPE   HN218265   2.839   5.372   6.636  0.6373  0.7889 -1.1879
  163SAPE   HN318266   2.839   5.301   6.492  1.2616 -0.5180  1.3135
  163SAPE   C1218267   2.689   5.233   6.624 -0.1592  0.9254 -0.5503
  163SAPE  H12A18268   2.652   5.281   6.716 -0.0463 -1.5731  0.8739
  163SAPE  H12B18269   2.767   5.159   6.653 -1.2872 -0.3652 -0.7061
  163SAPE   C1118270   2.584   5.177   6.530  0.4300  0.5540  0.5914
  163SAPE  H11A18271   2.517   5.104   6.580  0.0676  0.4611 -0.0180
  163SAPE  H11B18272   2.641   5.130   6.446 -0.5174 -0.9911  0.7789
  163SAPE     P18273   2.378   5.347   6.531  0.3124  0.0455  0.4610
  163SAPE   O1318274   2.416   5.485   6.556  0.1574 -0.1537 -0.1723
  163SAPE   O1418275   2.259   5.336   6.446  0.1762  0.3600 -0.0852
  163SAPE   O1218276   2.498   5.273   6.467 -0.3787 -0.1219 -0.2496
  163SAPE   O1118277   2.354   5.263   6.666 -0.4250  0.0124  0.4791
  163SAPE    C118278   2.237   5.185   6.670  0.3657  0.8912  0.3093
  163SAPE    HA18279   2.144   5.244   6.661 -0.5932 -0.3489  1.6891
  163SAPE    HB18280   2.234   5.107   6.591  0.9610  2.1887 -1.0487
  163SAPE    C218281   2.222   5.112   6.806 -1.0088 -0.3407  0.1776
  163SAPE    HS18282   2.123   5.063   6.812 -1.3075  0.0661 -1.1352
  163SAPE   O2118283   2.248   5.207   6.916  0.1096  0.3600 -0.1023
  163SAPE   C2118284   2.129   5.275   6.950  0.4752  0.1687  0.6281
  163SAPE   O2218285   2.020   5.255   6.904  0.4291  0.2222  0.0436
  163SAPE   C2218286   2.163   5.374   7.061  0.1873 -0.3820  0.0489
  163SAPE   H2R18287   2.272   5.383   7.076  0.4523 -2.9321  0.2339
  163SAPE   H2S18288   2.123   5.469   7.022 -0.1085  0.0949  1.4725
  163SAPE    C318289   2.329   4.990   6.823 -0.6847  0.4899  0.4127
  163SAPE    HX18290   2.425   5.041   6.800 -0.5922  0.5777  0.9724
  163SAPE    HY18291   2.295   4.930   6.736  0.1176  0.5954  0.0194
  163SAPE   O3118292   2.328   4.916   6.950 -0.5242  0.6215  0.0900
  163SAPE   C3118293   2.443   4.894   7.010 -0.6223 -0.1537  0.2894
  163SAPE   O3218294   2.552   4.926   6.966 -0.7075 -0.1869  0.8114
  163SAPE   C3218295   2.434   4.828   7.148  0.0288 -0.2947  0.3727
  163SAPE   H2X18296   2.470   4.725   7.127  2.0942  0.7865 -1.9707
  163SAPE   H2Y18297   2.326   4.828   7.174 -0.0524  3.3527  0.5845
  163SAPE   C2318298   2.082   5.342   7.195 -0.0610  0.0930  0.3753
  163SAPE   H3R18299   1.986   5.300   7.156  1.5369 -0.4738 -3.3141
  163SAPE   H3S18300   2.064   5.438   7.248  1.1836  0.9313 -0.6673
  163SAPE   C2418301   2.167   5.237   7.278 -0.1069 -0.8723 -0.5512
  163SAPE   H4R18302   2.265   5.283   7.305 -0.4767 -0.9207  0.9679
  163SAPE   H4S18303   2.189   5.155   7.206  3.1252 -0.6101 -0.0013
  163SAPE   C2518304   2.086   5.196   7.392 -0.4629  0.1250 -0.2640
  163SAPE   H5R18305   2.012   5.118   7.369  0.9740 -1.9696  1.6516
  163SAPE   C2618306   2.101   5.231   7.523  0.2120 -0.0891  0.3554
  163SAPE   H6R18307   2.027   5.183   7.589 -0.3754 -0.3104 -0.4529
  163SAPE   C2718308   2.202   5.322   7.596 -0.5826  0.0292 -0.0878
  163SAPE   H7R18309   2.139   5.356   7.681 -1.9072 -0.4038 -0.8568
  163SAPE   H7S18310   2.227   5.412   7.536 -1.4037  0.7909  0.6961
  163SAPE   C2818311   2.316   5.250   7.646  0.4489  0.0376 -0.3787
  163SAPE   H8R18312   2.341   5.166   7.579 -0.4394 -0.9919  0.5300
  163SAPE   C2918313   2.387   5.276   7.759 -0.4776 -0.1764  0.7340
  163SAPE   H9R18314   2.486   5.229   7.765  1.0438  2.8057  1.2199
  163SAPE  C21018315   2.374   5.377   7.874  0.9546 -0.3733  0.8208
  163SAPE  H10R18316   2.313   5.460   7.832 -0.5480 -1.7493  0.1700
  163SAPE  H10S18317   2.475   5.402   7.914  0.7934  1.0734  0.3968
  163SAPE  C21118318   2.286   5.320   7.980 -0.1165 -0.2164 -0.8080
  163SAPE  H11R18319   2.190   5.274   7.951  0.1323 -0.1151 -1.8493
  163SAPE  C21218320   2.312   5.320   8.109 -0.6611  0.4076 -0.1522
  163SAPE  H12R18321   2.234   5.272   8.170  1.4428 -0.8495  1.6970
  163SAPE  C21318322   2.441   5.361   8.189 -0.6879  0.4054 -0.8324
  163SAPE  H13R18323   2.427   5.452   8.251  0.3884 -0.9395  1.5468
  163SAPE  H13S18324   2.523   5.378   8.116  2.6228  0.2467  2.5149
  163SAPE  C21418325   2.496   5.257   8.283  0.1337 -0.1256  0.6144
  163SAPE  H14R18326   2.483   5.259   8.392 -0.1494  0.0604  0.5793
  163SAPE  C21518327   2.567   5.149   8.231 -0.3435 -0.1183  0.5253
  163SAPE  H15R18328   2.604   5.073   8.302  0.9012  1.0949  1.2265
  163SAPE  C21618329   2.597   5.116   8.083  0.0511  0.0616 -0.3639
  163SAPE  H16R18330   2.697   5.067   8.082 -0.6412 -1.6452  2.1062
  163SAPE  H16S18331   2.592   5.199   8.009 -1.1844  3.5517  3.2528
  163SAPE  C21718332   2.500   5.018   8.029 -0.1264 -0.6007 -0.3500
  163SAPE  H17R18333   2.400   5.064   8.010 -0.1498 -0.2234  0.6244
  163SAPE  H17S18334   2.480   4.937   8.102 -0.3409 -1.0119 -0.8635
  163SAPE  C21818335   2.558   4.971   7.892 -0.0056  0.2749  0.2272
  163SAPE  H18R18336   2.650   4.915   7.920  0.3843  1.6885  1.9258
  163SAPE  H18S18337   2.597   5.056   7.831  1.4066  0.0554  0.7759
  163SAPE  C21918338   2.467   4.876   7.807  0.0073 -0.3170  0.0735
  163SAPE  H19R18339   2.370   4.925   7.783 -1.4737 -2.3523  1.5208
  163SAPE  H19S18340   2.450   4.782   7.865 -0.1973 -0.6467 -0.5159
  163SAPE  C22018341   2.525   4.850   7.666  0.0515 -0.1254  0.0224
  163SAPE  H20R18342   2.606   4.773   7.663 -1.5217 -1.8635  0.4988
  163SAPE  H20S18343   2.556   4.945   7.618 -1.1441  0.1630 -0.1862
  163SAPE  H20T18344   2.442   4.815   7.602  1.3073  1.2003 -2.4628
  163SAPE   C3318345   2.528   4.903   7.251 -0.1644 -0.0075 -0.9105
  163SAPE   H3X18346   2.635   4.894   7.223 -0.6683  0.4506 -3.2111
  163SAPE   H3Y18347   2.509   4.858   7.350  0.2466  0.4221 -0.6338
  163SAPE   C3418348   2.510   5.062   7.246 -0.0971  0.3184 -0.3557
  163SAPE   H4X18349   2.405   5.093   7.262 -0.2937 -1.4149  2.3445
  163SAPE   H4Y18350   2.547   5.106   7.151 -1.4832 -0.6489 -1.3827
  163SAPE   C3518351   2.588   5.133   7.360 -0.0915 -0.3364 -0.3256
  163SAPE   H5X18352   2.534   5.115   7.456  1.0268  1.8382  0.7770
  163SAPE   H5Y18353   2.571   5.243   7.357 -0.9348 -0.0866  4.4275
  163SAPE   C3618354   2.737   5.103   7.377  0.4772  0.0486 -0.0123
  163SAPE   H6X18355   2.777   5.095   7.273  0.1512 -0.8717 -0.0707
  163SAPE   H6Y18356   2.752   5.009   7.433  1.1821  0.3872  0.3891
  163SAPE   C3718357   2.823   5.210   7.455 -0.6263  0.1290  0.5242
  163SAPE   H7X18358   2.818   5.305   7.398  1.0018 -0.8343 -1.3529
  163SAPE   H7Y18359   2.927   5.171   7.454 -0.1164  1.4048  1.0043
  163SAPE   C3818360   2.783   5.238   7.596  1.1353  0.4135  0.2535
  163SAPE   H8X18361   2.794   5.143   7.651  0.5618 -1.1687 -2.2039
  163SAPE   H8Y18362   2.674   5.258   7.591  0.8883 -1.0654 -1.5060
  163SAPE   C3918363   2.862   5.340   7.677 -0.5928 -0.0981 -0.1496
  163SAPE   H9X18364   2.881   5.429   7.613  1.1235 -1.5738 -1.7858
  163SAPE   H9Y18365   2.967   5.314   7.702 -0.3583  2.2803  1.7963
  163SAPE  C31018366   2.798   5.369   7.807  0.0565  0.5371 -0.0594
  163SAPE  H10X18367   2.758   5.275   7.852  1.0578 -0.3430 -0.9495
  163SAPE  H10Y18368   2.713   5.440   7.792 -1.1032 -0.5849  0.9721
  163SAPE  C31118369   2.899   5.428   7.909 -0.0268 -0.2490 -0.2480
  163SAPE  H11X18370   2.945   5.519   7.864 -0.2576 -0.7081 -1.4644
  163SAPE  H11Y18371   2.977   5.354   7.936 -1.7805 -2.0123  0.1448
  163SAPE  C31218372   2.819   5.475   8.042  0.1408  0.6199  0.2188
  163SAPE  H12X18373   2.786   5.381   8.091 -0.3073  1.9392  2.6239
  163SAPE  H12Y18374   2.725   5.521   8.007 -2.1343 -1.2980  3.2935
  163SAPE  C31318375   2.898   5.560   8.133 -0.0486 -0.2215  0.0376
  163SAPE  H13X18376   2.907   5.662   8.091 -0.7839 -0.2474 -0.1956
  163SAPE  H13Y18377   3.000   5.520   8.153  0.0000  0.3293  0.9244
  163SAPE  C31418378   2.821   5.576   8.266  0.0587 -0.2767 -0.7564
  163SAPE  H14X18379   2.795   5.472   8.296 -0.1654 -0.3946 -1.3622
  163SAPE  H14Y18380   2.735   5.642   8.246  0.9203  1.1549  0.0986
  163SAPE  C31518381   2.901   5.624   8.381 -0.2611  0.3431  0.0403
  163SAPE  H15X18382   2.951   5.715   8.342  0.5658 -0.5041 -0.9510
  163SAPE  H15Y18383   2.990   5.559   8.401  0.0828  0.0493 -2.1676
  163SAPE  C31618384   2.809   5.647   8.502 -0.3150  0.3091  0.2567
  163SAPE  H16X18385   2.745   5.560   8.530  1.1762 -0.4617  1.4372
  163SAPE  H16Y18386   2.736   5.721   8.461 -0.2337  0.6854  0.7840
  163SAPE  C31718387   2.869   5.695   8.637 -0.1471  0.3121 -0.9138
  163SAPE  H17X18388   2.941   5.777   8.615  1.1600 -0.1889  1.2517
  163SAPE  H17Y18389   2.928   5.618   8.691 -1.9927 -1.3161 -1.0903
  163SAPE  C31818390   2.762   5.746   8.737 -0.5369  0.3770  0.0043
  163SAPE  H18X18391   2.701   5.655   8.756 -1.0128  0.5087 -0.8246
  163SAPE  H18Y18392   2.706   5.827   8.684  0.2999 -0.2984 -2.0221
  163SAPE  H18Z18393   2.801   5.785   8.833 -1.1800 -0.7304  0.7347
  164SAPE     N18394   3.878   3.100   5.951 -0.6817  0.1457  0.6312
  164SAPE   HN118395   3.940   3.183   5.959 -0.8603  0.4437 -0.8566
  164SAPE   HN218396   3.785   3.131   5.918 -0.2488 -0.5842 -1.3668
  164SAPE   HN318397   3.879   3.061   6.048 -0.4318 -0.5490  0.3560
  164SAPE   C1218398   3.942   2.998   5.865  0.4493  0.3292 -0.3863
  164SAPE  H12A18399   3.963   3.042   5.765 -0.7381  1.0649 -0.3402
  164SAPE  H12B18400   3.859   2.925   5.852 -0.8468  1.5243  0.7992
  164SAPE   C1118401   4.074   2.955   5.916  0.7565  0.0611 -0.4647
  164SAPE  H11A18402   4.121   2.877   5.852  2.3637 -1.3788  2.2867
  164SAPE  H11B18403   4.060   2.912   6.017 -0.0566 -0.8869 -0.9549
  164SAPE     P18404   4.305   3.058   5.979 -0.2493  0.4272  0.3382
  164SAPE   O1318405   4.355   2.920   5.957 -0.2219 -0.1971 -0.1865
  164SAPE   O1418406   4.377   3.173   5.925  0.8632 -0.2018 -0.0376
  164SAPE   O1218407   4.159   3.064   5.919  0.4596 -0.0328  0.2329
  164SAPE   O1118408   4.296   3.071   6.136  0.2177 -0.5341 -0.1603
  164SAPE    C118409   4.278   3.199   6.192  0.3112 -0.2163 -0.2993
  164SAPE    HA18410   4.258   3.278   6.117 -0.5780  1.2471  1.4132
  164SAPE    HB18411   4.186   3.194   6.254  0.8520  0.1801  0.5397
  164SAPE    C218412   4.389   3.247   6.278 -0.4295 -0.1570 -0.2977
  164SAPE    HS18413   4.483   3.268   6.222  1.2576 -1.9655  1.7073
  164SAPE   O2118414   4.426   3.151   6.384 -0.0435  0.1209 -0.2089
  164SAPE   C2118415   4.548   3.160   6.441 -0.3106 -0.1177  0.2927
  164SAPE   O2218416   4.638   3.231   6.405  0.4140  0.7190 -0.4496
  164SAPE   C2218417   4.559   3.052   6.547 -0.3309 -0.6716  0.0167
  164SAPE   H2R18418   4.558   2.949   6.506 -2.4040 -1.4086  1.7588
  164SAPE   H2S18419   4.660   3.063   6.590  0.3449  0.5150 -1.7523
  164SAPE    C318420   4.350   3.376   6.345  0.3806  0.0325  0.1074
  164SAPE    HX18421   4.334   3.457   6.271 -1.9738 -1.2656 -0.9146
  164SAPE    HY18422   4.432   3.415   6.409 -0.2066 -0.0629  0.9310
  164SAPE   O3118423   4.229   3.354   6.422 -0.5854 -0.8113  0.6920
  164SAPE   C3118424   4.222   3.420   6.534 -0.0517  0.2272  0.0481
  164SAPE   O3218425   4.300   3.496   6.584 -0.5167 -0.5313 -0.0253
  164SAPE   C3218426   4.085   3.382   6.598 -0.0542 -0.2930  0.2991
  164SAPE   H2X18427   4.017   3.347   6.517  1.2470 -1.4436 -0.3327
  164SAPE   H2Y18428   4.033   3.473   6.637  0.4843  0.0389  0.2553
  164SAPE   C2318429   4.451   3.079   6.651 -0.7683 -0.0962  0.4105
  164SAPE   H3R18430   4.352   3.031   6.633  0.6523 -2.1854 -2.8226
  164SAPE   H3S18431   4.433   3.188   6.644  0.1373  0.0557  0.4199
  164SAPE   C2418432   4.494   3.049   6.793  0.5502  0.1082  0.0797
  164SAPE   H4R18433   4.600   3.075   6.815  0.2599 -0.1685  1.9486
  164SAPE   H4S18434   4.505   2.939   6.806 -0.2788  0.1603  1.4852
  164SAPE   C2518435   4.389   3.099   6.893 -0.3407  1.0348  0.1944
  164SAPE   H5R18436   4.328   3.186   6.867 -2.5111  0.2739  2.3829
  164SAPE   C2618437   4.349   3.046   7.009  0.0935 -0.3048  0.2652
  164SAPE   H6R18438   4.275   3.104   7.067  0.4457  0.6473 -0.2158
  164SAPE   C2718439   4.411   2.930   7.079  0.2997 -0.3816  0.0608
  164SAPE   H7R18440   4.394   2.939   7.189 -4.0103 -0.8032 -0.4119
  164SAPE   H7S18441   4.522   2.930   7.066  0.3687 -0.6440  0.6193
  164SAPE   C2818442   4.373   2.786   7.041 -0.4032  0.1170  0.5112
  164SAPE   H8R18443   4.329   2.772   6.941  1.3565 -1.1021 -0.1458
  164SAPE   C2918444   4.396   2.680   7.119 -0.3847  0.3820  0.4995
  164SAPE   H9R18445   4.367   2.580   7.082  3.5795 -0.7874  0.0388
  164SAPE  C21018446   4.445   2.683   7.263 -0.5015  0.4406 -0.7196
  164SAPE  H10R18447   4.453   2.583   7.311 -0.2993  2.6439  4.5265
  164SAPE  H10S18448   4.379   2.755   7.317  0.7161  0.9395  0.1410
  164SAPE  C21118449   4.590   2.741   7.280  0.5461  0.4037 -0.0119
  164SAPE  H11R18450   4.641   2.772   7.188  0.9623  0.9653  0.3995
  164SAPE  C21218451   4.654   2.764   7.395 -0.3619  0.1004  0.2704
  164SAPE  H12R18452   4.758   2.801   7.396 -0.0841 -0.6524  0.0439
  164SAPE  C21318453   4.599   2.728   7.531 -0.2401  0.0823  0.1299
  164SAPE  H13R18454   4.509   2.663   7.535 -0.0641 -0.1756 -0.0779
  164SAPE  H13S18455   4.559   2.819   7.581 -0.0978 -0.3386  1.0378
  164SAPE  C21418456   4.712   2.654   7.591  0.3649  0.1754  0.7976
  164SAPE  H14R18457   4.715   2.548   7.558  0.7429 -0.4436  2.7152
  164SAPE  C21518458   4.773   2.690   7.700  0.0983  0.5603 -0.5963
  164SAPE  H15R18459   4.862   2.633   7.733 -0.2749  0.4122  0.1919
  164SAPE  C21618460   4.753   2.812   7.787 -0.1137  0.4758 -0.0799
  164SAPE  H16R18461   4.680   2.880   7.738 -0.6787 -0.3301 -0.3815
  164SAPE  H16S18462   4.854   2.857   7.796 -0.5000  0.9847  2.4041
  164SAPE  C21718463   4.699   2.794   7.934  0.0745  1.1570 -0.0994
  164SAPE  H17R18464   4.597   2.750   7.929 -0.4459  2.3442 -0.3409
  164SAPE  H17S18465   4.684   2.894   7.980 -1.2787  0.7448  0.4052
  164SAPE  C21818466   4.786   2.695   8.010  0.4092  0.9493  0.2914
  164SAPE  H18R18467   4.893   2.725   8.005 -0.3662  3.9167 -0.1131
  164SAPE  H18S18468   4.789   2.593   7.965  0.7918  1.2307 -0.3290
  164SAPE  C21918469   4.736   2.671   8.151 -0.8564  0.4643 -0.8673
  164SAPE  H19R18470   4.788   2.578   8.183 -1.1580  0.2248 -1.0648
  164SAPE  H19S18471   4.627   2.653   8.163 -0.8973  1.8668  1.4548
  164SAPE  C22018472   4.768   2.783   8.250  0.3220 -0.5562  0.1253
  164SAPE  H20R18473   4.878   2.791   8.265 -0.0100  0.4997  2.6181
  164SAPE  H20S18474   4.724   2.769   8.351 -1.1092  1.9695 -0.0583
  164SAPE  H20T18475   4.739   2.883   8.210 -0.1915 -1.2147 -1.1994
  164SAPE   C3318476   4.097   3.267   6.705  0.2934  0.1741 -0.3286
  164SAPE   H3X18477   4.175   3.285   6.783  0.2081 -1.7759  0.2464
  164SAPE   H3Y18478   4.134   3.174   6.658 -1.5446 -0.7992  0.0865
  164SAPE   C3418479   3.960   3.216   6.764 -0.4080  0.6549 -1.1178
  164SAPE   H4X18480   3.917   3.153   6.683 -0.6227  0.3730 -0.7908
  164SAPE   H4Y18481   3.886   3.297   6.750 -3.0869 -1.1828  1.1415
  164SAPE   C3518482   3.947   3.149   6.900  0.6963  0.4830 -0.1038
  164SAPE   H5X18483   3.993   3.049   6.911 -1.3170 -0.3911  0.9775
  164SAPE   H5Y18484   3.840   3.129   6.921  0.6273  0.0687 -0.8118
  164SAPE   C3618485   4.004   3.232   7.021  0.4076 -0.6270  0.5685
  164SAPE   H6X18486   3.949   3.328   7.030 -0.1591 -0.9937  1.1530
  164SAPE   H6Y18487   4.113   3.247   7.004  0.6287 -1.7933  0.8213
  164SAPE   C3718488   3.985   3.161   7.162  0.5702  0.0937 -0.0174
  164SAPE   H7X18489   4.044   3.068   7.158  0.2569 -0.2207  1.7623
  164SAPE   H7Y18490   3.876   3.139   7.168  0.6626 -0.1258  1.1886
  164SAPE   C3818491   4.049   3.247   7.267  0.5827  0.1246  0.3880
  164SAPE   H8X18492   4.003   3.348   7.263 -0.0021 -0.0956  1.2694
  164SAPE   H8Y18493   4.156   3.249   7.239  0.4774  1.7376 -0.0256
  164SAPE   C3918494   4.030   3.194   7.408  0.3278 -0.1419 -0.0617
  164SAPE   H9X18495   4.087   3.102   7.433 -0.6080 -1.0509 -1.1417
  164SAPE   H9Y18496   3.925   3.158   7.418 -0.6082  1.2910 -3.2601
  164SAPE  C31018497   4.048   3.306   7.514 -1.0403  0.3229  0.5444
  164SAPE  H10X18498   3.967   3.382   7.509 -1.5907 -0.2478  0.5615
  164SAPE  H10Y18499   4.149   3.349   7.497 -1.3815  0.1478 -2.4603
  164SAPE  C31118500   4.052   3.245   7.652  0.4531 -0.6171  0.2234
  164SAPE  H11X18501   4.146   3.187   7.658  0.6695 -0.9324 -3.6363
  164SAPE  H11Y18502   3.963   3.180   7.665  0.1077  0.1651  2.0756
  164SAPE  C31218503   4.044   3.353   7.761 -0.2204  0.5369  0.1698
  164SAPE  H12X18504   3.944   3.401   7.766  0.0940  1.1663  0.6251
  164SAPE  H12Y18505   4.120   3.433   7.743  0.9537 -0.7104 -0.5864
  164SAPE  C31318506   4.070   3.283   7.898  0.0272  0.0224  0.4498
  164SAPE  H13X18507   4.171   3.242   7.920  0.6508  1.5877  0.6044
  164SAPE  H13Y18508   4.008   3.190   7.906 -0.7386  0.5698  1.0481
  164SAPE  C31418509   4.029   3.372   8.012  0.0184  0.1966 -0.0625
  164SAPE  H14X18510   3.926   3.411   8.017  0.4150  1.1296  2.0624
  164SAPE  H14Y18511   4.109   3.449   8.014 -0.9179  1.2495  3.2017
  164SAPE  C31518512   4.040   3.309   8.154 -0.5828  0.5353 -0.1109
  164SAPE  H15X18513   4.047   3.387   8.233  1.3970 -0.5650  0.8899
  164SAPE  H15Y18514   4.139   3.260   8.153 -0.1779  1.2834  1.0242
  164SAPE  C31618515   3.925   3.223   8.209 -0.2223  0.0907 -0.2372
  164SAPE  H16X18516   3.901   3.128   8.156 -4.0798  0.9624 -0.3365
  164SAPE  H16Y18517   3.832   3.284   8.203 -0.1455  0.1144 -1.4168
  164SAPE  C31718518   3.948   3.193   8.355  0.0094  0.7915 -0.2053
  164SAPE  H17X18519   4.040   3.130   8.358 -1.1030 -0.8840  0.2896
  164SAPE  H17Y18520   3.869   3.119   8.381  1.6472 -1.3338 -0.9015
  164SAPE  C31818521   3.949   3.303   8.459  0.0865  0.1610  0.1234
  164SAPE  H18X18522   3.957   3.257   8.560 -0.2136  1.9380  0.9903
  164SAPE  H18Y18523   3.866   3.376   8.454  1.8381  2.1963 -1.4306
  164SAPE  H18Z18524   4.040   3.365   8.443  0.9170 -0.3641  2.3541
  165SAPE     N18525   3.928   5.536   6.381  0.2577  0.0994  0.5413
  165SAPE   HN118526   4.016   5.493   6.414  0.5049 -0.5293 -0.8383
  165SAPE   HN218527   3.879   5.586   6.458  1.2050  1.1946  0.4619
  165SAPE   HN318528   3.863   5.462   6.346 -0.8142  1.4099 -0.3769
  165SAPE   C1218529   3.960   5.628   6.266 -0.8636  0.5329 -0.5895
  165SAPE  H12A18530   4.012   5.562   6.193 -1.1517 -0.4209  0.0454
  165SAPE  H12B18531   4.028   5.705   6.308 -0.0257 -1.6821  2.5048
  165SAPE   C1118532   3.829   5.691   6.213  0.7963  0.2303 -0.5348
  165SAPE  H11A18533   3.761   5.607   6.188 -0.1350  0.7953  0.0275
  165SAPE  H11B18534   3.845   5.752   6.122 -0.9879 -1.1675 -1.8419
  165SAPE     P18535   3.777   5.923   6.327 -0.4730 -0.0837 -0.5292
  165SAPE   O1318536   3.899   5.962   6.263 -0.0683 -0.8501  0.0041
  165SAPE   O1418537   3.657   5.987   6.279  0.2210 -0.9688 -0.0186
  165SAPE   O1218538   3.762   5.769   6.321 -0.8848 -0.1251  0.5329
  165SAPE   O1118539   3.794   5.948   6.484 -0.3570 -1.1515 -0.0490
  165SAPE    C118540   3.922   5.927   6.545  0.0481 -0.4851  0.2512
  165SAPE    HA18541   3.967   5.834   6.503  0.8427 -0.2738  0.6225
  165SAPE    HB18542   3.995   6.009   6.526  0.5835 -1.0413 -0.1388
  165SAPE    C218543   3.917   5.918   6.702  0.2769 -0.1443 -0.1287
  165SAPE    HS18544   4.012   5.872   6.736  0.3529 -0.7162 -1.0546
  165SAPE   O2118545   3.791   5.851   6.728 -0.0946 -0.0851 -0.4683
  165SAPE   C2118546   3.766   5.726   6.672 -0.2243 -0.5542  0.9848
  165SAPE   O2218547   3.849   5.654   6.624 -0.5545  0.8268  0.1977
  165SAPE   C2218548   3.618   5.708   6.665  0.1040  0.1826  0.1509
  165SAPE   H2R18549   3.560   5.763   6.743 -1.6874 -0.7221 -0.4957
  165SAPE   H2S18550   3.580   5.747   6.568  1.3498  0.5727 -0.1880
  165SAPE    C318551   3.911   6.059   6.764 -0.1424 -0.7925  0.4155
  165SAPE    HX18552   3.830   6.113   6.711 -0.6549  0.1348  2.0777
  165SAPE    HY18553   4.001   6.120   6.742 -2.7460  2.5754 -1.7967
  165SAPE   O3118554   3.894   6.046   6.905  0.5855  0.2752 -0.0571
  165SAPE   C3118555   3.763   6.059   6.947  0.3982  0.6736 -0.2089
  165SAPE   O3218556   3.663   6.072   6.880 -0.2267 -0.4821  0.7115
  165SAPE   C3218557   3.764   6.066   7.097 -0.1042 -0.4864 -0.0558
  165SAPE   H2X18558   3.791   6.170   7.126 -4.5896  1.1536 -1.0801
  165SAPE   H2Y18559   3.826   5.987   7.145  0.4814 -0.1885 -0.3102
  165SAPE   C2318560   3.585   5.557   6.679 -0.4065  1.1548  0.0852
  165SAPE   H3R18561   3.638   5.509   6.595 -1.3696  0.4898 -0.1705
  165SAPE   H3S18562   3.477   5.536   6.661 -0.2959  0.5579  0.1034
  165SAPE   C2418563   3.611   5.497   6.823 -0.5237  0.6276 -0.2157
  165SAPE   H4R18564   3.553   5.541   6.907 -4.2786 -3.5124 -0.2720
  165SAPE   H4S18565   3.720   5.498   6.848 -0.3385 -2.1291 -0.5944
  165SAPE   C2518566   3.582   5.354   6.823 -0.0755  0.1515  0.1581
  165SAPE   H5R18567   3.643   5.290   6.757 -0.3063 -0.4787  0.5481
  165SAPE   C2618568   3.476   5.308   6.896  0.5520  0.1382 -0.3182
  165SAPE   H6R18569   3.456   5.200   6.898 -1.2220  0.4151 -0.6988
  165SAPE   C2718570   3.365   5.382   6.971 -1.1034 -0.3404 -0.2587
  165SAPE   H7R18571   3.268   5.349   6.928 -1.8831  0.4094  0.8681
  165SAPE   H7S18572   3.366   5.489   6.939  1.0889 -0.4770 -0.8424
  165SAPE   C2818573   3.379   5.391   7.120 -1.0295 -0.4380  1.2424
  165SAPE   H8R18574   3.457   5.464   7.149 -1.9921  1.2318 -0.1932
  165SAPE   C2918575   3.317   5.327   7.215  0.4859 -0.1091 -0.6301
  165SAPE   H9R18576   3.353   5.354   7.315  1.2887 -1.9924 -0.3613
  165SAPE  C21018577   3.209   5.218   7.208  0.3047 -0.2443  0.3706
  165SAPE  H10R18578   3.179   5.198   7.103  0.6181 -1.3035  0.4710
  165SAPE  H10S18579   3.117   5.257   7.258  0.7951 -0.2225  1.2777
  165SAPE  C21118580   3.240   5.081   7.252  0.0414  0.1713  0.2353
  165SAPE  H11R18581   3.237   4.997   7.182  0.5598  0.7332 -0.4689
  165SAPE  C21218582   3.268   5.052   7.379 -0.0716 -1.1624 -0.4282
  165SAPE  H12R18583   3.288   4.949   7.411  1.4326 -0.5798  0.6374
  165SAPE  C21318584   3.270   5.154   7.497  0.9064  0.0580 -0.2686
  165SAPE  H13R18585   3.170   5.201   7.496  0.4983 -0.7831 -0.0807
  165SAPE  H13S18586   3.356   5.225   7.497 -0.7897  2.2410  1.3392
  165SAPE  C21418587   3.265   5.083   7.626  0.1458  0.5079 -0.5330
  165SAPE  H14R18588   3.215   4.985   7.624 -0.9233  1.0058 -3.3354
  165SAPE  C21518589   3.323   5.125   7.738 -0.4723 -0.4283 -0.7587
  165SAPE  H15R18590   3.340   5.048   7.815  1.2289  1.1122  0.4775
  165SAPE  C21618591   3.398   5.252   7.763  0.4186 -0.3049  0.4222
  165SAPE  H16R18592   3.384   5.319   7.676 -0.5828  0.0367  0.8281
  165SAPE  H16S18593   3.506   5.227   7.776  0.6099  0.1044 -0.3470
  165SAPE  C21718594   3.339   5.332   7.879 -0.1545 -0.3156 -0.0769
  165SAPE  H17R18595   3.244   5.375   7.840 -0.1829 -2.2901 -2.4241
  165SAPE  H17S18596   3.409   5.415   7.900 -1.0019  0.1235  1.1718
  165SAPE  C21818597   3.353   5.266   8.017  0.3214  0.3713  0.7389
  165SAPE  H18R18598   3.451   5.215   8.023  0.2265 -0.1083 -1.0365
  165SAPE  H18S18599   3.280   5.182   8.023 -2.1237  2.3999  1.0844
  165SAPE  C21918600   3.348   5.350   8.143  0.2834 -0.5767  0.1737
  165SAPE  H19R18601   3.248   5.397   8.135 -0.7313 -2.5845  0.4086
  165SAPE  H19S18602   3.429   5.426   8.143  1.5331 -1.8640  0.2032
  165SAPE  C22018603   3.348   5.255   8.266 -0.2992 -0.4687  0.5617
  165SAPE  H20R18604   3.337   5.307   8.364 -1.0343  0.6964 -0.1030
  165SAPE  H20S18605   3.449   5.211   8.265 -1.3353 -3.0577  1.5887
  165SAPE  H20T18606   3.259   5.188   8.262 -1.1085  0.5879  0.3067
  165SAPE   C3318607   3.619   6.069   7.153  0.5530 -0.1295 -0.1944
  165SAPE   H3X18608   3.575   5.967   7.155 -0.5619  0.2928 -1.6540
  165SAPE   H3Y18609   3.560   6.141   7.094 -1.3522  0.7999  2.6404
  165SAPE   C3418610   3.609   6.111   7.301 -0.6806 -0.1875 -0.5306
  165SAPE   H4X18611   3.504   6.131   7.330 -0.1733  0.1755  1.2106
  165SAPE   H4Y18612   3.654   6.213   7.299  0.8451 -0.7446  1.6514
  165SAPE   C3518613   3.692   6.024   7.402  0.0082  0.4873  0.0696
  165SAPE   H5X18614   3.797   6.028   7.369 -0.4336  0.1252 -1.4509
  165SAPE   H5Y18615   3.654   5.919   7.402  0.0933  0.4266 -1.9561
  165SAPE   C3618616   3.693   6.093   7.541 -0.1338 -0.1123  0.9604
  165SAPE   H6X18617   3.590   6.104   7.581 -1.1097 -0.4448 -1.2830
  165SAPE   H6Y18618   3.737   6.194   7.527  0.4392 -0.4628  0.1667
  165SAPE   C3718619   3.774   6.015   7.644 -0.1244 -0.2242 -0.0712
  165SAPE   H7X18620   3.875   5.994   7.603 -0.3886  0.5144 -1.1226
  165SAPE   H7Y18621   3.723   5.918   7.665 -1.3963  0.2171 -1.0029
  165SAPE   C3818622   3.781   6.081   7.780  0.0920  0.3666 -0.1254
  165SAPE   H8X18623   3.679   6.081   7.826  1.2103  1.9752  2.5672
  165SAPE   H8Y18624   3.817   6.185   7.768 -0.1065  0.5942  1.1386
  165SAPE   C3918625   3.868   6.003   7.881 -0.3005 -0.3078  0.2994
  165SAPE   H9X18626   3.973   6.012   7.844  0.6053 -0.9469  2.5612
  165SAPE   H9Y18627   3.834   5.897   7.878  0.8997 -0.7081 -2.2052
  165SAPE  C31018628   3.865   6.068   8.018  0.0266  0.4753 -0.0725
  165SAPE  H10X18629   3.763   6.070   8.061  1.1505  0.2000  2.7963
  165SAPE  H10Y18630   3.897   6.175   8.011 -1.3453  0.8081 -2.4285
  165SAPE  C31118631   3.953   6.000   8.112  0.0291 -0.5972 -0.3135
  165SAPE  H11X18632   4.045   5.976   8.054  2.5545  3.5652  1.4728
  165SAPE  H11Y18633   3.917   5.901   8.147 -0.1228 -0.5417 -0.3140
  165SAPE  C31218634   3.986   6.091   8.233  0.1864  0.6974 -0.0108
  165SAPE  H12X18635   3.897   6.136   8.282 -0.1343 -0.7680  0.8122
  165SAPE  H12Y18636   4.033   6.185   8.197 -1.5990  1.7813  0.3439
  165SAPE  C31318637   4.082   6.021   8.328 -0.3949 -0.1620 -0.0918
  165SAPE  H13X18638   4.177   5.992   8.276 -1.7895  0.2870 -3.0929
  165SAPE  H13Y18639   4.036   5.930   8.372 -0.5934  0.2567  0.5869
  165SAPE  C31418640   4.129   6.103   8.447 -0.0477  0.7368 -0.3047
  165SAPE  H14X18641   4.192   6.187   8.410  0.4855  0.3184 -0.3732
  165SAPE  H14Y18642   4.207   6.038   8.492 -0.0334  1.3037  0.5116
  165SAPE  C31518643   4.025   6.148   8.547  0.4245  0.1267  0.3267
  165SAPE  H15X18644   4.001   6.059   8.610 -1.0267 -0.8800 -1.5389
  165SAPE  H15Y18645   3.938   6.191   8.493  2.8860  1.2118 -3.0705
  165SAPE  C31618646   4.081   6.253   8.636  0.4310  0.4651 -0.5791
  165SAPE  H16X18647   4.105   6.341   8.572 -1.7458  0.5443 -1.3750
  165SAPE  H16Y18648   4.167   6.210   8.691 -0.9121  0.5925  1.7695
  165SAPE  C31718649   3.975   6.295   8.742 -0.3177  0.5689 -0.5098
  165SAPE  H17X18650   3.959   6.207   8.808  2.0532 -0.3374 -1.0267
  165SAPE  H17Y18651   3.876   6.319   8.696  0.7454  1.7327 -2.3212
  165SAPE  C31818652   4.020   6.413   8.822 -0.7642  0.1460  0.9381
  165SAPE  H18X18653   4.069   6.483   8.752 -1.8896 -0.2368 -0.2617
  165SAPE  H18Y18654   4.106   6.389   8.889  1.4368  1.4868 -1.2519
  165SAPE  H18Z18655   3.933   6.469   8.862 -1.0029  3.3774 -3.4180
  166SAPE     N18656   4.672   1.511   5.703 -0.5706  0.1808  0.3008
  166SAPE   HN118657   4.730   1.436   5.747 -0.9266 -0.2997 -0.0420
  166SAPE   HN218658   4.574   1.496   5.734  0.2404 -0.8087  2.6649
  166SAPE   HN318659   4.687   1.498   5.601  0.2226  1.5338  0.2245
  166SAPE   C1218660   4.716   1.646   5.739 -0.2679  0.5963  0.7180
  166SAPE  H12A18661   4.636   1.689   5.803 -0.5632  1.7660 -0.3939
  166SAPE  H12B18662   4.729   1.706   5.646 -1.8231  3.0924  2.0058
  166SAPE   C1118663   4.850   1.651   5.815 -0.0239  0.5026  0.4787
  166SAPE  H11A18664   4.821   1.616   5.916 -4.5141 -2.6995 -1.5960
  166SAPE  H11B18665   4.888   1.755   5.808  1.2253  0.1730  1.8402
  166SAPE     P18666   5.082   1.516   5.801  0.4111  0.4917 -0.0661
  166SAPE   O1318667   5.091   1.371   5.769  0.2115  0.1845 -0.4126
  166SAPE   O1418668   5.178   1.601   5.726 -0.0814 -0.0708 -0.6756
  166SAPE   O1218669   4.944   1.561   5.754  0.3703 -0.2560  1.1022
  166SAPE   O1118670   5.101   1.535   5.955  1.4095  0.2329  0.3684
  166SAPE    C118671   5.181   1.635   6.012 -0.2725  0.4097  0.0594
  166SAPE    HA18672   5.194   1.729   5.954 -1.1296  2.2755  2.7163
  166SAPE    HB18673   5.133   1.664   6.108 -0.3078  0.6442 -0.0288
  166SAPE    C218674   5.319   1.571   6.054  0.5366  0.3367  0.3819
  166SAPE    HS18675   5.381   1.564   5.961 -0.5047  3.1292 -0.6325
  166SAPE   O2118676   5.291   1.441   6.104 -0.1893  0.3311 -0.2585
  166SAPE   C2118677   5.406   1.357   6.116  0.7438 -0.5953  0.6574
  166SAPE   O2218678   5.516   1.392   6.071  0.4003 -0.0180  0.0624
  166SAPE   C2218679   5.376   1.227   6.184  0.6771  0.3446 -0.6611
  166SAPE   H2R18680   5.268   1.201   6.187  1.5152 -3.7698  0.9623
  166SAPE   H2S18681   5.417   1.142   6.127  0.7468 -0.7020  0.8774
  166SAPE    C318682   5.396   1.666   6.151 -0.0532 -0.7125 -0.3729
  166SAPE    HX18683   5.415   1.757   6.090  2.0991 -0.6075  0.3714
  166SAPE    HY18684   5.491   1.633   6.196  0.6926  1.2457 -0.4128
  166SAPE   O3118685   5.298   1.689   6.256 -0.1954 -0.2514  0.8049
  166SAPE   C3118686   5.351   1.762   6.359  0.8678  0.8308 -0.1251
  166SAPE   O3218687   5.460   1.804   6.371  0.4772  0.0291  0.6943
  166SAPE   C3218688   5.236   1.771   6.463  0.0296  0.4830  0.0446
  166SAPE   H2X18689   5.163   1.688   6.455 -0.7870  1.1163  0.7059
  166SAPE   H2Y18690   5.171   1.856   6.434 -2.5495 -0.8300  1.6122
  166SAPE   C2318691   5.442   1.221   6.323  0.1042  0.2299  0.6254
  166SAPE   H3R18692   5.552   1.203   6.323  0.1807  0.4138  2.7231
  166SAPE   H3S18693   5.421   1.119   6.362  1.9427  0.3227  1.9906
  166SAPE   C2418694   5.400   1.323   6.432 -0.2342  0.8579  0.0460
  166SAPE   H4R18695   5.448   1.421   6.408 -0.3668  0.2587 -3.1381
  166SAPE   H4S18696   5.447   1.299   6.530  2.3627  1.2239 -1.0162
  166SAPE   C2518697   5.247   1.329   6.457 -0.3683  0.6130  1.0008
  166SAPE   H5R18698   5.184   1.343   6.367 -0.1676 -1.5172  0.4832
  166SAPE   C2618699   5.183   1.313   6.573 -0.7230  0.7252  0.5893
  166SAPE   H6R18700   5.074   1.306   6.571 -0.8193  2.1987  0.2307
  166SAPE   C2718701   5.249   1.293   6.715 -0.6647 -0.4910 -0.1911
  166SAPE   H7R18702   5.352   1.253   6.701 -0.6177 -0.4003 -0.1085
  166SAPE   H7S18703   5.196   1.216   6.774 -0.2097 -3.1048 -2.9340
  166SAPE   C2818704   5.250   1.421   6.798  0.7742 -0.4047 -0.2962
  166SAPE   H8R18705   5.233   1.511   6.736  2.9013 -0.1224 -0.5594
  166SAPE   C2918706   5.286   1.435   6.928 -0.0707  0.5601  0.4797
  166SAPE   H9R18707   5.281   1.534   6.976 -1.2817  0.2505  1.0130
  166SAPE  C21018708   5.331   1.327   7.020  0.7874  0.0629  0.7050
  166SAPE  H10R18709   5.391   1.381   7.097  1.6057  0.4370 -0.1822
  166SAPE  H10S18710   5.390   1.249   6.969  0.9604  0.5732  0.1041
  166SAPE  C21118711   5.204   1.258   7.081  0.0078 -0.2329 -0.4711
  166SAPE  H11R18712   5.152   1.183   7.020 -0.2336 -0.7755  0.3833
  166SAPE  C21218713   5.154   1.291   7.198  0.0682 -0.6229 -1.0796
  166SAPE  H12R18714   5.070   1.231   7.234 -0.1859 -0.3776 -1.2618
  166SAPE  C21318715   5.204   1.407   7.283 -0.4364  0.0820 -0.6974
  166SAPE  H13R18716   5.116   1.464   7.318  1.0129  2.5380 -0.7938
  166SAPE  H13S18717   5.247   1.485   7.216 -0.6392 -1.1892 -2.3669
  166SAPE  C21418718   5.302   1.375   7.394  0.4484 -0.3478 -1.0674
  166SAPE  H14R18719   5.411   1.378   7.382  0.4244  0.6217 -1.1121
  166SAPE  C21518720   5.272   1.350   7.522 -0.4003  0.1434 -0.3807
  166SAPE  H15R18721   5.340   1.342   7.607 -3.4406  0.1829  2.2251
  166SAPE  C21618722   5.125   1.367   7.554 -0.5123 -0.2098 -0.1766
  166SAPE  H16R18723   5.065   1.301   7.488  0.0025  0.6688 -1.5675
  166SAPE  H16S18724   5.089   1.471   7.539  0.4541 -0.0470 -1.5097
  166SAPE  C21718725   5.098   1.319   7.691  0.7283 -0.0197  0.0277
  166SAPE  H17R18726   5.114   1.209   7.700 -1.1406 -0.4826 -1.4865
  166SAPE  H17S18727   4.989   1.336   7.699  0.6684  0.2784 -1.1863
  166SAPE  C21818728   5.172   1.386   7.806  0.5240 -0.0410  1.4378
  166SAPE  H18R18729   5.154   1.496   7.797  3.4328  0.5301  1.6755
  166SAPE  H18S18730   5.282   1.378   7.793  0.2076 -1.0233 -1.2506
  166SAPE  C21918731   5.146   1.324   7.938 -0.2461 -0.0245 -0.6281
  166SAPE  H19R18732   5.209   1.381   8.009 -2.3952  0.8181  0.7172
  166SAPE  H19S18733   5.179   1.218   7.934  0.6039  0.2423 -0.8086
  166SAPE  C22018734   4.994   1.306   7.980 -0.3827 -0.4190  0.1200
  166SAPE  H20R18735   4.929   1.247   7.912 -1.7975  0.8622  0.2987
  166SAPE  H20S18736   4.952   1.409   7.984  0.2512 -0.1570  0.2959
  166SAPE  H20T18737   4.998   1.253   8.078  1.0125  1.4627  1.1771
  166SAPE   C3318738   5.278   1.795   6.605 -0.2550 -0.2548  0.3373
  166SAPE   H3X18739   5.347   1.883   6.605 -1.8743  1.1147  2.1204
  166SAPE   H3Y18740   5.331   1.705   6.643  2.2889  0.0905 -2.1103
  166SAPE   C3418741   5.157   1.836   6.687 -0.1064 -0.6952 -0.0655
  166SAPE   H4X18742   5.091   1.747   6.702  0.1557 -0.9681 -0.5069
  166SAPE   H4Y18743   5.099   1.910   6.628  0.4342 -0.5394 -0.4091
  166SAPE   C3518744   5.185   1.907   6.825  0.6980  0.3613  0.5209
  166SAPE   H5X18745   5.091   1.958   6.854 -0.7247 -0.0408 -3.0291
  166SAPE   H5Y18746   5.269   1.980   6.817  0.5746  0.5127  0.5994
  166SAPE   C3618747   5.223   1.811   6.942  0.5257  0.1566 -0.4216
  166SAPE   H6X18748   5.318   1.758   6.921 -0.6151 -1.7338 -1.1574
  166SAPE   H6Y18749   5.147   1.731   6.955 -1.7010  2.1074 -0.7327
  166SAPE   C3718750   5.248   1.885   7.078  0.3969 -0.4865  0.1077
  166SAPE   H7X18751   5.206   1.988   7.071 -1.3275 -1.0509  1.3064
  166SAPE   H7Y18752   5.356   1.895   7.103  0.5768 -2.2660  0.1362
  166SAPE   C3818753   5.176   1.820   7.195  1.0175 -0.8188 -0.0821
  166SAPE   H8X18754   5.194   1.710   7.192  0.1248 -0.9489 -1.4683
  166SAPE   H8Y18755   5.067   1.835   7.181  1.2344  0.2088 -0.7530
  166SAPE   C3918756   5.205   1.886   7.329  0.6579  0.3542 -0.0296
  166SAPE   H9X18757   5.163   1.988   7.340 -2.3805 -0.7426 -0.6442
  166SAPE   H9Y18758   5.315   1.897   7.345  0.6128  0.5446  0.1372
  166SAPE  C31018759   5.131   1.800   7.431 -0.9477  0.6704  0.9617
  166SAPE  H10X18760   5.156   1.692   7.418 -1.2835  0.4414  2.1473
  166SAPE  H10Y18761   5.022   1.809   7.410 -0.9239 -0.6734  0.0950
  166SAPE  C31118762   5.152   1.862   7.575  0.8221  0.2600  0.9707
  166SAPE  H11X18763   5.100   1.960   7.578  0.5597  0.0968  1.8384
  166SAPE  H11Y18764   5.259   1.891   7.586  0.6519  1.1948  0.3734
  166SAPE  C31218765   5.095   1.771   7.684 -1.0413 -0.0981  0.2118
  166SAPE  H12X18766   5.148   1.674   7.680 -1.7592 -0.4866 -0.0337
  166SAPE  H12Y18767   4.988   1.751   7.663 -0.7874 -1.9036  0.5271
  166SAPE  C31318768   5.114   1.830   7.826 -0.3509  0.2517  0.2743
  166SAPE  H13X18769   5.050   1.772   7.895  0.8764  0.6740  1.8384
  166SAPE  H13Y18770   5.080   1.936   7.823  0.9379  0.6718 -1.2658
  166SAPE  C31418771   5.257   1.830   7.870 -0.3422 -0.0817 -0.5292
  166SAPE  H14X18772   5.328   1.864   7.792 -2.7876  3.0714 -1.5856
  166SAPE  H14Y18773   5.283   1.725   7.896 -3.4953 -0.5339  1.3609
  166SAPE  C31518774   5.271   1.905   8.006  0.1491 -0.0741 -0.3820
  166SAPE  H15X18775   5.226   2.007   8.002 -1.6303 -0.7351  1.1720
  166SAPE  H15Y18776   5.381   1.912   8.017  0.7331 -3.9137 -2.0036
  166SAPE  C31618777   5.213   1.826   8.130  0.2685  0.5915 -0.4414
  166SAPE  H16X18778   5.257   1.724   8.122  0.9359  0.9805 -2.1819
  166SAPE  H16Y18779   5.105   1.802   8.132  0.2315  0.7645  1.3115
  166SAPE  C31718780   5.242   1.895   8.274 -0.2091  0.4664  0.2000
  166SAPE  H17X18781   5.180   1.987   8.283  0.4286  0.8577  0.7201
  166SAPE  H17Y18782   5.341   1.944   8.262  0.1966 -0.2526  0.5970
  166SAPE  C31818783   5.234   1.811   8.401 -0.4834  0.2599 -0.1147
  166SAPE  H18X18784   5.263   1.854   8.499  0.7039  0.3099 -0.4646
  166SAPE  H18Y18785   5.297   1.721   8.383  0.4018  0.9544 -0.5561
  166SAPE  H18Z18786   5.131   1.770   8.411  0.0736 -1.4741 -1.1525
  167SAPE     N18787   4.146   1.855   5.993 -0.2525 -0.6119 -0.0863
  167SAPE   HN118788   4.198   1.943   5.972 -2.7934  1.4794  1.8096
  167SAPE   HN218789   4.099   1.807   5.914 -3.7247 -0.3279  1.6471
  167SAPE   HN318790   4.076   1.885   6.063 -1.1672 -2.9208  0.0843
  167SAPE   C1218791   4.232   1.760   6.069 -0.6971 -0.1045  0.3812
  167SAPE  H12A18792   4.292   1.821   6.141 -0.2448 -1.6330  1.3523
  167SAPE  H12B18793   4.297   1.711   5.993 -0.4291  2.2126 -0.9806
  167SAPE   C1118794   4.156   1.657   6.144 -0.4331 -0.0061  0.1760
  167SAPE  H11A18795   4.082   1.701   6.215 -0.8457  4.2449 -2.5328
  167SAPE  H11B18796   4.229   1.598   6.203  1.2705 -0.0857 -1.9079
  167SAPE     P18797   4.117   1.439   6.015 -0.3153 -0.0189  0.1367
  167SAPE   O1318798   4.004   1.384   5.942  1.0341 -0.7099  0.4017
  167SAPE   O1418799   4.254   1.423   5.960 -0.3000  0.0273  0.7308
  167SAPE   O1218800   4.080   1.589   6.045 -0.1145 -0.6157  0.1439
  167SAPE   O1118801   4.104   1.392   6.165 -0.0639 -0.0321 -0.3995
  167SAPE    C118802   3.973   1.406   6.217 -0.3229 -1.0586 -0.6248
  167SAPE    HA18803   3.923   1.502   6.193  1.7864 -0.2512 -2.1104
  167SAPE    HB18804   3.893   1.333   6.189 -1.4415  0.7535 -2.4071
  167SAPE    C218805   3.981   1.383   6.370  0.1393  0.8711  0.1479
  167SAPE    HS18806   3.894   1.324   6.406  1.8650 -0.3719  2.5442
  167SAPE   O2118807   3.996   1.509   6.434 -0.4221  0.5466 -0.0656
  167SAPE   C2118808   3.878   1.550   6.496  0.2228 -1.1105 -0.1542
  167SAPE   O2218809   3.775   1.488   6.490 -0.8664  0.1974  0.0966
  167SAPE   C2218810   3.911   1.690   6.565  0.2780  0.0426 -0.0064
  167SAPE   H2R18811   4.019   1.686   6.589  1.0884  0.5694 -3.0918
  167SAPE   H2S18812   3.913   1.773   6.491 -0.0196 -0.4126 -0.5337
  167SAPE    C318813   4.099   1.289   6.408 -0.1298 -0.0457 -0.0431
  167SAPE    HX18814   4.184   1.349   6.367 -0.6954  1.3527  0.7586
  167SAPE    HY18815   4.087   1.194   6.352  0.5781 -0.0753 -0.1602
  167SAPE   O3118816   4.108   1.266   6.552  0.2727  0.1551  0.4326
  167SAPE   C3118817   4.224   1.219   6.592  1.1497  0.4754  0.6271
  167SAPE   O3218818   4.317   1.187   6.516  0.3547  0.1052  0.8473
  167SAPE   C3218819   4.221   1.216   6.749 -0.3691  0.2658  0.2262
  167SAPE   H2X18820   4.173   1.124   6.788 -0.0616 -0.6899 -1.5756
  167SAPE   H2Y18821   4.148   1.297   6.770 -2.6625 -0.7168 -3.1604
  167SAPE   C2318822   3.826   1.724   6.697 -0.3301 -0.1711  0.6570
  167SAPE   H3R18823   3.730   1.767   6.662 -0.6892 -3.9899 -3.8961
  167SAPE   H3S18824   3.881   1.799   6.759 -0.8350  3.0906 -2.5057
  167SAPE   C2418825   3.809   1.605   6.795 -0.4357  0.8374 -0.1328
  167SAPE   H4R18826   3.745   1.529   6.745  3.8618 -1.5166 -2.7316
  167SAPE   H4S18827   3.741   1.637   6.877 -1.5689  0.0719 -0.7453
  167SAPE   C2518828   3.942   1.548   6.843 -0.3613  0.0469 -0.1020
  167SAPE   H5R18829   4.001   1.485   6.775  1.7981  1.3573  0.4233
  167SAPE   C2618830   4.003   1.573   6.958  0.1425 -0.7024 -0.2055
  167SAPE   H6R18831   4.100   1.525   6.976  0.3951 -0.1202  0.0328
  167SAPE   C2718832   3.965   1.677   7.064 -0.2160  0.4877 -0.1103
  167SAPE   H7R18833   3.888   1.751   7.033  0.3618  1.8955  1.6305
  167SAPE   H7S18834   4.055   1.736   7.091 -0.8981  0.8897  1.3720
  167SAPE   C2818835   3.917   1.601   7.184 -0.0095 -0.0139  0.8986
  167SAPE   H8R18836   3.892   1.495   7.174  0.7800 -0.0870 -0.5574
  167SAPE   C2918837   3.891   1.654   7.301  0.2063  1.0590 -0.0272
  167SAPE   H9R18838   3.860   1.583   7.379  1.5481 -0.0375 -0.4544
  167SAPE  C21018839   3.923   1.788   7.349  0.3051 -0.6769 -0.6732
  167SAPE  H10R18840   3.966   1.849   7.267  1.9413 -0.1984  0.4969
  167SAPE  H10S18841   3.998   1.784   7.431 -2.2800  0.9556  2.0024
  167SAPE  C21118842   3.804   1.864   7.408  0.1209  0.4409 -0.0740
  167SAPE  H11R18843   3.756   1.924   7.329  1.7578  2.2962  0.2593
  167SAPE  C21218844   3.772   1.873   7.538 -0.0650  0.6335 -0.8174
  167SAPE  H12R18845   3.693   1.946   7.563 -0.6769 -0.4608  0.5506
  167SAPE  C21318846   3.837   1.804   7.651 -0.4489 -0.0409 -0.1242
  167SAPE  H13R18847   3.895   1.711   7.630 -1.1813 -1.7070  4.1533
  167SAPE  H13S18848   3.767   1.761   7.726  0.4827 -0.5504  0.4850
  167SAPE  C21418849   3.932   1.903   7.720 -0.6229  0.1476  0.1460
  167SAPE  H14R18850   4.014   1.932   7.652  1.7315  1.0091  3.1078
  167SAPE  C21518851   3.922   1.957   7.839  0.7279 -0.2026 -0.6674
  167SAPE  H15R18852   3.997   2.032   7.871 -0.8572  1.4561 -0.6992
  167SAPE  C21618853   3.806   1.939   7.937 -0.2200  0.1773  0.1235
  167SAPE  H16R18854   3.732   1.869   7.893 -0.5650 -0.4742  1.6683
  167SAPE  H16S18855   3.764   2.040   7.958 -2.5651 -0.8268  0.4658
  167SAPE  C21718856   3.860   1.878   8.069  0.6314 -0.2988 -0.0556
  167SAPE  H17R18857   3.925   1.789   8.056  0.4615 -0.8932  2.6837
  167SAPE  H17S18858   3.772   1.857   8.134  0.0550 -1.7399 -1.2424
  167SAPE  C21818859   3.957   1.976   8.145  0.4521  0.7251  0.3881
  167SAPE  H18R18860   3.898   2.070   8.151  1.6165  1.5381 -0.5073
  167SAPE  H18S18861   4.057   1.994   8.101  0.1061  1.0902 -0.2524
  167SAPE  C21918862   3.973   1.939   8.300 -0.3792 -0.1575  0.6664
  167SAPE  H19R18863   4.000   1.831   8.303  1.6979  0.3284  3.6109
  167SAPE  H19S18864   3.874   1.952   8.349  0.0839 -4.2390  3.1598
  167SAPE  C22018865   4.080   2.020   8.372  0.0320 -0.2477  0.1159
  167SAPE  H20R18866   4.179   1.984   8.337  0.1972 -0.9409  1.2647
  167SAPE  H20S18867   4.076   1.999   8.481  3.1852 -0.9187  0.2051
  167SAPE  H20T18868   4.067   2.130   8.356  1.2717  0.1019  1.3312
  167SAPE   C3318869   4.365   1.239   6.809  0.3601 -0.1045 -0.3338
  167SAPE   H3X18870   4.402   1.339   6.778  1.6294 -0.3579  0.3086
  167SAPE   H3Y18871   4.439   1.158   6.788  0.1400 -0.1257 -1.0467
  167SAPE   C3418872   4.345   1.257   6.968  0.0235  0.3626  0.3187
  167SAPE   H4X18873   4.298   1.163   7.004 -2.8654  1.9067  0.9068
  167SAPE   H4Y18874   4.267   1.333   6.989 -0.3367  0.3620 -0.8989
  167SAPE   C3518875   4.471   1.279   7.047  0.3709 -0.3322  0.6992
  167SAPE   H5X18876   4.518   1.369   7.003  0.8057 -0.4889  0.8332
  167SAPE   H5Y18877   4.538   1.192   7.030  0.2820 -0.0767 -1.1003
  167SAPE   C3618878   4.448   1.289   7.199  1.1062  1.1231 -0.4008
  167SAPE   H6X18879   4.550   1.282   7.243  1.0741 -0.8813 -0.5425
  167SAPE   H6Y18880   4.391   1.199   7.231  1.3710  1.3864  0.8749
  167SAPE   C3718881   4.383   1.421   7.239 -0.1275  0.8204  0.1092
  167SAPE   H7X18882   4.294   1.438   7.175 -1.2726 -3.1506  0.3750
  167SAPE   H7Y18883   4.448   1.507   7.213 -0.8973  0.4151 -3.6707
  167SAPE   C3818884   4.338   1.425   7.386 -0.4480  0.1547 -0.2253
  167SAPE   H8X18885   4.419   1.405   7.459 -0.5136 -0.2168 -0.2508
  167SAPE   H8Y18886   4.261   1.347   7.406 -0.4999  0.5092  1.0889
  167SAPE   C3918887   4.255   1.548   7.425 -0.2579 -0.0153  0.4016
  167SAPE   H9X18888   4.184   1.577   7.344 -0.2606 -1.4517 -0.1408
  167SAPE   H9Y18889   4.324   1.634   7.438  0.1473 -0.5244  1.7265
  167SAPE  C31018890   4.160   1.522   7.547  0.2213 -0.3443 -0.1247
  167SAPE  H10X18891   4.093   1.436   7.528  0.3543 -0.1254 -1.7517
  167SAPE  H10Y18892   4.090   1.607   7.564 -0.4270 -0.3255 -2.5757
  167SAPE  C31118893   4.239   1.495   7.678 -0.6287  0.0829 -0.3216
  167SAPE  H11X18894   4.325   1.565   7.685  0.8612 -1.4597 -2.2292
  167SAPE  H11Y18895   4.278   1.391   7.677 -3.8537 -1.2720  0.8402
  167SAPE  C31218896   4.148   1.504   7.803 -0.3077 -0.1485  0.6684
  167SAPE  H12X18897   4.070   1.425   7.797  1.7130 -2.3553  1.8897
  167SAPE  H12Y18898   4.103   1.605   7.812 -1.4284 -0.5775  0.0611
  167SAPE  C31318899   4.219   1.461   7.931 -0.1393 -0.3528  0.0041
  167SAPE  H13X18900   4.289   1.377   7.908 -1.7718 -1.5076 -0.9775
  167SAPE  H13Y18901   4.140   1.403   7.983 -1.5677  3.2927  2.2842
  167SAPE  C31418902   4.272   1.580   8.015  0.0348 -0.2598  0.2399
  167SAPE  H14X18903   4.184   1.644   8.037  0.1148 -0.4795  1.2753
  167SAPE  H14Y18904   4.353   1.637   7.966  0.4903 -2.1343 -1.3110
  167SAPE  C31518905   4.311   1.538   8.150 -0.1571  0.6711 -0.4843
  167SAPE  H15X18906   4.400   1.472   8.158 -0.2178  0.4650 -1.3830
  167SAPE  H15Y18907   4.220   1.487   8.190 -0.2676  0.9721 -0.3479
  167SAPE  C31618908   4.335   1.661   8.232 -0.1909 -0.5649  0.0857
  167SAPE  H16X18909   4.258   1.739   8.213 -0.0821 -0.3036  0.6782
  167SAPE  H16Y18910   4.432   1.713   8.211  0.0737 -1.2477 -0.3992
  167SAPE  C31718911   4.336   1.631   8.387  0.2195  0.6432 -0.5208
  167SAPE  H17X18912   4.402   1.545   8.413 -0.1816  1.0198  2.0169
  167SAPE  H17Y18913   4.229   1.613   8.412 -0.7552  2.1327 -3.2815
  167SAPE  C31818914   4.393   1.737   8.481  0.6647  0.5290  0.5399
  167SAPE  H18X18915   4.393   1.711   8.590 -2.4023 -1.2156  0.2494
  167SAPE  H18Y18916   4.335   1.831   8.473 -2.4905 -1.2303  0.8588
  167SAPE  H18Z18917   4.494   1.760   8.442  0.0794  2.1379 -0.1169
  168SAPE     N18918   6.468   3.688   6.110  0.4281  0.1682 -0.1840
  168SAPE   HN118919   6.468   3.791   6.125 -0.9121 -0.1262  2.3035
  168SAPE   HN218920   6.513   3.669   6.018 -0.1167 -0.5779 -0.3054
  168SAPE   HN318921   6.371   3.657   6.089  0.5617  0.5261 -1.4134
  168SAPE   C1218922   6.551   3.614   6.210 -0.2530 -0.2444  0.0636
  168SAPE  H12A18923   6.525   3.506   6.213  1.3394 -0.6411  1.2044
  168SAPE  H12B18924   6.530   3.657   6.310 -1.0856 -1.5212  0.4676
  168SAPE   C1118925   6.704   3.635   6.172  0.0588  0.3414  0.0755
  168SAPE  H11A18926   6.712   3.589   6.071 -0.6922  1.1649 -0.3797
  168SAPE  H11B18927   6.777   3.583   6.238 -0.7940 -1.5049 -0.3641
  168SAPE     P18928   6.783   3.869   6.243 -0.0767  0.2817 -0.1114
  168SAPE   O1318929   6.919   3.851   6.299  0.6072  0.7530  0.0585
  168SAPE   O1418930   6.756   3.994   6.183  0.8262  0.1144 -0.1357
  168SAPE   O1218931   6.743   3.772   6.143  0.3193  0.4464  0.2697
  168SAPE   O1118932   6.690   3.834   6.358  0.7493 -0.2282  0.1396
  168SAPE    C118933   6.690   3.891   6.488 -0.2980 -1.1041 -0.0494
  168SAPE    HA18934   6.788   3.938   6.513 -0.3422 -0.2109 -1.5005
  168SAPE    HB18935   6.618   3.975   6.479 -1.0389 -1.9517 -3.4359
  168SAPE    C218936   6.633   3.799   6.595  0.7274  0.1841  0.2157
  168SAPE    HS18937   6.538   3.763   6.549  0.4651  1.9567 -0.7352
  168SAPE   O2118938   6.614   3.884   6.714  0.0091 -0.3572  0.2626
  168SAPE   C2118939   6.501   3.857   6.785 -0.8366 -0.1216  0.2236
  168SAPE   O2218940   6.434   3.760   6.762 -0.5971 -0.2407  0.0642
  168SAPE   C2218941   6.482   3.963   6.890 -0.1418  0.3250 -0.1970
  168SAPE   H2R18942   6.577   3.974   6.945  0.1887 -0.2396 -0.6444
  168SAPE   H2S18943   6.474   4.066   6.850  2.5785  0.5679 -0.2910
  168SAPE    C318944   6.729   3.683   6.616  1.0760  0.1200 -0.5446
  168SAPE    HX18945   6.829   3.731   6.626  1.6047 -0.1369 -3.5181
  168SAPE    HY18946   6.733   3.622   6.522  0.4454 -0.2948 -0.3125
  168SAPE   O3118947   6.702   3.599   6.729  0.1069  0.7408  0.1881
  168SAPE   C3118948   6.746   3.475   6.723 -0.1678  0.0655  0.2730
  168SAPE   O3218949   6.815   3.435   6.632  0.1512  0.0930  0.1979
  168SAPE   C3218950   6.717   3.401   6.856 -0.1348 -0.1344 -0.2403
  168SAPE   H2X18951   6.607   3.389   6.859  0.0405 -2.4883  3.4188
  168SAPE   H2Y18952   6.731   3.469   6.943  1.4740 -0.4550 -0.2213
  168SAPE   C2318953   6.381   3.915   6.995  0.4184 -1.1450  0.6852
  168SAPE   H3R18954   6.406   3.815   7.036  1.5966 -0.6297  1.2799
  168SAPE   H3S18955   6.285   3.908   6.940  1.0713 -3.0710 -0.2862
  168SAPE   C2418956   6.372   4.009   7.117  0.0919  0.1741 -0.2217
  168SAPE   H4R18957   6.347   4.116   7.105 -3.1071 -0.2909  1.1065
  168SAPE   H4S18958   6.475   4.000   7.158 -0.2700 -1.7222  0.3895
  168SAPE   C2518959   6.268   3.956   7.212  0.3212 -0.1533 -1.1984
  168SAPE   H5R18960   6.166   3.979   7.178 -0.2054 -1.9659 -0.9500
  168SAPE   C2618961   6.283   3.914   7.339 -0.0495  0.5734  0.0394
  168SAPE   H6R18962   6.194   3.877   7.391 -0.4491  1.5233  0.0398
  168SAPE   C2718963   6.422   3.908   7.408  0.5165  0.2012  0.1284
  168SAPE   H7R18964   6.505   3.883   7.339  0.4300 -1.2223  0.5050
  168SAPE   H7S18965   6.419   3.823   7.480  0.6435 -0.3842 -0.5416
  168SAPE   C2818966   6.436   4.045   7.471  0.7106 -0.4316 -0.5035
  168SAPE   H8R18967   6.460   4.124   7.397 -0.6860  0.4827 -0.0274
  168SAPE   C2918968   6.427   4.078   7.604  0.3540  0.2981  0.0637
  168SAPE   H9R18969   6.451   4.181   7.634 -1.1118  0.4070  1.0048
  168SAPE  C21018970   6.397   3.987   7.725  0.1344 -0.2131 -0.8398
  168SAPE  H10R18971   6.317   3.915   7.697  0.3507 -1.6673  2.0126
  168SAPE  H10S18972   6.347   4.041   7.808 -0.6919  0.5881 -1.8191
  168SAPE  C21118973   6.520   3.906   7.776  0.4749  0.4738 -0.1259
  168SAPE  H11R18974   6.602   3.897   7.703  0.0889 -0.8060 -0.4161
  168SAPE  C21218975   6.535   3.848   7.896  0.1951  0.1381 -0.4474
  168SAPE  H12R18976   6.631   3.799   7.914  1.3613  1.7928 -1.8169
  168SAPE  C21318977   6.434   3.854   8.013  0.7038  0.3817  0.5258
  168SAPE  H13R18978   6.339   3.802   7.989 -1.0372  3.4174  0.3815
  168SAPE  H13S18979   6.388   3.954   8.026 -2.4088 -1.0383  1.3044
  168SAPE  C21418980   6.481   3.795   8.139 -0.6313  0.1001 -1.3956
  168SAPE  H14R18981   6.563   3.723   8.131 -1.0378 -0.5174 -0.3060
  168SAPE  C21518982   6.431   3.826   8.261 -0.4511 -0.5556 -0.3000
  168SAPE  H15R18983   6.476   3.790   8.355  0.2184 -0.9777 -0.7714
  168SAPE  C21618984   6.319   3.922   8.283 -0.3292 -0.3629  0.0437
  168SAPE  H16R18985   6.316   4.011   8.216  1.9300  1.1453  1.8150
  168SAPE  H16S18986   6.318   3.973   8.382  0.9819  1.4313 -0.8001
  168SAPE  C21718987   6.181   3.847   8.270  0.0569 -0.0932 -0.8396
  168SAPE  H17R18988   6.194   3.759   8.337  1.0386 -0.9125 -2.0698
  168SAPE  H17S18989   6.170   3.817   8.164  1.8858  0.6959 -1.2812
  168SAPE  C21818990   6.062   3.936   8.315 -0.2073  0.1957 -0.0524
  168SAPE  H18R18991   6.034   4.010   8.238  0.2729 -0.6538 -1.0565
  168SAPE  H18S18992   6.085   3.990   8.410 -1.4538  2.0785 -0.7611
  168SAPE  C21918993   5.926   3.859   8.327 -0.3122  0.1155  0.1618
  168SAPE  H19R18994   5.894   3.838   8.222  0.2402 -0.5718  0.1173
  168SAPE  H19S18995   5.850   3.928   8.370 -2.1872 -0.6020 -1.7998
  168SAPE  C22018996   5.923   3.727   8.417 -0.0926 -0.3808  0.7801
  168SAPE  H20R18997   5.819   3.688   8.408  0.6188 -2.4608  1.0927
  168SAPE  H20S18998   5.937   3.747   8.525 -2.4869  2.2085  0.7290
  168SAPE  H20T18999   5.983   3.640   8.382  0.4000  0.4372 -0.4886
  168SAPE   C3319000   6.795   3.274   6.882 -0.2583  0.3613  0.5938
  168SAPE   H3X19001   6.779   3.208   6.794  0.4141  0.5064  0.3570
  168SAPE   H3Y19002   6.761   3.225   6.976 -0.1250  0.6119  0.7766
  168SAPE   C3419003   6.948   3.295   6.892  1.1698 -0.7407 -0.5042
  168SAPE   H4X19004   6.985   3.337   6.796  0.1219 -0.1578 -0.6570
  168SAPE   H4Y19005   7.005   3.200   6.906 -0.3010 -1.4383  1.0435
  168SAPE   C3519006   6.980   3.390   7.011  0.6346  0.2476  0.2751
  168SAPE   H5X19007   6.922   3.483   6.997 -1.2921 -0.9784 -0.3186
  168SAPE   H5Y19008   7.087   3.417   7.021  0.7380 -0.3202  0.7691
  168SAPE   C3619009   6.958   3.328   7.147 -0.1478 -0.5075 -0.0221
  168SAPE   H6X19010   7.017   3.235   7.162  0.5430  0.1222  1.3703
  168SAPE   H6Y19011   6.850   3.303   7.157 -0.3649  1.2157  5.8446
  168SAPE   C3719012   6.981   3.425   7.264 -0.5415 -0.4129  0.4172
  168SAPE   H7X19013   6.918   3.514   7.243  2.4621  1.6200 -0.7381
  168SAPE   H7Y19014   7.084   3.465   7.259 -1.9428  3.5231 -0.9839
  168SAPE   C3819015   6.957   3.374   7.405 -0.0104  0.0570 -0.1210
  168SAPE   H8X19016   7.026   3.297   7.444  0.9047  0.9050 -0.0305
  168SAPE   H8Y19017   6.863   3.316   7.391  0.1896  0.2734 -2.9775
  168SAPE   C3919018   6.957   3.483   7.512 -0.0994 -0.5331 -0.2062
  168SAPE   H9X19019   6.884   3.558   7.475  0.6120 -1.3239 -3.5495
  168SAPE   H9Y19020   7.059   3.528   7.504 -0.5888  0.4336 -1.2139
  168SAPE  C31019021   6.942   3.436   7.657 -0.5380  0.5774  0.2025
  168SAPE  H10X19022   7.018   3.358   7.680 -0.1924  0.3435 -1.5587
  168SAPE  H10Y19023   6.838   3.399   7.660 -0.3779  0.0805 -0.1984
  168SAPE  C31119024   6.969   3.552   7.754 -0.0287  0.0650  0.4068
  168SAPE  H11X19025   6.903   3.640   7.737 -0.4109  0.2604  2.6497
  168SAPE  H11Y19026   7.076   3.582   7.745 -0.4142  1.2868 -0.3927
  168SAPE  C31219027   6.940   3.512   7.903 -0.2895  0.3192 -0.6255
  168SAPE  H12X19028   7.003   3.426   7.932 -2.2090 -1.2158 -0.8077
  168SAPE  H12Y19029   6.837   3.472   7.908  0.1562 -0.8521 -0.5812
  168SAPE  C31319030   6.947   3.621   8.007 -0.6938 -0.6394 -0.1899
  168SAPE  H13X19031   6.885   3.707   7.975 -0.2214  0.4781  1.7452
  168SAPE  H13Y19032   7.056   3.645   8.006 -0.8020 -0.0302 -2.4336
  168SAPE  C31419033   6.889   3.580   8.146  0.0585  0.4423 -0.2899
  168SAPE  H14X19034   6.903   3.471   8.161 -1.8014  0.2734  0.4837
  168SAPE  H14Y19035   6.781   3.607   8.145 -0.5032 -1.6031  0.3720
  168SAPE  C31519036   6.949   3.671   8.254 -0.2852  0.2075 -0.7811
  168SAPE  H15X19037   6.941   3.771   8.207  0.6199  1.6715  2.0236
  168SAPE  H15Y19038   7.054   3.648   8.280 -1.2436 -2.4819  1.1362
  168SAPE  C31619039   6.875   3.665   8.387  0.3282  0.3709  0.0933
  168SAPE  H16X19040   6.775   3.712   8.371  0.3906  1.5423  2.5658
  168SAPE  H16Y19041   6.927   3.726   8.464  1.2232  0.7899 -0.8248
  168SAPE  C31719042   6.846   3.520   8.435  0.7446  0.3290 -0.2314
  168SAPE  H17X19043   6.945   3.470   8.446 -0.5958 -2.8491 -1.4436
  168SAPE  H17Y19044   6.794   3.460   8.357 -0.8480  2.0313 -0.5275
  168SAPE  C31819045   6.767   3.500   8.568 -0.2012  0.5714  0.3869
  168SAPE  H18X19046   6.770   3.392   8.596  0.3592 -0.1091 -2.0168
  168SAPE  H18Y19047   6.664   3.534   8.545 -1.1696 -1.2090  1.8293
  168SAPE  H18Z19048   6.808   3.564   8.649 -1.8404  2.0707  0.0773
  169SAPE     N19049   4.768   5.598   6.168 -0.8959 -0.4943 -0.2423
  169SAPE   HN119050   4.764   5.503   6.211  1.7449 -0.7600 -0.4092
  169SAPE   HN219051   4.699   5.606   6.091 -1.1623 -0.4069  0.0052
  169SAPE   HN319052   4.862   5.623   6.130 -0.8534 -0.4315 -0.0973
  169SAPE   C1219053   4.740   5.682   6.289 -0.5400 -0.1067 -0.1277
  169SAPE  H12A19054   4.755   5.788   6.261 -0.1472  0.0911  0.7794
  169SAPE  H12B19055   4.820   5.664   6.364 -2.9866 -3.8802  1.9329
  169SAPE   C1119056   4.600   5.652   6.342  0.0319 -0.0563  0.1744
  169SAPE  H11A19057   4.521   5.651   6.264 -1.0655  1.7276  1.1986
  169SAPE  H11B19058   4.570   5.736   6.408 -0.2977  0.4252 -0.5733
  169SAPE     P19059   4.576   5.386   6.364 -0.1088 -0.1525  0.2515
  169SAPE   O1319060   4.452   5.393   6.281 -0.3341 -0.8573  0.2685
  169SAPE   O1419061   4.702   5.332   6.302 -0.1711 -0.6428  0.4776
  169SAPE   O1219062   4.611   5.534   6.417  0.3905  0.2073 -0.1869
  169SAPE   O1119063   4.542   5.309   6.489  0.5896 -0.2541 -0.3626
  169SAPE    C119064   4.617   5.319   6.610 -0.5240  0.2080  0.1878
  169SAPE    HA19065   4.695   5.240   6.608 -0.8826 -0.2387 -3.5510
  169SAPE    HB19066   4.668   5.417   6.619 -2.7027  1.5042 -0.5607
  169SAPE    C219067   4.523   5.309   6.733 -0.5902  0.4032  0.3977
  169SAPE    HS19068   4.576   5.343   6.825  0.8645  1.2252 -0.7002
  169SAPE   O2119069   4.472   5.174   6.740  0.2050  0.6386 -0.2163
  169SAPE   C2119070   4.551   5.100   6.814  0.9724  0.8802  0.5169
  169SAPE   O2219071   4.642   5.132   6.883 -0.7913 -0.1009 -0.6191
  169SAPE   C2219072   4.509   4.946   6.797  0.7911 -0.2633 -0.0376
  169SAPE   H2R19073   4.577   4.902   6.720  0.6647  1.5551 -1.2566
  169SAPE   H2S19074   4.530   4.897   6.894 -3.7648 -0.4266  1.0738
  169SAPE    C319075   4.413   5.421   6.718  0.3278  0.3157 -0.2298
  169SAPE    HX19076   4.346   5.391   6.634  0.9433 -0.9324 -0.2987
  169SAPE    HY19077   4.462   5.517   6.690  0.3304  0.3370 -0.1512
  169SAPE   O3119078   4.341   5.431   6.846  0.0593  0.5739 -0.1306
  169SAPE   C3119079   4.221   5.485   6.833  0.2946  0.1288  0.4700
  169SAPE   O3219080   4.164   5.523   6.731 -0.1687  0.3295 -0.8693
  169SAPE   C3219081   4.168   5.498   6.976  0.0989  0.0426 -0.3463
  169SAPE   H2X19082   4.233   5.577   7.017 -1.2492  0.4678  1.0609
  169SAPE   H2Y19083   4.187   5.407   7.037  0.7000 -0.0704 -0.6863
  169SAPE   C2319084   4.358   4.931   6.767  0.0970  0.7381  0.1661
  169SAPE   H3R19085   4.333   4.825   6.746 -0.3720  0.7441  0.6559
  169SAPE   H3S19086   4.324   4.989   6.679 -0.2270 -0.1170 -0.2829
  169SAPE   C2419087   4.270   4.986   6.887 -0.7719  0.3178 -0.2259
  169SAPE   H4R19088   4.165   4.974   6.853 -0.2852  1.9199 -2.5024
  169SAPE   H4S19089   4.285   5.096   6.880  1.1322  0.0269 -1.6136
  169SAPE   C2519090   4.321   4.923   7.016 -0.2179 -0.4000 -0.1118
  169SAPE   H5R19091   4.321   4.813   7.007 -2.4024 -0.3278 -2.0896
  169SAPE   C2619092   4.373   4.969   7.128 -0.6553 -0.0731 -0.2464
  169SAPE   H6R19093   4.388   4.899   7.211 -1.3699  0.9295  0.7585
  169SAPE   C2719094   4.391   5.113   7.181 -0.3984  0.2181 -0.3941
  169SAPE   H7R19095   4.442   5.176   7.105 -0.1005  0.0437 -0.3359
  169SAPE   H7S19096   4.455   5.104   7.271 -1.1002  0.6515  0.1658
  169SAPE   C2819097   4.259   5.176   7.221 -0.1611  1.0152 -0.0373
  169SAPE   H8R19098   4.173   5.154   7.157 -0.1712  0.4640  0.1602
  169SAPE   C2919099   4.231   5.257   7.321 -0.5838  0.0997 -1.4097
  169SAPE   H9R19100   4.126   5.292   7.324 -0.2246  1.1603  0.4745
  169SAPE  C21019101   4.341   5.314   7.408  0.0866  0.6311  0.0817
  169SAPE  H10R19102   4.325   5.422   7.432 -0.4842  0.6495 -0.3702
  169SAPE  H10S19103   4.439   5.296   7.358  0.4199 -0.6288  1.1329
  169SAPE  C21119104   4.351   5.234   7.540  0.0571 -0.3303  0.0440
  169SAPE  H11R19105   4.339   5.125   7.527 -1.8560 -0.4365  2.1052
  169SAPE  C21219106   4.362   5.284   7.667 -0.7271 -0.6763  0.2895
  169SAPE  H12R19107   4.372   5.211   7.749 -0.3417  0.9520  1.7528
  169SAPE  C21319108   4.377   5.431   7.714 -0.4260  0.0285 -0.0912
  169SAPE  H13R19109   4.421   5.492   7.632  2.0377  0.0810  1.1906
  169SAPE  H13S19110   4.437   5.446   7.806  1.6829 -0.1330 -1.3712
  169SAPE  C21419111   4.236   5.484   7.732  0.0407 -0.1614  0.0162
  169SAPE  H14R19112   4.186   5.519   7.641  1.7548  1.1154 -0.4776
  169SAPE  C21519113   4.168   5.487   7.846  0.9261  0.2435 -0.0062
  169SAPE  H15R19114   4.076   5.546   7.837  1.7643  1.6703  0.4184
  169SAPE  C21619115   4.198   5.449   7.986 -0.2384  0.4643 -0.7201
  169SAPE  H16R19116   4.301   5.410   7.997 -0.2181  0.8809  0.7296
  169SAPE  H16S19117   4.142   5.357   8.011  0.7491 -0.2109 -0.9465
  169SAPE  C21719118   4.177   5.566   8.085  0.5923  0.4201 -0.5555
  169SAPE  H17R19119   4.072   5.603   8.081 -0.7081 -2.9230 -0.6046
  169SAPE  H17S19120   4.244   5.649   8.054  2.3051 -0.7792 -0.1881
  169SAPE  C21819121   4.207   5.543   8.233 -0.3290  0.7403  0.8087
  169SAPE  H18R19122   4.317   5.529   8.229 -0.4261 -0.7083 -4.4083
  169SAPE  H18S19123   4.162   5.448   8.272  2.4307 -0.4998  1.1714
  169SAPE  C21919124   4.183   5.658   8.322  0.4732  0.0748  0.7298
  169SAPE  H19R19125   4.075   5.675   8.301  0.4289  1.0270  1.6806
  169SAPE  H19S19126   4.239   5.750   8.294  1.6750 -1.0401 -0.6610
  169SAPE  C22019127   4.201   5.617   8.468 -0.0858 -0.6213 -0.1669
  169SAPE  H20R19128   4.136   5.528   8.485 -0.1110 -0.3675  1.2220
  169SAPE  H20S19129   4.178   5.698   8.540  0.5518 -0.4040 -0.1968
  169SAPE  H20T19130   4.302   5.573   8.483 -0.2201 -1.1513 -0.7651
  169SAPE   C3319131   4.018   5.536   6.978  0.3290 -0.2316 -0.3993
  169SAPE   H3X19132   3.954   5.448   6.956  1.6203 -1.2332 -0.2407
  169SAPE   H3Y19133   4.004   5.619   6.905  3.2653 -0.6172 -1.5371
  169SAPE   C3419134   3.980   5.572   7.123 -0.0122  0.4392 -0.3096
  169SAPE   H4X19135   4.048   5.650   7.165  1.4784 -0.6127 -0.6851
  169SAPE   H4Y19136   3.996   5.475   7.175 -2.7839 -1.4816 -2.7193
  169SAPE   C3519137   3.831   5.600   7.126  0.0247 -0.2357 -0.3958
  169SAPE   H5X19138   3.780   5.529   7.057 -0.6860 -1.1376  1.0044
  169SAPE   H5Y19139   3.812   5.695   7.071  1.7410 -1.0386 -2.5156
  169SAPE   C3619140   3.764   5.581   7.264 -0.0730  0.0311  0.3013
  169SAPE   H6X19141   3.742   5.473   7.277 -1.4093  0.3930  1.2727
  169SAPE   H6Y19142   3.662   5.627   7.262  0.5944  1.5405 -0.4405
  169SAPE   C3719143   3.833   5.607   7.391 -0.5791  0.6464 -0.2970
  169SAPE   H7X19144   3.890   5.701   7.374 -0.2781  0.0873 -2.6220
  169SAPE   H7Y19145   3.899   5.520   7.413 -1.6743  0.0573  0.7510
  169SAPE   C3819146   3.730   5.613   7.509 -0.5650  0.0247 -0.3738
  169SAPE   H8X19147   3.646   5.541   7.508 -1.6784  1.2712 -0.7161
  169SAPE   H8Y19148   3.681   5.713   7.500 -0.2501  0.2157  0.0333
  169SAPE   C3919149   3.808   5.595   7.644 -0.2490  0.5090  0.2019
  169SAPE   H9X19150   3.892   5.667   7.636 -0.2121  0.5376  0.7803
  169SAPE   H9Y19151   3.843   5.490   7.646 -1.5082  0.0782  1.7334
  169SAPE  C31019152   3.722   5.627   7.763 -0.5838 -0.0143 -0.2222
  169SAPE  H10X19153   3.624   5.576   7.760 -0.8228  0.4485 -0.4689
  169SAPE  H10Y19154   3.699   5.736   7.762 -1.1937 -0.1406 -0.1305
  169SAPE  C31119155   3.790   5.593   7.894  0.3952 -0.1397 -0.2874
  169SAPE  H11X19156   3.881   5.658   7.895  0.4417 -0.1497  2.2351
  169SAPE  H11Y19157   3.813   5.485   7.904  0.2046 -0.1873 -0.3548
  169SAPE  C31219158   3.702   5.631   8.017 -0.4286 -0.4157  0.0813
  169SAPE  H12X19159   3.604   5.580   8.017 -0.2212 -0.8563 -1.4008
  169SAPE  H12Y19160   3.686   5.741   8.010 -0.1817 -0.0368  3.4899
  169SAPE  C31319161   3.778   5.622   8.153  0.1653 -0.4410 -0.2130
  169SAPE  H13X19162   3.879   5.662   8.130  0.1962 -1.1845 -1.4124
  169SAPE  H13Y19163   3.808   5.519   8.180  2.8656  0.3080  0.0009
  169SAPE  C31419164   3.718   5.706   8.264  0.0176 -0.3182 -0.2878
  169SAPE  H14X19165   3.609   5.695   8.277  0.2694 -0.7969  1.9055
  169SAPE  H14Y19166   3.732   5.810   8.228  1.3464 -0.5677 -0.5533
  169SAPE  C31519167   3.789   5.682   8.399 -0.3098  0.1800  0.2316
  169SAPE  H15X19168   3.898   5.669   8.384 -0.2566 -0.5883  1.1598
  169SAPE  H15Y19169   3.747   5.589   8.443 -1.1277  0.6161  0.3974
  169SAPE  C31619170   3.772   5.794   8.502  0.5320 -0.8554  0.1442
  169SAPE  H16X19171   3.665   5.809   8.527 -0.1112 -1.0460 -2.2998
  169SAPE  H16Y19172   3.793   5.894   8.458 -1.1999 -0.9876 -1.0690
  169SAPE  C31719173   3.862   5.783   8.628 -1.0211 -0.5455 -0.5078
  169SAPE  H17X19174   3.808   5.846   8.703 -0.6822  0.1318 -0.8234
  169SAPE  H17Y19175   3.958   5.837   8.615 -1.8351  0.8964 -0.8052
  169SAPE  C31819176   3.884   5.650   8.684  0.1781  0.3531  0.7566
  169SAPE  H18X19177   3.953   5.584   8.628  0.1331  1.7375 -1.0137
  169SAPE  H18Y19178   3.787   5.596   8.694 -0.9148  1.7771 -1.3755
  169SAPE  H18Z19179   3.915   5.659   8.791 -4.0279 -1.6157  2.4012
  170SAPE     N19180   6.790   0.707   6.053 -0.4379 -0.6212 -0.2846
  170SAPE   HN119181   6.886   0.692   6.017 -0.5934  0.0009 -0.9982
  170SAPE   HN219182   6.782   0.667   6.148  0.4371 -1.3819 -0.5153
  170SAPE   HN319183   6.711   0.660   6.004 -0.6529 -0.6370  0.0742
  170SAPE   C1219184   6.751   0.851   6.068  0.1163  0.4095  0.5163
  170SAPE  H12A19185   6.752   0.901   5.968 -1.7159 -0.6333 -0.0798
  170SAPE  H12B19186   6.823   0.907   6.131  0.6684  1.0408 -0.6309
  170SAPE   C1119187   6.610   0.862   6.121  1.0815 -0.6164 -0.1903
  170SAPE  H11A19188   6.582   0.967   6.141 -0.4441 -1.2672  1.4202
  170SAPE  H11B19189   6.613   0.809   6.219 -0.6950  0.9162  0.7544
  170SAPE     P19190   6.412   0.692   6.062 -0.1085 -0.1560 -0.5273
  170SAPE   O1319191   6.328   0.670   5.947  0.3479  0.8575  0.1278
  170SAPE   O1419192   6.480   0.570   6.115 -0.1333 -0.4935 -0.4164
  170SAPE   O1219193   6.518   0.806   6.028  0.0221 -0.6032  0.0341
  170SAPE   O1119194   6.317   0.760   6.170  0.1189 -0.6466 -0.2853
  170SAPE    C119195   6.268   0.888   6.176  0.4896 -0.1011 -0.1832
  170SAPE    HA19196   6.334   0.958   6.120 -0.7709  0.0994 -1.4604
  170SAPE    HB19197   6.170   0.890   6.124  0.4292  0.4636 -0.0574
  170SAPE    C219198   6.239   0.942   6.317  0.7416  0.0705  0.2366
  170SAPE    HS19199   6.192   1.043   6.306  0.8097  0.1085  0.2989
  170SAPE   O2119200   6.360   0.936   6.392 -0.3511  0.5684  0.0966
  170SAPE   C2119201   6.416   1.055   6.398  0.9497 -0.2646  0.5912
  170SAPE   O2219202   6.385   1.146   6.323 -0.0148  0.9369 -0.9269
  170SAPE   C2219203   6.518   1.061   6.511 -0.8209 -0.9140  0.0920
  170SAPE   H2R19204   6.469   1.020   6.602 -1.5982  0.2290  0.2131
  170SAPE   H2S19205   6.598   0.991   6.479 -0.2838  0.2100 -1.1234
  170SAPE    C319206   6.135   0.851   6.381 -0.4209  0.2688 -0.2433
  170SAPE    HX19207   6.180   0.749   6.382 -0.5882  0.1796 -1.2199
  170SAPE    HY19208   6.042   0.842   6.321 -0.6384 -0.5455  0.2053
  170SAPE   O3119209   6.110   0.893   6.514  0.2238  0.1754  0.0458
  170SAPE   C3119210   6.012   0.983   6.524  0.0477  0.9103  0.0800
  170SAPE   O3219211   5.944   1.017   6.428  0.6242  0.8771  0.2959
  170SAPE   C3219212   5.982   1.030   6.662  0.7835 -0.5777 -0.1756
  170SAPE   H2X19213   6.066   1.084   6.710  0.0983  0.0860  0.3045
  170SAPE   H2Y19214   5.958   0.947   6.733 -0.9887 -0.6496 -0.8049
  170SAPE   C2319215   6.564   1.203   6.550  0.5352 -0.2426 -0.0867
  170SAPE   H3R19216   6.574   1.269   6.461  0.0891 -1.4963 -1.0972
  170SAPE   H3S19217   6.671   1.199   6.578  1.4772  0.3740 -3.2038
  170SAPE   C2419218   6.477   1.264   6.673  0.3929  0.2642  0.0617
  170SAPE   H4R19219   6.483   1.205   6.766  0.6505  0.4984  0.1958
  170SAPE   H4S19220   6.370   1.275   6.641 -0.3279 -0.4555  2.0907
  170SAPE   C2519221   6.527   1.399   6.709 -0.1291 -0.0312 -0.5356
  170SAPE   H5R19222   6.632   1.405   6.677 -0.2128 -0.0504 -0.8086
  170SAPE   C2619223   6.457   1.493   6.771 -0.0463  0.6579  0.8408
  170SAPE   H6R19224   6.506   1.592   6.776  0.2001  0.6045 -0.1459
  170SAPE   C2719225   6.312   1.487   6.819 -0.3780 -0.2750  0.3985
  170SAPE   H7R19226   6.265   1.388   6.839 -2.7484  0.3549 -1.5315
  170SAPE   H7S19227   6.241   1.525   6.742  0.7104 -0.1244 -0.5552
  170SAPE   C2819228   6.279   1.550   6.953 -0.0604  0.0392  0.3376
  170SAPE   H8R19229   6.193   1.617   6.943  0.0373  0.0124 -0.9012
  170SAPE   C2919230   6.341   1.526   7.072  0.6448 -0.1972  0.1354
  170SAPE   H9R19231   6.305   1.574   7.164  2.8052  1.6837  0.0834
  170SAPE  C21019232   6.458   1.435   7.094 -0.7731 -0.1607  0.3776
  170SAPE  H10R19233   6.546   1.484   7.046 -2.5738 -0.6231 -3.8753
  170SAPE  H10S19234   6.448   1.346   7.029 -1.5454 -0.3193  0.7042
  170SAPE  C21119235   6.491   1.402   7.243 -0.4499 -0.5087 -0.4326
  170SAPE  H11R19236   6.458   1.305   7.283  0.5803 -0.2854  1.0242
  170SAPE  C21219237   6.570   1.481   7.320 -0.1929  0.3236 -0.6881
  170SAPE  H12R19238   6.599   1.433   7.415  0.8552 -0.3005 -1.2971
  170SAPE  C21319239   6.631   1.609   7.281  0.1518 -0.0644 -0.3009
  170SAPE  H13R19240   6.552   1.684   7.260  0.8446  1.2627  1.5920
  170SAPE  H13S19241   6.686   1.606   7.185 -1.2341 -2.3789 -1.1221
  170SAPE  C21419242   6.718   1.666   7.395 -0.1863  0.3195 -0.2752
  170SAPE  H14R19243   6.825   1.643   7.389 -0.1771  0.6221 -1.7364
  170SAPE  C21519244   6.681   1.731   7.506  0.5089 -0.2204  0.1347
  170SAPE  H15R19245   6.755   1.757   7.583  0.1935  0.4535  0.2167
  170SAPE  C21619246   6.540   1.772   7.555  0.0900 -0.2346  0.1381
  170SAPE  H16R19247   6.458   1.749   7.483 -0.1325 -0.9247  0.5965
  170SAPE  H16S19248   6.537   1.880   7.580  2.0460 -0.0064 -0.4658
  170SAPE  C21719249   6.502   1.692   7.669  0.2995 -0.5774 -0.6674
  170SAPE  H17R19250   6.493   1.586   7.637  1.0683 -0.7771 -0.2574
  170SAPE  H17S19251   6.399   1.724   7.697  1.2522 -1.8282  5.9165
  170SAPE  C21819252   6.590   1.727   7.797  0.0987 -0.0395  0.5355
  170SAPE  H18R19253   6.602   1.837   7.796 -3.1700  0.4202 -0.2982
  170SAPE  H18S19254   6.686   1.673   7.788  1.3217  1.6686  2.5611
  170SAPE  C21919255   6.523   1.680   7.933  0.0679  0.8337 -0.0493
  170SAPE  H19R19256   6.484   1.578   7.910 -0.0993  1.0554 -0.7672
  170SAPE  H19S19257   6.429   1.732   7.961 -0.3975 -0.2781  0.5449
  170SAPE  C22019258   6.626   1.665   8.044  0.1833  0.5388  0.5210
  170SAPE  H20R19259   6.669   1.564   8.060  0.5425  0.6855  0.4974
  170SAPE  H20S19260   6.577   1.685   8.142 -1.0644 -3.7899  0.9730
  170SAPE  H20T19261   6.699   1.746   8.021 -1.1420  1.4508 -0.6297
  170SAPE   C3319262   5.862   1.131   6.661  0.3097  1.1922 -0.3621
  170SAPE   H3X19263   5.771   1.086   6.615  0.5800  0.0812  0.1819
  170SAPE   H3Y19264   5.897   1.211   6.593 -0.1484  1.7051 -0.0080
  170SAPE   C3419265   5.839   1.197   6.793  0.0352  0.2402 -0.0943
  170SAPE   H4X19266   5.832   1.306   6.771  1.1422 -0.0108 -1.8769
  170SAPE   H4Y19267   5.938   1.193   6.844  0.2256 -0.8283 -0.5206
  170SAPE   C3519268   5.730   1.131   6.869  0.2846  0.1162  0.7151
  170SAPE   H5X19269   5.758   1.023   6.872  1.6073  0.4028 -0.2235
  170SAPE   H5Y19270   5.626   1.141   6.832  0.2678  0.3069  0.8165
  170SAPE   C3619271   5.720   1.206   7.008  0.0502 -0.5154 -0.0592
  170SAPE   H6X19272   5.698   1.315   7.016  0.6847 -0.4221  0.5112
  170SAPE   H6Y19273   5.822   1.220   7.051 -0.3196  0.3221  0.5660
  170SAPE   C3719274   5.625   1.127   7.104  0.2267  0.6955  0.5216
  170SAPE   H7X19275   5.637   1.020   7.075  0.2830  1.0007 -0.6045
  170SAPE   H7Y19276   5.521   1.153   7.075  0.6225  1.4643 -0.2288
  170SAPE   C3819277   5.665   1.145   7.251 -0.6126  0.0714  0.2415
  170SAPE   H8X19278   5.674   1.255   7.262 -2.2570  0.2258  0.2578
  170SAPE   H8Y19279   5.767   1.107   7.273 -0.4851  0.6965  0.7667
  170SAPE   C3919280   5.575   1.092   7.360  0.1452 -0.4662  0.7749
  170SAPE   H9X19281   5.562   0.982   7.347 -0.7164 -0.0890 -2.5776
  170SAPE   H9Y19282   5.476   1.140   7.347  1.5336  2.4259  0.1600
  170SAPE  C31019283   5.626   1.116   7.499  0.0947  0.1412 -0.9399
  170SAPE  H10X19284   5.642   1.224   7.517 -1.0852 -0.0122  1.4391
  170SAPE  H10Y19285   5.719   1.056   7.508 -1.0551 -1.5231  0.5866
  170SAPE  C31119286   5.525   1.059   7.612 -0.4351 -0.2999 -0.1345
  170SAPE  H11X19287   5.503   0.952   7.594 -4.0567  0.6895 -2.9773
  170SAPE  H11Y19288   5.425   1.106   7.608 -0.3103 -0.1179 -1.9418
  170SAPE  C31219289   5.582   1.090   7.757 -1.0889  0.2938 -0.7249
  170SAPE  H12X19290   5.593   1.199   7.776  4.7599 -0.3661  1.6150
  170SAPE  H12Y19291   5.688   1.056   7.756  0.0167  3.3462  0.4098
  170SAPE  C31319292   5.489   1.044   7.874 -0.3736  0.0065 -0.1867
  170SAPE  H13X19293   5.489   0.935   7.896  1.2504 -0.5358 -2.5084
  170SAPE  H13Y19294   5.385   1.071   7.846  0.4711  0.5522 -3.1152
  170SAPE  C31419295   5.525   1.109   8.013  0.1584  0.4908  0.8829
  170SAPE  H14X19296   5.441   1.087   8.083  0.6501  0.2150  1.3942
  170SAPE  H14Y19297   5.547   1.217   8.014  3.0925 -0.0236  1.8591
  170SAPE  C31519298   5.648   1.041   8.073 -1.2270  1.1646 -0.2802
  170SAPE  H15X19299   5.732   1.090   8.020 -1.4617  0.6792 -1.1179
  170SAPE  H15Y19300   5.641   0.934   8.045 -3.4360  1.0913  0.3709
  170SAPE  C31619301   5.684   1.060   8.222 -0.1673 -0.1129  0.4528
  170SAPE  H16X19302   5.717   1.166   8.228 -3.6598  1.0802  0.6491
  170SAPE  H16Y19303   5.758   0.990   8.266 -0.6223 -0.0826  1.2765
  170SAPE  C31719304   5.564   1.046   8.319  0.0769 -0.0392 -0.0831
  170SAPE  H17X19305   5.517   0.950   8.288  0.3554  0.9281 -3.9818
  170SAPE  H17Y19306   5.481   1.117   8.297 -0.2190 -0.4436 -0.2931
  170SAPE  C31819307   5.603   1.038   8.468  0.7656 -0.0091  0.0832
  170SAPE  H18X19308   5.645   1.135   8.500  1.4290  0.5362 -2.2441
  170SAPE  H18Y19309   5.679   0.960   8.488  0.5086  0.2865  2.4972
  170SAPE  H18Z19310   5.507   1.015   8.519 -1.5747  2.4926 -2.7745
  171SAPE     N19311   0.722   2.223   6.117 -0.1322  0.2856  0.4406
  171SAPE   HN119312   0.796   2.271   6.061  1.6214 -0.4611  2.0165
  171SAPE   HN219313   0.702   2.130   6.077 -0.5140  0.2035  0.8160
  171SAPE   HN319314   0.631   2.272   6.133  0.5001  1.3298  0.9946
  171SAPE   C1219315   0.765   2.178   6.252  0.3248  0.6407 -0.3192
  171SAPE  H12A19316   0.681   2.183   6.325 -0.0942 -0.9601 -0.6658
  171SAPE  H12B19317   0.850   2.237   6.292  0.4501 -0.3107  0.8670
  171SAPE   C1119318   0.813   2.033   6.248  0.1138 -0.4309 -0.0884
  171SAPE  H11A19319   0.722   1.976   6.220  0.2304 -1.3434  1.2734
  171SAPE  H11B19320   0.837   2.002   6.352  0.0023  1.9053  0.6981
  171SAPE     P19321   1.072   2.026   6.207 -0.5600 -0.0623 -0.2274
  171SAPE   O1319322   1.163   1.934   6.133  0.9229 -0.3853  0.5662
  171SAPE   O1419323   1.111   2.168   6.201 -0.5870 -0.1382  0.1120
  171SAPE   O1219324   0.922   2.012   6.156 -0.0667 -0.1842 -0.2664
  171SAPE   O1119325   1.070   1.984   6.352  0.0928 -0.7339  0.2333
  171SAPE    C119326   1.187   1.963   6.426 -0.6791  0.1209  0.6667
  171SAPE    HA19327   1.203   1.854   6.437 -0.8152  0.0359  0.0751
  171SAPE    HB19328   1.285   1.991   6.380 -0.2669 -2.5594 -0.2506
  171SAPE    C219329   1.204   2.029   6.564 -0.0917 -0.1701  0.2171
  171SAPE    HS19330   1.308   2.015   6.600 -0.1505  2.2980  1.6008
  171SAPE   O2119331   1.101   1.974   6.644  0.1399  0.3209  0.3253
  171SAPE   C2119332   1.107   1.848   6.682 -0.0910  0.8792  0.3359
  171SAPE   O2219333   1.214   1.787   6.687 -0.3602 -0.7217 -0.1019
  171SAPE   C2219334   0.970   1.802   6.742 -1.0489 -0.3266 -0.0739
  171SAPE   H2R19335   0.996   1.699   6.775 -0.9739 -0.0125  0.8664
  171SAPE   H2S19336   0.941   1.865   6.828 -1.6529  1.3951 -1.4661
  171SAPE    C319337   1.188   2.185   6.566  0.1583  0.6618 -0.5087
  171SAPE    HX19338   1.100   2.204   6.500  2.1445  2.6977 -2.7610
  171SAPE    HY19339   1.271   2.237   6.515  0.9319  2.0044  1.9439
  171SAPE   O3119340   1.181   2.233   6.699 -0.3708 -0.3183 -0.5809
  171SAPE   C3119341   1.162   2.365   6.702  0.2545  0.2318 -0.5848
  171SAPE   O3219342   1.149   2.430   6.600  0.5137 -0.3386  0.6814
  171SAPE   C3219343   1.138   2.416   6.841  0.2670  0.3322 -0.8137
  171SAPE   H2X19344   1.238   2.436   6.884 -0.0465  2.7561 -1.0856
  171SAPE   H2Y19345   1.099   2.334   6.906  1.0126 -1.6274 -2.7312
  171SAPE   C2319346   0.863   1.809   6.633  0.2023  0.4321 -0.6219
  171SAPE   H3R19347   0.872   1.752   6.539  0.0061 -0.9757  0.1825
  171SAPE   H3S19348   0.845   1.916   6.612 -1.7454  0.3507  0.3630
  171SAPE   C2419349   0.738   1.750   6.707  0.2504  0.4912 -0.4158
  171SAPE   H4R19350   0.729   1.789   6.810  0.4182 -0.9163  0.1596
  171SAPE   H4S19351   0.749   1.639   6.706 -0.2007  0.4422 -0.0286
  171SAPE   C2519352   0.604   1.772   6.646 -0.3199  0.1503 -0.4914
  171SAPE   H5R19353   0.603   1.727   6.546 -0.3445 -0.5695 -0.1771
  171SAPE   C2619354   0.494   1.825   6.696  1.1630 -0.1532 -0.3403
  171SAPE   H6R19355   0.411   1.830   6.624  0.9366 -1.5245 -0.1994
  171SAPE   C2719356   0.473   1.876   6.834 -0.1681  0.0024  0.4618
  171SAPE   H7R19357   0.549   1.951   6.865  0.9282 -0.8479 -0.1089
  171SAPE   H7S19358   0.490   1.797   6.910  0.1671 -0.1499  0.2313
  171SAPE   C2819359   0.336   1.941   6.869 -0.0925  0.3942 -0.7707
  171SAPE   H8R19360   0.266   1.968   6.789 -2.6657 -2.3057  0.3808
  171SAPE   C2919361   0.296   1.954   7.000 -0.2746  0.3418 -0.4960
  171SAPE   H9R19362   0.211   2.020   7.019 -0.6922 -0.5330  0.7532
  171SAPE  C21019363   0.391   1.907   7.110  0.2511 -0.4992  0.2722
  171SAPE  H10R19364   0.497   1.893   7.081  0.9003  0.4873  1.9802
  171SAPE  H10S19365   0.343   1.815   7.151 -0.5257 -0.0831  0.3027
  171SAPE  C21119366   0.382   2.020   7.212 -0.0096 -0.1561  0.4200
  171SAPE  H11R19367   0.429   2.116   7.186  0.8093 -0.5284  0.4979
  171SAPE  C21219368   0.327   2.018   7.333 -0.1136  0.3128  0.5912
  171SAPE  H12R19369   0.338   2.112   7.389  3.0276  0.3604  0.0594
  171SAPE  C21319370   0.259   1.902   7.405 -0.3361 -0.5018 -0.0836
  171SAPE  H13R19371   0.243   1.807   7.351 -1.4797 -1.4988  1.8941
  171SAPE  H13S19372   0.152   1.930   7.420 -0.3601 -0.4420 -0.3774
  171SAPE  C21419373   0.317   1.859   7.538  0.6211  0.2236 -0.4497
  171SAPE  H14R19374   0.406   1.795   7.535  2.0605  2.0694  0.4123
  171SAPE  C21519375   0.285   1.894   7.660  0.6211 -0.0284 -0.7308
  171SAPE  H15R19376   0.339   1.854   7.747  1.2530  0.7579 -0.7516
  171SAPE  C21619377   0.187   1.999   7.710 -0.3025 -0.1488 -0.5681
  171SAPE  H16R19378   0.110   1.944   7.767 -0.6806  1.6041  0.6909
  171SAPE  H16S19379   0.131   2.051   7.630 -1.2776 -0.5190 -0.1321
  171SAPE  C21719380   0.261   2.107   7.790  0.1079  0.4668  0.3360
  171SAPE  H17R19381   0.201   2.200   7.796 -0.0437  0.3116  1.4301
  171SAPE  H17S19382   0.357   2.125   7.737  0.7407  0.9096  1.5913
  171SAPE  C21819383   0.289   2.065   7.932 -0.4681 -0.4751  0.2992
  171SAPE  H18R19384   0.334   1.964   7.949  0.5122 -0.1820 -0.4992
  171SAPE  H18S19385   0.188   2.056   7.977 -0.6350  0.1400  0.0462
  171SAPE  C21919386   0.385   2.168   8.003  0.2046 -1.2995 -0.0161
  171SAPE  H19R19387   0.339   2.213   8.094  2.1075 -1.4681  1.0894
  171SAPE  H19S19388   0.399   2.261   7.943 -3.1562  0.6869  1.9667
  171SAPE  C22019389   0.511   2.095   8.042 -0.3216 -0.7399 -0.4749
  171SAPE  H20R19390   0.494   2.007   8.107  1.9200 -0.5212  0.4900
  171SAPE  H20S19391   0.575   2.158   8.107 -0.4613 -1.0190 -0.0610
  171SAPE  H20T19392   0.580   2.057   7.963  0.9307  0.5631 -0.0492
  171SAPE   C3319393   1.064   2.547   6.834 -0.3176 -0.0062  0.6190
  171SAPE   H3X19394   0.964   2.535   6.787  1.1675 -0.2207 -2.7502
  171SAPE   H3Y19395   1.107   2.624   6.767 -1.7990 -1.3519 -2.0649
  171SAPE   C3419396   1.060   2.607   6.978  0.1106  0.8424 -0.4082
  171SAPE   H4X19397   1.004   2.703   6.970  1.2249  1.4700 -0.9654
  171SAPE   H4Y19398   1.158   2.639   7.020  0.4950 -1.3591  0.5288
  171SAPE   C3519399   0.990   2.521   7.084  0.0812 -0.2952  0.5112
  171SAPE   H5X19400   1.054   2.430   7.093  1.2759  0.3970 -0.5841
  171SAPE   H5Y19401   0.886   2.498   7.053 -1.0129  2.7800  1.6164
  171SAPE   C3619402   0.980   2.596   7.220 -1.3014 -0.0685 -0.2540
  171SAPE   H6X19403   0.912   2.682   7.206 -1.8495 -0.5930 -0.8465
  171SAPE   H6Y19404   1.075   2.642   7.255 -1.8078  1.0643 -0.3367
  171SAPE   C3719405   0.919   2.514   7.335  0.1523  0.1848  0.5609
  171SAPE   H7X19406   0.982   2.424   7.353 -0.2788 -0.1705  0.3211
  171SAPE   H7Y19407   0.816   2.489   7.303 -0.5447  1.5478  1.6615
  171SAPE   C3819408   0.906   2.599   7.463 -0.3064  0.0497  0.0101
  171SAPE   H8X19409   0.832   2.680   7.449 -0.3556  0.0246  0.1247
  171SAPE   H8Y19410   1.005   2.642   7.491 -1.3239  1.2215  2.0915
  171SAPE   C3919411   0.858   2.513   7.582 -0.4915  0.4740  0.3076
  171SAPE   H9X19412   0.897   2.411   7.560 -0.2747  0.6291 -0.0335
  171SAPE   H9Y19413   0.747   2.504   7.585 -0.6930  1.9737 -1.2092
  171SAPE  C31019414   0.902   2.567   7.716  1.1544  0.4783 -0.0168
  171SAPE  H10X19415   0.842   2.654   7.751  0.6228  0.3150 -0.5002
  171SAPE  H10Y19416   1.010   2.590   7.720  0.8750  1.6808  1.5580
  171SAPE  C31119417   0.880   2.461   7.822 -0.1490  0.5381 -0.4007
  171SAPE  H11X19418   0.949   2.374   7.815 -1.5645 -0.8161  1.3350
  171SAPE  H11Y19419   0.778   2.419   7.810  0.9507 -2.3184 -0.4403
  171SAPE  C31219420   0.886   2.513   7.968 -0.0134  0.2724  0.2023
  171SAPE  H12X19421   0.823   2.603   7.982  0.3493  1.0157 -2.3922
  171SAPE  H12Y19422   0.987   2.560   7.976 -0.1534  1.3106 -2.6427
  171SAPE  C31319423   0.872   2.405   8.072 -0.0675  0.5529 -0.1192
  171SAPE  H13X19424   0.943   2.324   8.045 -0.7811 -0.1930  0.2068
  171SAPE  H13Y19425   0.774   2.356   8.058  0.0601  0.6398 -1.5128
  171SAPE  C31419426   0.892   2.457   8.212  0.5598  0.3403  0.2235
  171SAPE  H14X19427   0.848   2.381   8.279  0.7745 -1.9714 -2.1298
  171SAPE  H14Y19428   0.826   2.546   8.220 -0.2754 -0.2072 -0.4431
  171SAPE  C31519429   1.033   2.478   8.257 -0.1435  0.6090  0.0751
  171SAPE  H15X19430   1.070   2.558   8.190  0.3244  1.6035  1.4896
  171SAPE  H15Y19431   1.097   2.387   8.251 -2.0509 -0.9869  2.2885
  171SAPE  C31619432   1.039   2.527   8.406  0.4686 -0.4975  0.1181
  171SAPE  H16X19433   1.142   2.549   8.443  0.3430 -0.3982  0.4048
  171SAPE  H16Y19434   0.991   2.464   8.483  2.3166 -1.5465  0.4935
  171SAPE  C31719435   0.965   2.664   8.416 -0.3482  0.2058  0.1771
  171SAPE  H17X19436   0.969   2.677   8.526  3.2636  0.0497  0.1800
  171SAPE  H17Y19437   0.857   2.652   8.392 -0.6847  0.0566  1.6651
  171SAPE  C31819438   1.044   2.774   8.355  0.0166 -0.2021  0.2202
  171SAPE  H18X19439   1.030   2.776   8.245  2.0110  2.8741 -0.1171
  171SAPE  H18Y19440   1.153   2.762   8.376  0.4094  2.2364 -0.0178
  171SAPE  H18Z19441   1.009   2.868   8.403 -0.9923 -1.0741  1.2413
  172SAPE     N19442   0.946   0.639   6.237 -0.2301 -0.5627  0.1249
  172SAPE   HN119443   1.018   0.569   6.210  1.3840  0.0294  2.5307
  172SAPE   HN219444   0.984   0.678   6.326 -0.5208 -2.5437  1.1530
  172SAPE   HN319445   0.859   0.589   6.263 -1.1026  1.3072  0.9926
  172SAPE   C1219446   0.928   0.731   6.116  0.2365  0.1842  0.1450
  172SAPE  H12A19447   0.881   0.672   6.034 -1.5571 -1.3409  2.1787
  172SAPE  H12B19448   1.028   0.760   6.077 -1.2103  2.9556 -1.8270
  172SAPE   C1119449   0.833   0.843   6.157 -0.0985 -0.7328  0.2123
  172SAPE  H11A19450   0.817   0.906   6.067  0.8170 -0.1107  0.4771
  172SAPE  H11B19451   0.884   0.916   6.224  0.3279 -0.7537 -0.0905
  172SAPE     P19452   0.601   0.877   6.292  0.1583 -0.1310 -0.3088
  172SAPE   O1319453   0.554   0.984   6.201  0.4561  0.1876 -0.1650
  172SAPE   O1419454   0.497   0.780   6.331  0.2230 -0.2415 -0.7170
  172SAPE   O1219455   0.708   0.793   6.216 -0.2789  0.1043  0.2703
  172SAPE   O1119456   0.684   0.926   6.412  0.2332 -0.1231 -0.1176
  172SAPE    C119457   0.718   0.847   6.532  0.2442  0.3791 -0.1213
  172SAPE    HA19458   0.688   0.742   6.514 -0.9347  0.4931  1.0409
  172SAPE    HB19459   0.825   0.850   6.561  0.3513 -0.9121 -0.3694
  172SAPE    C219460   0.632   0.906   6.643 -0.3428 -0.1305  0.8536
  172SAPE    HS19461   0.530   0.904   6.599  0.6321  0.2690 -1.5567
  172SAPE   O2119462   0.687   1.038   6.666  0.8239 -0.5695  0.9123
  172SAPE   C2119463   0.598   1.137   6.699 -0.0181  0.3574 -0.8158
  172SAPE   O2219464   0.476   1.129   6.693 -0.2473 -0.2264  0.3162
  172SAPE   C2219465   0.672   1.253   6.752 -0.7868 -0.0461  0.2230
  172SAPE   H2R19466   0.780   1.230   6.759 -0.8469 -0.0746  1.1724
  172SAPE   H2S19467   0.654   1.336   6.680 -1.6454 -1.9398 -1.8815
  172SAPE    C319468   0.646   0.830   6.776  0.2661  0.3729 -0.3740
  172SAPE    HX19469   0.753   0.812   6.797  0.1294 -0.7018 -0.5375
  172SAPE    HY19470   0.594   0.733   6.759  0.9524 -0.0079 -0.3389
  172SAPE   O3119471   0.604   0.900   6.890 -0.0887  0.4827 -0.4501
  172SAPE   C3119472   0.485   0.879   6.946 -0.0524 -0.7246 -0.2053
  172SAPE   O3219473   0.401   0.811   6.894  0.1626  0.5275 -0.3127
  172SAPE   C3219474   0.467   0.954   7.083  0.2455  0.5582 -0.3699
  172SAPE   H2X19475   0.388   1.030   7.062 -1.0187 -1.1479 -2.1377
  172SAPE   H2Y19476   0.560   1.009   7.108  1.0139 -1.0663  0.4764
  172SAPE   C2319477   0.617   1.297   6.891 -0.2177 -0.3985  0.0321
  172SAPE   H3R19478   0.644   1.216   6.962  1.8087  0.0182 -0.2189
  172SAPE   H3S19479   0.509   1.323   6.882  0.0912  0.7795 -0.5256
  172SAPE   C2419480   0.697   1.423   6.935  1.2715 -0.5795  0.0114
  172SAPE   H4R19481   0.704   1.473   6.836 -2.2492 -1.1309 -0.6262
  172SAPE   H4S19482   0.798   1.393   6.971  2.1286  1.7472 -0.3142
  172SAPE   C2519483   0.636   1.532   7.027 -0.0105  0.4382  0.2107
  172SAPE   H5R19484   0.526   1.525   7.025  0.0501 -0.8365  0.2664
  172SAPE   C2619485   0.703   1.616   7.101 -0.1776  0.8256 -0.2848
  172SAPE   H6R19486   0.639   1.694   7.144 -2.7696  0.7939 -3.6797
  172SAPE   C2719487   0.852   1.609   7.116  0.2958 -0.3532  0.0988
  172SAPE   H7R19488   0.886   1.604   7.010 -0.6197 -0.5736 -0.1925
  172SAPE   H7S19489   0.877   1.507   7.153  1.6859 -0.6257 -1.4337
  172SAPE   C2819490   0.900   1.736   7.187  0.3529  0.1114 -0.0908
  172SAPE   H8R19491   0.932   1.812   7.114  1.9388  0.3882  0.8283
  172SAPE   C2919492   0.919   1.756   7.321 -0.1047  0.3366 -0.0323
  172SAPE   H9R19493   0.980   1.841   7.354  0.2783 -0.9740  2.9455
  172SAPE  C21019494   0.893   1.664   7.437 -0.1194 -0.2129  0.2537
  172SAPE  H10R19495   0.951   1.688   7.529  0.2792  2.3405 -0.5985
  172SAPE  H10S19496   0.927   1.565   7.399 -0.5979  0.1419 -1.1477
  172SAPE  C21119497   0.750   1.628   7.476 -0.2409 -0.3068  0.1026
  172SAPE  H11R19498   0.674   1.641   7.396  1.2442  1.1411 -1.1591
  172SAPE  C21219499   0.700   1.606   7.598 -0.2034 -0.2225  0.2826
  172SAPE  H12R19500   0.593   1.585   7.610  0.1791 -1.5656  1.7059
  172SAPE  C21319501   0.782   1.592   7.724  0.8803 -0.0864 -0.1947
  172SAPE  H13R19502   0.886   1.630   7.711  1.2806 -0.5038  1.5034
  172SAPE  H13S19503   0.792   1.482   7.737  0.8890 -0.0639 -0.0139
  172SAPE  C21419504   0.720   1.640   7.850  0.0130 -0.1778  1.2905
  172SAPE  H14R19505   0.664   1.734   7.843  1.0666  0.5768  2.7668
  172SAPE  C21519506   0.731   1.578   7.964  0.4563 -0.2889  0.3200
  172SAPE  H15R19507   0.680   1.627   8.048 -1.1039 -2.8255  0.9662
  172SAPE  C21619508   0.807   1.461   8.013 -0.8422 -0.4052 -0.0947
  172SAPE  H16R19509   0.863   1.480   8.107  0.8022 -1.4177 -0.8232
  172SAPE  H16S19510   0.873   1.422   7.933 -1.8152  1.7207 -2.0639
  172SAPE  C21719511   0.704   1.344   8.036  0.1957  0.4800  0.7943
  172SAPE  H17R19512   0.616   1.382   8.093  0.4677  0.3723  1.2863
  172SAPE  H17S19513   0.753   1.268   8.100 -2.0163 -1.0734  0.7567
  172SAPE  C21819514   0.672   1.267   7.903  0.5388  0.0171  0.6726
  172SAPE  H18R19515   0.768   1.229   7.862  2.2526  2.6709  1.9103
  172SAPE  H18S19516   0.624   1.326   7.822  0.3774 -1.5073 -0.3889
  172SAPE  C21919517   0.584   1.148   7.933 -0.1726  0.0096 -0.0193
  172SAPE  H19R19518   0.492   1.191   7.978  1.1546  1.6889  1.2478
  172SAPE  H19S19519   0.640   1.087   8.007  1.2978 -0.4773 -1.4711
  172SAPE  C22019520   0.549   1.065   7.813  0.4467  0.8222 -1.1319
  172SAPE  H20R19521   0.462   0.998   7.833  0.0882  0.6188 -3.1059
  172SAPE  H20S19522   0.635   1.001   7.785  0.0257  0.5935 -1.9475
  172SAPE  H20T19523   0.521   1.136   7.732  1.8789  1.5529 -1.0089
  172SAPE   C3319524   0.422   0.860   7.196 -0.5132  0.2417 -0.3219
  172SAPE   H3X19525   0.511   0.797   7.217  0.3326  1.2066 -0.9724
  172SAPE   H3Y19526   0.332   0.799   7.172 -1.4008  1.9178 -1.3952
  172SAPE   C3419527   0.383   0.927   7.331  0.4107  0.9311 -0.3957
  172SAPE   H4X19528   0.308   1.005   7.303 -0.2543  1.4773  2.6358
  172SAPE   H4Y19529   0.479   0.965   7.372  1.7335 -1.1415 -1.3756
  172SAPE   C3519530   0.309   0.834   7.434  0.4342  0.1310 -0.0687
  172SAPE   H5X19531   0.396   0.771   7.463  1.9939  2.2504  0.0956
  172SAPE   H5Y19532   0.228   0.783   7.377  1.0979 -0.7047 -0.2877
  172SAPE   C3619533   0.239   0.892   7.557 -0.1504  0.0326  0.0154
  172SAPE   H6X19534   0.150   0.944   7.516 -0.9713 -2.9451 -2.3169
  172SAPE   H6Y19535   0.308   0.966   7.603 -0.8220  1.2126 -0.8275
  172SAPE   C3719536   0.197   0.779   7.657  0.4467  0.3006 -0.8182
  172SAPE   H7X19537   0.291   0.726   7.683  0.0418  0.6753  1.6644
  172SAPE   H7Y19538   0.119   0.709   7.620 -1.5387  0.5019  2.5926
  172SAPE   C3819539   0.125   0.830   7.785  0.1339  0.8681 -0.0108
  172SAPE   H8X19540   0.034   0.871   7.737 -0.0522 -0.2179 -0.6111
  172SAPE   H8Y19541   0.184   0.911   7.833 -1.7666  1.4751  1.4203
  172SAPE   C3919542   0.085   0.713   7.876 -0.2119 -0.0486  0.0109
  172SAPE   H9X19543   0.151   0.627   7.852  0.7078  0.6437  0.0443
  172SAPE   H9Y19544  -0.019   0.673   7.872 -0.3614  0.2202  0.9026
  172SAPE  C31019545   0.102   0.739   8.025 -0.1660  0.0527 -0.2757
  172SAPE  H10X19546   0.042   0.832   8.038  1.1024  0.9675 -0.8414
  172SAPE  H10Y19547   0.207   0.766   8.050 -0.0680 -0.6226  0.0748
  172SAPE  C31119548   0.052   0.634   8.129  0.2759  1.1761 -0.0719
  172SAPE  H11X19549  -0.047   0.596   8.097 -0.1406  1.0159  1.3128
  172SAPE  H11Y19550   0.034   0.670   8.233 -0.5079 -1.8488  0.9444
  172SAPE  C31219551   0.150   0.525   8.159 -0.5023  0.3428  0.1970
  172SAPE  H12X19552   0.243   0.567   8.205 -0.0491 -1.2654  0.8028
  172SAPE  H12Y19553   0.183   0.474   8.066  0.6080 -0.1516  0.8438
  172SAPE  C31319554   0.086   0.421   8.255 -0.0591  0.1942 -0.1323
  172SAPE  H13X19555   0.145   0.327   8.243 -0.3652  0.0719 -0.7156
  172SAPE  H13Y19556  -0.019   0.405   8.222 -0.3180  1.0314  0.2617
  172SAPE  C31419557   0.095   0.448   8.407 -0.5381  0.2846 -0.0800
  172SAPE  H14X19558   0.040   0.544   8.413  2.0568  1.7824  1.4146
  172SAPE  H14Y19559   0.196   0.483   8.436 -0.7716  1.0611 -0.1906
  172SAPE  C31519560   0.036   0.334   8.498  0.6524 -0.0284 -0.8072
  172SAPE  H15X19561   0.053   0.370   8.601 -0.0314  0.2530 -0.7897
  172SAPE  H15Y19562   0.118   0.259   8.495 -0.2941 -1.1244  0.2774
  172SAPE  C31619563  -0.101   0.293   8.465  0.1616  0.1144  0.1819
  172SAPE  H16X19564  -0.106   0.212   8.389 -0.7614  1.1406 -0.9126
  172SAPE  H16Y19565  -0.149   0.384   8.421  0.6951  1.2244  1.8084
  172SAPE  C31719566  -0.196   0.272   8.583  0.1525 -0.4123  0.2637
  172SAPE  H17X19567  -0.301   0.268   8.548 -0.5171 -1.3868  2.2323
  172SAPE  H17Y19568  -0.194   0.360   8.650 -0.4364 -0.8356  0.8491
  172SAPE  C31819569  -0.171   0.138   8.647 -0.5897  0.6004 -0.2840
  172SAPE  H18X19570  -0.242   0.137   8.733  1.7183  1.4271  1.7615
  172SAPE  H18Y19571  -0.066   0.142   8.683  0.1065  2.7975 -2.2942
  172SAPE  H18Z19572  -0.183   0.053   8.577  2.4304 -0.6732  0.5787
  173SOPE     N19573   2.031   5.616  10.718 -0.2869  0.6395 -0.2202
  173SOPE   HN119574   2.058   5.516  10.721  1.6542  1.1205  0.2465
  173SOPE   HN219575   2.078   5.670  10.643  0.2470  0.1794 -0.2222
  173SOPE   HN319576   2.069   5.653  10.808 -0.7516  0.4309  0.0631
  173SOPE   C1219577   1.886   5.626  10.705  0.1092  0.4479  0.1362
  173SOPE  H12A19578   1.844   5.609  10.603 -1.0073 -0.2239  0.6829
  173SOPE  H12B19579   1.865   5.733  10.727  0.5060  0.4601  0.4587
  173SOPE   C1119580   1.819   5.537  10.814 -0.9780  0.1137 -0.2355
  173SOPE  H11A19581   1.710   5.550  10.794 -0.7251  0.1993 -1.7130
  173SOPE  H11B19582   1.851   5.574  10.914  0.4591 -0.4427 -0.4670
  173SOPE     P19583   1.748   5.281  10.802  0.0000 -0.1085 -0.0554
  173SOPE   O1319584   1.620   5.319  10.863 -0.3145 -0.7098 -0.4635
  173SOPE   O1419585   1.827   5.168  10.858  0.1184 -0.3904  0.3381
  173SOPE   O1219586   1.853   5.398  10.803  0.4919 -0.3175  0.1946
  173SOPE   O1119587   1.720   5.261  10.643 -0.2462 -0.4485 -0.0883
  173SOPE    C119588   1.615   5.336  10.575  0.8661 -0.8152  0.0114
  173SOPE    HA19589   1.656   5.436  10.549  0.6323 -0.6499  0.2696
  173SOPE    HB19590   1.529   5.338  10.646  1.0974 -0.0988  0.2747
  173SOPE    C219591   1.560   5.258  10.454  1.1791  0.7520  0.7112
  173SOPE    HS19592   1.537   5.157  10.492  1.0595  0.9996  1.3089
  173SOPE   O2119593   1.663   5.251  10.345 -0.2382 -0.1248  0.5541
  173SOPE   C2119594   1.634   5.149  10.261 -0.2579  0.0134 -0.3966
  173SOPE   O2219595   1.568   5.054  10.298  0.3637  0.3040 -0.7516
  173SOPE   C2219596   1.670   5.182  10.112 -0.0316 -0.5025 -0.0436
  173SOPE   H2R19597   1.780   5.180  10.103 -0.0904  0.5937 -1.2508
  173SOPE   H2S19598   1.638   5.286  10.085  0.1054 -0.6145 -0.6453
  173SOPE    C319599   1.426   5.326  10.402  0.3438 -0.1898  0.7137
  173SOPE    HX19600   1.443   5.435  10.401  0.9540 -0.2892 -0.1034
  173SOPE    HY19601   1.353   5.308  10.484 -2.4073  1.0466 -1.2972
  173SOPE   O3119602   1.372   5.279  10.276 -0.4976 -1.0460  0.2771
  173SOPE   C3119603   1.261   5.347  10.240  0.4233 -0.0695  0.9372
  173SOPE   O3219604   1.212   5.438  10.304  0.7618  0.8004 -0.1976
  173SOPE   C3219605   1.217   5.295  10.104 -0.3401 -0.2869  0.0168
  173SOPE   H2X19606   1.108   5.315  10.103 -0.4607 -0.7760  1.2155
  173SOPE   H2Y19607   1.236   5.186  10.107  1.0810 -0.0631  0.0990
  173SOPE   C2319608   1.612   5.080  10.015  0.7617  0.6098  0.1038
  173SOPE   H3R19609   1.502   5.086  10.008  0.6546  0.1870  1.2330
  173SOPE   H3S19610   1.646   4.978  10.045  3.5133  0.3754 -3.1590
  173SOPE   C2419611   1.651   5.088   9.859  0.3924  1.1279  0.5480
  173SOPE   H4R19612   1.635   5.192   9.821  1.4120  0.7474 -1.0260
  173SOPE   H4S19613   1.761   5.075   9.861  0.4373  1.4706  0.5048
  173SOPE   C2519614   1.578   4.975   9.774  0.3408 -0.1882 -0.1286
  173SOPE   H5R19615   1.578   4.891   9.848  1.5901  1.4419  1.8445
  173SOPE   H5S19616   1.470   4.998   9.757  0.6151  0.6370 -0.8179
  173SOPE   C2619617   1.654   4.930   9.657 -0.3694 -0.2078 -0.4712
  173SOPE   H6R19618   1.673   5.019   9.593 -2.5070  0.2294 -0.5810
  173SOPE   H6S19619   1.744   4.870   9.679 -1.6224 -2.9738 -2.3226
  173SOPE   C2719620   1.576   4.825   9.577  0.1042 -0.0943  0.6310
  173SOPE   H7R19621   1.544   4.745   9.647  0.0398 -0.3255  0.3362
  173SOPE   H7S19622   1.486   4.864   9.524 -0.1564  0.1012  1.2062
  173SOPE   C2819623   1.668   4.754   9.472 -0.0261 -0.4393 -0.3784
  173SOPE   H8R19624   1.758   4.710   9.520  1.2315  1.7227 -0.6111
  173SOPE   H8S19625   1.603   4.672   9.436 -2.3417  0.0999  2.2324
  173SOPE   C2919626   1.709   4.862   9.372  1.1588 -0.0700 -0.1755
  173SOPE   H9119627   1.795   4.922   9.407 -1.0259  1.6990  2.5219
  173SOPE  C21019628   1.653   4.880   9.251 -0.0086 -0.1499 -0.6248
  173SOPE  H10119629   1.703   4.960   9.195  0.0212  1.0705  1.0387
  173SOPE  C21119630   1.533   4.827   9.184  0.0893  0.0754 -0.7166
  173SOPE  H11R19631   1.479   4.763   9.257  0.9438 -0.1891 -0.2990
  173SOPE  H11S19632   1.567   4.774   9.093  2.5710 -0.0428  0.2012
  173SOPE  C21219633   1.430   4.930   9.139 -0.2117 -0.0704  0.7180
  173SOPE  H12R19634   1.374   4.979   9.222 -0.8621 -0.6465  0.6353
  173SOPE  H12S19635   1.351   4.876   9.082  0.6453  0.9490 -1.5502
  173SOPE  C21319636   1.496   5.028   9.039 -0.4547  0.0926 -0.5715
  173SOPE  H13R19637   1.564   4.975   8.968  0.6974  1.4270 -0.5201
  173SOPE  H13S19638   1.549   5.107   9.097 -1.5235 -1.0569  2.1114
  173SOPE  C21419639   1.387   5.097   8.955  0.2346  0.3497  0.4550
  173SOPE  H14R19640   1.327   5.151   9.032  1.4842  0.6309  1.2625
  173SOPE  H14S19641   1.326   5.020   8.904  1.0061 -2.5729  3.5360
  173SOPE  C21519642   1.428   5.201   8.848  0.2349 -0.1566  0.3212
  173SOPE  H15R19643   1.508   5.157   8.785  1.8123  1.4409  1.0972
  173SOPE  H15S19644   1.485   5.287   8.888  1.2977 -0.5873 -0.2341
  173SOPE  C21619645   1.307   5.252   8.766 -0.1944  0.6711  0.2780
  173SOPE  H16R19646   1.245   5.164   8.738 -0.9380  0.8845  1.1930
  173SOPE  H16S19647   1.350   5.300   8.676  0.7122 -2.1143 -0.8834
  173SOPE  C21719648   1.218   5.354   8.840 -0.1804  0.6151 -0.1850
  173SOPE  H17R19649   1.188   5.424   8.759 -3.9020 -1.4755 -0.8715
  173SOPE  H17S19650   1.292   5.405   8.904  1.7957 -1.5986 -0.5847
  173SOPE  C21819651   1.091   5.309   8.918 -0.0104 -0.1440  0.4362
  173SOPE  H18R19652   1.108   5.217   8.978 -3.2128  0.6154  2.7748
  173SOPE  H18S19653   1.011   5.293   8.842  0.6083  0.7586 -0.4369
  173SOPE  H18T19654   1.062   5.393   8.985 -0.6209 -1.5607  2.0013
  173SOPE   C3319655   1.287   5.356   9.981  0.7070  0.3638  0.4236
  173SOPE   H3X19656   1.396   5.371   9.997  1.1160 -0.4950 -1.2746
  173SOPE   H3Y19657   1.248   5.457   9.955  1.4704  0.3225 -1.0063
  173SOPE   C3419658   1.290   5.267   9.857  0.1925  0.6430  0.2145
  173SOPE   H4X19659   1.187   5.230   9.835  0.6642 -1.6144  1.4631
  173SOPE   H4Y19660   1.344   5.173   9.883 -1.2825 -0.0146  1.0245
  173SOPE   C3519661   1.350   5.340   9.737  0.3292  0.2844  0.3516
  173SOPE   H5X19662   1.455   5.368   9.764  0.3635  0.1060  0.4039
  173SOPE   H5Y19663   1.288   5.429   9.716 -1.0997 -1.1309 -1.7195
  173SOPE   C3619664   1.339   5.255   9.604  0.2860  0.0419 -0.8673
  173SOPE   H6X19665   1.241   5.204   9.601  1.3247 -2.2264  0.7581
  173SOPE   H6Y19666   1.415   5.176   9.622  0.4438 -0.3919 -3.0737
  173SOPE   C3719667   1.382   5.330   9.478  0.8172 -0.5020  0.5822
  173SOPE   H7X19668   1.437   5.256   9.417 -0.2643 -0.9502  0.1207
  173SOPE   H7Y19669   1.450   5.412   9.510  1.4177 -1.4814  1.9316
  173SOPE   C3819670   1.273   5.409   9.394 -0.1756  0.2110  0.7265
  173SOPE   H8X19671   1.229   5.478   9.468 -0.9278 -1.8190  2.2696
  173SOPE   H8Y19672   1.198   5.334   9.361 -1.2052  0.7830  1.7106
  173SOPE   C3919673   1.333   5.484   9.275  0.6261 -0.3789  0.2347
  173SOPE   H9X19674   1.365   5.416   9.194  0.6475 -0.2291  0.1175
  173SOPE   H9Y19675   1.421   5.539   9.315  1.3401 -1.0273 -0.4030
  173SOPE  C31019676   1.229   5.590   9.235  0.4757 -0.3592  0.1647
  173SOPE  H10X19677   1.215   5.668   9.312  0.5527 -0.4867  0.3090
  173SOPE  H10Y19678   1.131   5.539   9.218 -1.0734  2.5969 -0.4486
  173SOPE  C31119679   1.276   5.658   9.111  0.1429  0.1660  0.5700
  173SOPE  H11X19680   1.290   5.597   9.019  1.6675  1.3131 -0.0121
  173SOPE  H11Y19681   1.380   5.699   9.107 -0.2189  1.2088  1.2167
  173SOPE  C31219682   1.178   5.770   9.062  0.0525 -0.7116  0.0106
  173SOPE  H12X19683   1.171   5.840   9.148  0.1052 -0.3182 -0.3032
  173SOPE  H12Y19684   1.084   5.710   9.053  0.1472 -1.1285  1.5123
  173SOPE  C31319685   1.210   5.842   8.936  0.0885 -0.7193 -0.5542
  173SOPE  H13X19686   1.316   5.843   8.904  0.2439  2.7253 -0.2866
  173SOPE  H13Y19687   1.168   5.945   8.935 -0.6976 -0.9554  1.6657
  173SOPE  C31419688   1.139   5.767   8.822  0.3325 -1.0445 -0.2367
  173SOPE  H14X19689   1.030   5.779   8.837  0.1848  0.9554 -2.3749
  173SOPE  H14Y19690   1.169   5.660   8.823 -0.7349 -1.3825 -1.6353
  173SOPE  C31519691   1.156   5.824   8.685  0.0274  0.7488  0.2080
  173SOPE  H15X19692   1.262   5.816   8.653 -0.8724  0.0248 -2.9522
  173SOPE  H15Y19693   1.119   5.928   8.672 -0.8612  0.4515  0.2857
  173SOPE  C31619694   1.095   5.732   8.571  1.0622 -0.1096 -0.1898
  173SOPE  H16X19695   0.984   5.725   8.578  0.9354 -0.0296 -1.7760
  173SOPE  H16Y19696   1.123   5.625   8.577 -1.3285 -0.8773 -1.2492
  173SOPE  C31719697   1.127   5.798   8.439 -0.5971 -0.0998 -0.4765
  173SOPE  H17X19698   1.233   5.830   8.440 -0.7477  0.6163  2.5906
  173SOPE  H17Y19699   1.078   5.897   8.436 -1.7279 -0.6526 -0.8864
  173SOPE  C31819700   1.107   5.701   8.323 -0.0401  0.8811 -0.2444
  173SOPE  H18X19701   1.146   5.599   8.341 -1.0267  0.7168  1.1605
  173SOPE  H18Y19702   1.145   5.733   8.223  0.5148 -1.9115 -0.9930
  173SOPE  H18Z19703   0.997   5.683   8.319  0.2896 -1.2035 -1.7496
  174SOPE     N19704   0.730   2.672  10.842 -0.0150 -0.2250  0.7234
  174SOPE   HN119705   0.747   2.579  10.886  2.4636 -0.8560 -1.3105
  174SOPE   HN219706   0.674   2.740  10.898 -0.7920 -1.4802  1.5326
  174SOPE   HN319707   0.672   2.661  10.756  0.8688  0.6000 -0.0063
  174SOPE   C1219708   0.853   2.739  10.789 -1.0024 -0.6430  0.3861
  174SOPE  H12A19709   0.918   2.663  10.742 -0.8174 -0.3646  0.1911
  174SOPE  H12B19710   0.896   2.803  10.869  0.6533 -0.9754 -0.1976
  174SOPE   C1119711   0.826   2.843  10.665 -0.3084 -0.0081 -0.2571
  174SOPE  H11A19712   0.791   2.782  10.579 -1.9557  0.7705 -0.1682
  174SOPE  H11B19713   0.922   2.895  10.645  0.0231  0.7682  2.8312
  174SOPE     P19714   0.765   3.097  10.697 -0.2550  0.4887 -0.0120
  174SOPE   O1319715   0.865   3.124  10.799 -0.3458 -0.9672 -0.2903
  174SOPE   O1419716   0.645   3.183  10.690 -0.6496 -0.0531 -0.5700
  174SOPE   O1219717   0.727   2.943  10.699 -0.3504  0.4214 -0.0423
  174SOPE   O1119718   0.839   3.113  10.549 -0.0848 -0.1872 -0.1492
  174SOPE    C119719   0.752   3.101  10.432 -0.4570  0.0921 -0.0469
  174SOPE    HA19720   0.661   3.162  10.445 -0.4628 -0.3241  2.1957
  174SOPE    HB19721   0.719   2.995  10.436  2.0504 -0.7235  1.6947
  174SOPE    C219722   0.824   3.129  10.295  0.1712  0.7700 -0.1398
  174SOPE    HS19723   0.919   3.071  10.297  0.5348  1.3762  1.2282
  174SOPE   O2119724   0.829   3.270  10.285 -0.0480  0.4931  1.1327
  174SOPE   C2119725   0.948   3.311  10.226  0.8158  1.2979 -0.8005
  174SOPE   O2219726   1.029   3.230  10.176 -0.1309 -0.6044 -0.7583
  174SOPE   C2219727   0.966   3.461  10.239 -0.3879  0.6778  0.8671
  174SOPE   H2R19728   1.026   3.493  10.327  0.6454 -1.5549  1.0355
  174SOPE   H2S19729   0.863   3.501  10.241 -0.8014 -0.2851 -0.3185
  174SOPE    C319730   0.744   3.067  10.181  0.2465 -0.0566 -0.2410
  174SOPE    HX19731   0.639   3.094  10.204  0.1766  0.0256 -0.6499
  174SOPE    HY19732   0.754   2.958  10.202  2.0481 -0.3939 -2.4252
  174SOPE   O3119733   0.778   3.097  10.050 -0.2804 -0.0486 -0.0466
  174SOPE   C3119734   0.876   3.035   9.990  0.2144 -0.0352  0.9070
  174SOPE   O3219735   0.939   2.933  10.021  0.4986  0.0740 -0.1981
  174SOPE   C3219736   0.892   3.115   9.861 -0.4704  0.7360  0.7504
  174SOPE   H2X19737   1.001   3.105   9.843 -0.5266  0.9677  0.2910
  174SOPE   H2Y19738   0.861   3.221   9.864 -1.6074  0.8240 -4.7284
  174SOPE   C2319739   1.034   3.516  10.109  0.1561 -0.7439 -0.1125
  174SOPE   H3R19740   1.110   3.444  10.074  1.2094 -1.1130  2.6724
  174SOPE   H3S19741   1.090   3.612  10.116 -0.0520 -0.2627 -3.2898
  174SOPE   C2419742   0.934   3.528   9.991 -0.0673  0.7567 -0.3175
  174SOPE   H4R19743   0.851   3.454  10.006 -1.8486  2.7810  0.3931
  174SOPE   H4S19744   0.886   3.628   9.993 -2.6124 -0.3642 -0.5987
  174SOPE   C2519745   1.002   3.499   9.864 -0.3443  0.3351 -0.1816
  174SOPE   H5R19746   1.093   3.562   9.856 -0.7593  0.9577 -0.0418
  174SOPE   H5S19747   1.041   3.396   9.849 -3.1793 -0.5353 -2.5734
  174SOPE   C2619748   0.911   3.516   9.747  0.0853 -0.0437  0.1040
  174SOPE   H6R19749   0.827   3.444   9.760  1.2496 -1.1505  2.0181
  174SOPE   H6S19750   0.866   3.617   9.739 -2.9786 -1.3784 -0.7608
  174SOPE   C2719751   0.976   3.491   9.615  0.2487  0.1684  0.8173
  174SOPE   H7R19752   1.064   3.556   9.594  0.7288 -0.2753  1.4273
  174SOPE   H7S19753   1.009   3.385   9.611 -3.7268 -1.2687  2.0657
  174SOPE   C2819754   0.874   3.522   9.500  0.6700  0.3081  0.1094
  174SOPE   H8R19755   0.789   3.457   9.528  1.0975  0.5961  2.2389
  174SOPE   H8S19756   0.839   3.628   9.498  3.1541  1.2479 -3.3223
  174SOPE   C2919757   0.921   3.485   9.361  0.4108  0.0651  0.0747
  174SOPE   H9119758   0.978   3.391   9.361  0.4485  0.0730  1.2460
  174SOPE  C21019759   0.907   3.561   9.253 -1.2063 -0.1143 -0.4759
  174SOPE  H10119760   0.949   3.521   9.159  1.1019 -0.3483  0.6000
  174SOPE  C21119761   0.838   3.693   9.242  0.2452 -0.1089  0.0358
  174SOPE  H11R19762   0.907   3.757   9.184 -0.4261  0.9032  0.3370
  174SOPE  H11S19763   0.819   3.739   9.342  0.2239 -0.3889  0.1628
  174SOPE  C21219764   0.703   3.679   9.179 -0.2208 -0.0558 -0.5993
  174SOPE  H12R19765   0.646   3.767   9.217  0.2594  1.0198 -2.2858
  174SOPE  H12S19766   0.653   3.585   9.209  0.2098  0.3956  1.7609
  174SOPE  C21319767   0.714   3.688   9.030 -0.0559 -0.5657  0.8272
  174SOPE  H13R19768   0.610   3.684   8.991 -0.5634  0.0427  2.0886
  174SOPE  H13S19769   0.769   3.600   8.988 -1.3353 -0.8911 -0.2400
  174SOPE  C21419770   0.776   3.820   8.979 -0.0716  0.3979  0.2067
  174SOPE  H14R19771   0.886   3.815   8.991  0.0322  1.5285 -0.2118
  174SOPE  H14S19772   0.734   3.884   9.059 -1.0437 -1.9740  1.7350
  174SOPE  C21519773   0.724   3.866   8.842 -0.3381  0.4150  0.7139
  174SOPE  H15R19774   0.616   3.857   8.815 -0.3041  1.3485  0.2116
  174SOPE  H15S19775   0.780   3.814   8.762  0.0811  0.7295  0.8044
  174SOPE  C21619776   0.772   4.012   8.833 -0.8448  0.9527 -0.0917
  174SOPE  H16R19777   0.883   4.018   8.840 -0.7852 -0.7773  1.1420
  174SOPE  H16S19778   0.723   4.077   8.908 -1.9604  1.0495 -0.8811
  174SOPE  C21719779   0.743   4.071   8.692 -0.1352 -1.0050 -0.2804
  174SOPE  H17R19780   0.634   4.064   8.671 -0.0545 -1.2529 -0.6248
  174SOPE  H17S19781   0.800   4.013   8.616 -1.5617 -2.5030 -0.2715
  174SOPE  C21819782   0.781   4.225   8.694  0.4213  0.1192 -0.2009
  174SOPE  H18R19783   0.886   4.239   8.726  0.3850  3.2763 -1.1779
  174SOPE  H18S19784   0.716   4.257   8.777  0.2336 -1.2117  0.2012
  174SOPE  H18T19785   0.754   4.280   8.601 -0.9997  0.5162  0.4208
  174SOPE   C3319786   0.820   3.047   9.733  0.2967 -0.0234 -0.9570
  174SOPE   H3X19787   0.713   3.060   9.763  1.0164  0.7950  1.4588
  174SOPE   H3Y19788   0.839   2.938   9.728  0.5416 -0.0543  0.3239
  174SOPE   C3419789   0.846   3.131   9.608  0.2213  0.7738  0.1433
  174SOPE   H4X19790   0.945   3.179   9.621  0.3213  1.3981 -2.3560
  174SOPE   H4Y19791   0.770   3.211   9.598 -1.1753 -0.4054  0.7661
  174SOPE   C3519792   0.833   3.054   9.477  0.2889  0.1639 -0.0759
  174SOPE   H5X19793   0.731   3.011   9.477  1.1653 -2.0584 -0.7806
  174SOPE   H5Y19794   0.906   2.971   9.481 -1.6324 -1.6312 -0.4080
  174SOPE   C3619795   0.850   3.135   9.349  0.0185 -0.1654 -0.2118
  174SOPE   H6X19796   0.952   3.178   9.339 -0.9119  1.7422 -2.4182
  174SOPE   H6Y19797   0.785   3.224   9.365 -0.7874 -0.9767  1.1549
  174SOPE   C3719798   0.806   3.061   9.220 -0.5227  0.1293  0.2395
  174SOPE   H7X19799   0.718   2.999   9.250 -0.2797  0.0459  0.8050
  174SOPE   H7Y19800   0.878   2.979   9.201 -0.4732 -0.5799  3.0092
  174SOPE   C3819801   0.780   3.132   9.087 -0.3167  0.5121  0.2220
  174SOPE   H8X19802   0.695   3.200   9.109 -0.9316 -0.6827  1.7287
  174SOPE   H8Y19803   0.761   3.067   8.998  0.9269  0.0664  0.2553
  174SOPE   C3919804   0.902   3.207   9.039 -0.3503  0.2823 -0.5271
  174SOPE   H9X19805   0.993   3.144   9.023  0.0316 -0.3918  3.2877
  174SOPE   H9Y19806   0.926   3.284   9.116 -0.6399 -0.8154  0.7110
  174SOPE  C31019807   0.868   3.280   8.906  0.3108  0.2644  0.0810
  174SOPE  H10X19808   0.772   3.334   8.921 -0.0999  0.0688 -1.6119
  174SOPE  H10Y19809   0.837   3.203   8.832  1.3347 -0.8817  0.8127
  174SOPE  C31119810   0.980   3.378   8.864 -0.2746  0.8246  0.7069
  174SOPE  H11X19811   1.075   3.325   8.840 -0.4449  0.3332  1.1052
  174SOPE  H11Y19812   1.007   3.436   8.955  1.2043 -0.4369  1.1261
  174SOPE  C31219813   0.951   3.479   8.754 -0.1282 -0.2383 -0.6587
  174SOPE  H12X19814   0.868   3.548   8.780 -0.1502 -0.2797 -0.6173
  174SOPE  H12Y19815   0.908   3.418   8.672  0.2070 -1.7979  0.2811
  174SOPE  C31319816   1.076   3.559   8.719  0.6227  0.3320 -0.1836
  174SOPE  H13X19817   1.156   3.494   8.678  0.4102  0.6199 -1.0785
  174SOPE  H13Y19818   1.111   3.604   8.815 -1.4008 -1.6697  1.6105
  174SOPE  C31419819   1.021   3.654   8.615  0.1837 -0.3225 -0.1363
  174SOPE  H14X19820   0.941   3.711   8.668 -0.3529 -0.9339 -0.2740
  174SOPE  H14Y19821   0.982   3.593   8.531 -0.3624 -0.9624  0.5675
  174SOPE  C31519822   1.117   3.755   8.560 -0.1840 -0.3803  0.4513
  174SOPE  H15X19823   1.188   3.785   8.640 -0.8821 -0.3142  1.0569
  174SOPE  H15Y19824   1.058   3.841   8.521 -1.5383 -1.4988 -0.0123
  174SOPE  C31619825   1.199   3.698   8.445 -0.0486  0.0243  0.1526
  174SOPE  H16X19826   1.143   3.689   8.349  2.0689 -0.6077 -1.1007
  174SOPE  H16Y19827   1.226   3.591   8.455 -0.1911  0.0374  0.7326
  174SOPE  C31719828   1.314   3.776   8.393  1.4465  0.0983 -0.1880
  174SOPE  H17X19829   1.277   3.880   8.385  1.7363  0.3972  1.7315
  174SOPE  H17Y19830   1.345   3.724   8.300  0.0087 -1.7679  0.3292
  174SOPE  C31819831   1.422   3.767   8.493  0.1004 -0.3904 -0.2283
  174SOPE  H18X19832   1.394   3.797   8.596 -0.9760 -0.3949 -0.5068
  174SOPE  H18Y19833   1.501   3.836   8.456  1.1459 -0.3757  1.8888
  174SOPE  H18Z19834   1.460   3.663   8.495  1.6527  0.0318 -2.8093
  175SOPE     N19835   4.254   5.779  10.387  0.5718  0.1304 -0.0215
  175SOPE   HN119836   4.178   5.764  10.317 -0.0566 -2.2230  1.0437
  175SOPE   HN219837   4.328   5.840  10.348  3.3049 -2.6430  0.3875
  175SOPE   HN319838   4.295   5.683  10.388  1.0770  0.3483  0.7148
  175SOPE   C1219839   4.217   5.817  10.525  0.4771 -0.6273  0.4208
  175SOPE  H12A19840   4.307   5.787  10.582  3.2755  0.2533 -3.1742
  175SOPE  H12B19841   4.120   5.765  10.542  0.2373 -0.3747 -0.1261
  175SOPE   C1119842   4.191   5.965  10.543  0.6359 -0.5111 -0.1762
  175SOPE  H11A19843   4.256   6.044  10.501 -0.6277  1.7965  1.9198
  175SOPE  H11B19844   4.215   5.986  10.650 -2.1627 -2.2184  0.8923
  175SOPE     P19845   3.947   6.007  10.624 -0.0499  0.0612  0.3221
  175SOPE   O1319846   3.893   6.142  10.630 -0.8594 -0.1170  0.2544
  175SOPE   O1419847   3.992   5.954  10.755 -0.3236  0.1233  0.0047
  175SOPE   O1219848   4.055   5.994  10.508  0.0997  0.3654 -0.2638
  175SOPE   O1119849   3.827   5.924  10.567  0.0307  0.3316  0.2440
  175SOPE    C119850   3.750   5.973  10.452  0.0606  0.2709  0.3232
  175SOPE    HA19851   3.767   6.082  10.436 -1.7752  0.6120  0.4715
  175SOPE    HB19852   3.645   5.957  10.487  1.2243 -1.2546  3.4319
  175SOPE    C219853   3.790   5.903  10.328 -0.1438  0.8315  0.2017
  175SOPE    HS19854   3.900   5.911  10.318 -0.0834  0.9435  0.9167
  175SOPE   O2119855   3.712   5.952  10.216 -0.1753  0.6372 -0.1940
  175SOPE   C2119856   3.764   6.058  10.166  0.7731 -0.3565  0.2500
  175SOPE   O2219857   3.863   6.120  10.201 -0.3571 -0.5294  0.2793
  175SOPE   C2219858   3.677   6.106  10.048 -0.0121 -0.0870 -0.4738
  175SOPE   H2R19859   3.700   6.212  10.022  2.0955 -0.1277  0.9739
  175SOPE   H2S19860   3.571   6.087  10.074  0.0729 -3.2089 -2.0132
  175SOPE    C319861   3.760   5.740  10.340  0.1629 -1.0114 -0.7237
  175SOPE    HX19862   3.653   5.727  10.369  0.5598 -0.7404  0.9919
  175SOPE    HY19863   3.825   5.706  10.424  1.2252  0.0043 -1.1078
  175SOPE   O3119864   3.787   5.661  10.223 -0.1412  0.5354  0.2176
  175SOPE   C3119865   3.920   5.649  10.202 -0.4933 -0.0496  1.1043
  175SOPE   O3219866   4.012   5.706  10.258 -0.6854  0.5142 -0.0755
  175SOPE   C3219867   3.951   5.550  10.086  0.4400  0.8120 -0.0271
  175SOPE   H2X19868   3.920   5.449  10.121 -1.3617  1.2969 -0.1242
  175SOPE   H2Y19869   4.060   5.546  10.065  0.3913  1.3109 -0.4043
  175SOPE   C2319870   3.716   6.036   9.918 -0.0236 -0.5957  0.3466
  175SOPE   H3R19871   3.687   5.929   9.908  0.5880 -0.6859 -0.6674
  175SOPE   H3S19872   3.825   6.060   9.911 -1.0403  5.2216 -0.3067
  175SOPE   C2419873   3.649   6.108   9.800  0.1866 -0.0224 -0.4558
  175SOPE   H4R19874   3.670   6.217   9.801 -0.2798  0.0963 -1.9726
  175SOPE   H4S19875   3.707   6.061   9.718  0.6225 -0.4691  0.0951
  175SOPE   C2519876   3.503   6.084   9.775  0.3263 -0.0657  0.2987
  175SOPE   H5R19877   3.476   5.977   9.764 -3.6725  0.7178  1.0205
  175SOPE   H5S19878   3.436   6.115   9.858 -1.2786 -0.7157 -0.7033
  175SOPE   C2619879   3.448   6.151   9.647 -0.1555 -0.1560  0.4885
  175SOPE   H6R19880   3.339   6.134   9.634  0.1110 -0.1956 -2.6846
  175SOPE   H6S19881   3.443   6.261   9.659 -1.8318 -0.2401  0.7858
  175SOPE   C2719882   3.518   6.115   9.511  0.6482 -0.5733 -0.1184
  175SOPE   H7R19883   3.555   6.210   9.466 -1.2430  0.5399  0.5437
  175SOPE   H7S19884   3.603   6.053   9.545 -0.6425 -2.4293 -0.1214
  175SOPE   C2819885   3.437   6.031   9.409  0.1552 -0.1421  0.0236
  175SOPE   H8R19886   3.504   5.979   9.338  0.0539 -0.4748  0.1678
  175SOPE   H8S19887   3.388   5.944   9.457  0.8975 -1.3881 -1.3885
  175SOPE   C2919888   3.337   6.115   9.335 -0.4090  0.5276 -0.7760
  175SOPE   H9119889   3.285   6.190   9.396  0.0218  0.5220 -0.3988
  175SOPE  C21019890   3.291   6.101   9.207 -0.2704 -0.4858 -0.3954
  175SOPE  H10119891   3.214   6.171   9.170 -0.9589  0.0228  1.8465
  175SOPE  C21119892   3.326   5.987   9.114 -0.3306 -0.0897 -0.8651
  175SOPE  H11R19893   3.376   5.910   9.177 -0.5840  0.2997 -0.1759
  175SOPE  H11S19894   3.411   6.017   9.049  0.3451 -2.3330 -1.0885
  175SOPE  C21219895   3.215   5.916   9.034 -0.2489 -0.1771  0.0055
  175SOPE  H12R19896   3.115   5.900   9.080  0.6624 -0.6775  1.9153
  175SOPE  H12S19897   3.261   5.819   9.006 -0.9466 -1.0345  1.6877
  175SOPE  C21319898   3.180   6.008   8.902 -0.2212 -0.3750 -0.4281
  175SOPE  H13R19899   3.277   6.041   8.859  0.3787 -3.0138 -1.2970
  175SOPE  H13S19900   3.135   6.107   8.926 -0.6957 -0.3365 -1.4339
  175SOPE  C21419901   3.116   5.931   8.789  1.2928 -0.3602 -0.6326
  175SOPE  H14R19902   3.010   5.905   8.809  0.8629 -0.1062 -2.4369
  175SOPE  H14S19903   3.182   5.847   8.759  1.4095 -0.6196  0.3350
  175SOPE  C21519904   3.096   6.015   8.666 -0.3380  1.0645  0.6932
  175SOPE  H15R19905   3.051   5.952   8.586 -0.3808  0.0668  1.4918
  175SOPE  H15S19906   3.190   6.062   8.631 -0.6295  0.7447 -0.5860
  175SOPE  C21619907   2.992   6.122   8.686 -0.1126 -0.3968 -0.0690
  175SOPE  H16R19908   3.025   6.196   8.763 -1.2919 -0.9290  0.9899
  175SOPE  H16S19909   2.896   6.081   8.724 -0.8503  2.5034  1.4884
  175SOPE  C21719910   2.969   6.205   8.560 -0.0415 -0.6115  0.8948
  175SOPE  H17R19911   2.905   6.142   8.495 -0.3657  0.7622 -0.1741
  175SOPE  H17S19912   3.064   6.216   8.504 -0.0747  0.5005  1.0250
  175SOPE  C21819913   2.894   6.339   8.585 -0.1500  0.6436 -0.9304
  175SOPE  H18R19914   2.898   6.369   8.691 -0.6820  0.1336 -0.7631
  175SOPE  H18S19915   2.789   6.326   8.549 -0.2797  0.1756 -0.4012
  175SOPE  H18T19916   2.938   6.418   8.521  2.0145 -1.5259 -2.2940
  175SOPE   C3319917   3.867   5.573   9.960  0.3428 -0.2224  0.0064
  175SOPE   H3X19918   3.765   5.616   9.971 -0.5361 -2.4514  1.0647
  175SOPE   H3Y19919   3.874   5.487   9.891  1.2992  0.7117 -1.0952
  175SOPE   C3419920   3.940   5.681   9.876  0.1914 -0.4445 -0.0597
  175SOPE   H4X19921   4.045   5.647   9.864 -0.1155 -1.6028  0.3901
  175SOPE   H4Y19922   3.931   5.773   9.938  0.6808 -0.4802  0.0676
  175SOPE   C3519923   3.885   5.690   9.734  0.0881  0.5308  0.3067
  175SOPE   H5X19924   3.774   5.680   9.741  0.2196 -2.3846 -0.4889
  175SOPE   H5Y19925   3.923   5.600   9.680  0.9208 -1.5797  4.0371
  175SOPE   C3619926   3.918   5.819   9.658 -0.5186  0.1521 -0.1318
  175SOPE   H6X19927   4.024   5.841   9.684 -0.7615  0.1404  0.9166
  175SOPE   H6Y19928   3.864   5.904   9.704  0.1629 -0.2475  1.4908
  175SOPE   C3719929   3.897   5.806   9.509  0.3359 -0.1066  0.0175
  175SOPE   H7X19930   3.808   5.746   9.482  0.7252 -0.5474 -0.3165
  175SOPE   H7Y19931   3.983   5.745   9.472  0.0888 -1.3203  1.3519
  175SOPE   C3819932   3.895   5.941   9.434  0.6672 -0.3434  0.0417
  175SOPE   H8X19933   3.988   6.002   9.434 -0.0427  0.7817 -0.7766
  175SOPE   H8Y19934   3.820   6.009   9.479  2.3775  1.1016  0.7939
  175SOPE   C3919935   3.847   5.915   9.294  0.0063  0.3507  1.1517
  175SOPE   H9X19936   3.775   5.831   9.287  1.1428 -0.5794  0.0473
  175SOPE   H9Y19937   3.936   5.874   9.240 -0.5384  0.9946 -0.2895
  175SOPE  C31019938   3.791   6.034   9.212  0.3477 -0.1934 -0.4946
  175SOPE  H10X19939   3.871   6.111   9.202 -0.5075  0.8703  0.5172
  175SOPE  H10Y19940   3.711   6.088   9.266  1.5386  4.1266 -2.6038
  175SOPE  C31119941   3.730   6.000   9.076  0.2908 -0.2336 -0.2254
  175SOPE  H11X19942   3.636   5.941   9.091 -1.2591  2.3129  0.6230
  175SOPE  H11Y19943   3.793   5.930   9.017  0.9059  0.2787 -0.1697
  175SOPE  C31219944   3.695   6.133   9.001 -0.0981  0.7056  0.3210
  175SOPE  H12X19945   3.787   6.193   8.986 -0.0044  0.8898  1.5879
  175SOPE  H12Y19946   3.633   6.194   9.070 -3.2292 -0.3572 -1.3506
  175SOPE  C31319947   3.631   6.110   8.866 -0.2970  0.9211 -0.0419
  175SOPE  H13X19948   3.574   6.015   8.876  0.3827  0.5773  0.6770
  175SOPE  H13Y19949   3.708   6.088   8.788 -3.9319  0.1068 -3.7659
  175SOPE  C31419950   3.544   6.223   8.812 -0.7507 -0.7822 -0.0739
  175SOPE  H14X19951   3.601   6.316   8.790 -2.8265  0.8554  1.0542
  175SOPE  H14Y19952   3.467   6.254   8.885  0.5209  1.2658  0.4949
  175SOPE  C31519953   3.465   6.187   8.676 -0.3892 -0.3983  0.0337
  175SOPE  H15X19954   3.387   6.266   8.664 -0.6292 -0.4849  0.9297
  175SOPE  H15Y19955   3.425   6.086   8.696 -0.5570 -0.2421  0.5118
  175SOPE  C31619956   3.557   6.178   8.555 -0.6877  0.6303  0.1076
  175SOPE  H16X19957   3.638   6.106   8.580 -1.5732 -0.0983  0.9328
  175SOPE  H16Y19958   3.619   6.269   8.544 -1.3948  1.6386  3.5273
  175SOPE  C31719959   3.490   6.128   8.420  0.7934 -0.0403 -0.3328
  175SOPE  H17X19960   3.379   6.125   8.427  0.5965  0.9422 -2.1517
  175SOPE  H17Y19961   3.513   6.023   8.393  0.5858 -0.1782  0.0319
  175SOPE  C31819962   3.518   6.215   8.298 -0.2533 -0.3188  0.2290
  175SOPE  H18X19963   3.628   6.211   8.289 -0.2449 -0.7911  0.4959
  175SOPE  H18Y19964   3.493   6.322   8.315 -2.1825 -0.3821 -1.7254
  175SOPE  H18Z19965   3.475   6.169   8.207  0.7132  0.2086 -0.5118
  176SOPE     N19966   2.100   5.176  10.915 -0.5205  0.0121  0.0625
  176SOPE   HN119967   2.121   5.091  10.971 -0.5193  0.8838  1.4162
  176SOPE   HN219968   2.129   5.262  10.965 -1.4576  0.3517  0.0485
  176SOPE   HN319969   1.997   5.186  10.911 -0.3633  1.9093 -0.2815
  176SOPE   C1219970   2.159   5.151  10.778 -0.0650  0.3501  0.1260
  176SOPE  H12A19971   2.112   5.059  10.738 -0.8235  1.0719 -0.6912
  176SOPE  H12B19972   2.268   5.137  10.796 -0.2210 -0.4098  0.4937
  176SOPE   C1119973   2.132   5.266  10.687  0.4160  0.0312  0.7285
  176SOPE  H11A19974   2.022   5.279  10.678  0.4461 -0.1944 -0.1317
  176SOPE  H11B19975   2.160   5.254  10.580 -1.7373  3.7604 -0.4458
  176SOPE     P19976   2.349   5.419  10.726 -0.3164  0.5466 -0.1331
  176SOPE   O1319977   2.414   5.315  10.813  0.6131 -0.1192 -0.2894
  176SOPE   O1419978   2.370   5.557  10.768  0.1137 -0.8249 -0.2835
  176SOPE   O1219979   2.191   5.384  10.734  0.2733  0.3434 -0.1747
  176SOPE   O1119980   2.385   5.393  10.571 -0.2856  0.3183  0.3661
  176SOPE    C119981   2.326   5.482  10.476  0.2549  0.5252 -0.0353
  176SOPE    HA19982   2.295   5.584  10.508 -2.4120  0.0915 -0.9906
  176SOPE    HB19983   2.234   5.427  10.446 -0.2396  1.1238  0.3635
  176SOPE    C219984   2.423   5.491  10.355 -0.3076  0.0476  1.1051
  176SOPE    HS19985   2.364   5.534  10.271 -0.8353  0.9974  1.9367
  176SOPE   O2119986   2.475   5.366  10.311  0.4426 -0.0244 -0.3710
  176SOPE   C2119987   2.392   5.283  10.255  0.2021  0.7628 -0.0333
  176SOPE   O2219988   2.269   5.301  10.246  0.1884  0.2264 -0.3617
  176SOPE   C2219989   2.456   5.153  10.204 -0.2254  0.4920  0.1091
  176SOPE   H2R19990   2.426   5.072  10.274 -0.5420 -1.0651 -1.7450
  176SOPE   H2S19991   2.564   5.166  10.224  0.0737 -3.4038  1.8058
  176SOPE    C319992   2.539   5.591  10.380  0.3467 -0.2713  0.1070
  176SOPE    HX19993   2.606   5.561  10.463  3.5311  1.2617 -1.6859
  176SOPE    HY19994   2.491   5.685  10.412 -0.6275 -1.4831  2.4548
  176SOPE   O3119995   2.634   5.604  10.267 -0.3628 -0.2156 -0.2764
  176SOPE   C3119996   2.597   5.685  10.180  0.1115  0.1645  0.3166
  176SOPE   O3219997   2.488   5.745  10.176 -0.1420  0.4406 -0.1236
  176SOPE   C3219998   2.707   5.704  10.075  0.0421 -0.7949  0.0756
  176SOPE   H2X19999   2.710   5.606  10.022 -2.2996 -0.9016  0.0651
  176SOPE   H2Y20000   2.791   5.717  10.146 -0.0783 -0.1525  0.1034
  176SOPE   C2320001   2.415   5.100  10.057  0.0019 -0.2911 -0.9925
  176SOPE   H3R20002   2.315   5.132  10.019  0.4533  0.1520 -1.8416
  176SOPE   H3S20003   2.427   4.989  10.051  0.1733 -0.2498 -1.4931
  176SOPE   C2420004   2.504   5.158   9.950  0.7646  0.2225  0.4667
  176SOPE   H4R20005   2.501   5.266   9.978  1.0199  0.0473  1.1877
  176SOPE   H4S20006   2.608   5.121   9.957  0.5373 -0.3116  1.2518
  176SOPE   C2520007   2.442   5.151   9.805  0.6117  0.1367  0.0976
  176SOPE   H5R20008   2.423   5.043   9.789  2.7119 -0.1944 -0.5936
  176SOPE   H5S20009   2.344   5.202   9.810  0.2975 -0.4834  0.2179
  176SOPE   C2620010   2.526   5.213   9.697 -0.8681  0.2065 -0.3290
  176SOPE   H6R20011   2.568   5.310   9.730  0.1603 -0.3880  0.1662
  176SOPE   H6S20012   2.618   5.152   9.682 -0.4851  0.8018 -0.4400
  176SOPE   C2720013   2.447   5.250   9.572  0.1490 -0.3092  0.5680
  176SOPE   H7R20014   2.410   5.155   9.529  1.5744 -1.6906  2.2401
  176SOPE   H7S20015   2.363   5.321   9.584 -0.1853 -0.8944  1.8221
  176SOPE   C2820016   2.551   5.310   9.472  0.4791  0.5797 -0.5269
  176SOPE   H8R20017   2.496   5.363   9.392  2.8414  1.4886 -1.6557
  176SOPE   H8S20018   2.592   5.390   9.538 -1.2709  0.5226  0.6762
  176SOPE   C2920019   2.662   5.216   9.427 -0.2459  0.0026 -0.1246
  176SOPE   H9120020   2.733   5.183   9.505 -0.8606  0.7535  0.7749
  176SOPE  C21020021   2.672   5.163   9.307 -0.6538  0.1631  0.1227
  176SOPE  H10120022   2.745   5.082   9.293 -0.4053  0.4818 -0.4860
  176SOPE  C21120023   2.590   5.192   9.179 -0.2355  0.2958 -0.8753
  176SOPE  H11R20024   2.658   5.173   9.092 -1.4604 -1.4875 -1.5132
  176SOPE  H11S20025   2.540   5.291   9.178 -1.2784 -0.2084 -2.4569
  176SOPE  C21220026   2.470   5.099   9.175  0.2842  0.2266  0.0434
  176SOPE  H12R20027   2.408   5.123   9.264  1.9029  0.0043  1.2723
  176SOPE  H12S20028   2.507   4.995   9.183  0.0683  0.2940  3.5801
  176SOPE  C21320029   2.392   5.093   9.046 -0.1010  0.0460  0.2868
  176SOPE  H13R20030   2.327   5.180   9.024 -0.2503 -0.0597  0.3118
  176SOPE  H13S20031   2.339   4.998   9.026 -0.5101  0.6107 -1.4811
  176SOPE  C21420032   2.487   5.086   8.919 -0.7297 -0.0056 -0.2676
  176SOPE  H14R20033   2.551   4.996   8.936 -1.2643 -0.0538  1.7335
  176SOPE  H14S20034   2.548   5.178   8.911 -0.9695  0.1465 -0.3727
  176SOPE  C21520035   2.412   5.080   8.783 -0.7779  0.2508 -0.0216
  176SOPE  H15R20036   2.337   4.998   8.792 -0.3994 -0.2399 -1.2131
  176SOPE  H15S20037   2.493   5.047   8.716 -1.1812  2.2219 -1.5750
  176SOPE  C21620038   2.367   5.210   8.712 -0.1008  1.0218 -0.0064
  176SOPE  H16R20039   2.290   5.261   8.774 -1.7430 -0.5875 -0.6347
  176SOPE  H16S20040   2.311   5.177   8.622  0.5019 -0.9152  0.2795
  176SOPE  C21720041   2.491   5.295   8.666  0.3678 -0.6072  1.0139
  176SOPE  H17R20042   2.555   5.237   8.596 -1.1000 -1.9313  0.7164
  176SOPE  H17S20043   2.546   5.323   8.758 -0.0196 -0.0268  1.0681
  176SOPE  C21820044   2.437   5.421   8.596 -0.1527 -0.6167  0.1862
  176SOPE  H18R20045   2.360   5.391   8.521 -0.1923  0.1830 -0.0981
  176SOPE  H18S20046   2.502   5.501   8.554 -1.8697  1.3964  1.1503
  176SOPE  H18T20047   2.381   5.474   8.676 -0.7853  0.3763 -0.8796
  176SOPE   C3320048   2.677   5.821   9.974 -0.5694 -0.1122 -0.1876
  176SOPE   H3X20049   2.678   5.916  10.031  1.6760  1.5065 -2.7141
  176SOPE   H3Y20050   2.571   5.812   9.939 -1.3214 -2.4250  2.3107
  176SOPE   C3420051   2.777   5.848   9.859 -0.1193 -0.3904 -0.3527
  176SOPE   H4X20052   2.866   5.900   9.901 -1.2299  0.6605  0.7988
  176SOPE   H4Y20053   2.735   5.930   9.797  0.5025 -0.5947 -1.0603
  176SOPE   C3520054   2.814   5.727   9.774 -0.6088 -0.2772 -0.7983
  176SOPE   H5X20055   2.867   5.662   9.846  0.2091  1.2093  0.0060
  176SOPE   H5Y20056   2.893   5.756   9.702 -2.4574 -0.3185 -2.9700
  176SOPE   C3620057   2.695   5.654   9.708 -0.2536 -0.5454  0.1646
  176SOPE   H6X20058   2.605   5.694   9.760  0.3026  1.1992 -0.1491
  176SOPE   H6Y20059   2.705   5.546   9.731  1.3423 -1.1358 -2.8093
  176SOPE   C3720060   2.682   5.684   9.555  0.7157  0.3179  0.5749
  176SOPE   H7X20061   2.659   5.589   9.503 -0.5200  0.1377  1.4148
  176SOPE   H7Y20062   2.778   5.716   9.509  1.2211 -2.3127 -0.3878
  176SOPE   C3820063   2.573   5.788   9.519  0.0014  0.2899 -0.0068
  176SOPE   H8X20064   2.596   5.887   9.564 -0.2225  0.3386  0.0019
  176SOPE   H8Y20065   2.475   5.752   9.556  1.1049 -1.2080  1.6264
  176SOPE   C3920066   2.538   5.803   9.368 -0.2154 -0.5809  0.2743
  176SOPE   H9X20067   2.633   5.813   9.312  0.8707 -0.8585  1.9933
  176SOPE   H9Y20068   2.482   5.898   9.356 -1.4480 -1.1319  1.4697
  176SOPE  C31020069   2.458   5.683   9.314 -0.5591 -0.2803 -0.3136
  176SOPE  H10X20070   2.367   5.681   9.377  0.1220 -1.0563  0.6856
  176SOPE  H10Y20071   2.526   5.596   9.330 -0.3098 -0.3523 -1.6568
  176SOPE  C31120072   2.409   5.691   9.171 -0.2557 -0.1423 -0.0094
  176SOPE  H11X20073   2.492   5.707   9.099  0.0143 -3.8040 -0.6782
  176SOPE  H11Y20074   2.351   5.783   9.151  0.9497  0.5068 -0.6414
  176SOPE  C31220075   2.325   5.571   9.134 -0.0586  0.9141 -0.2215
  176SOPE  H12X20076   2.239   5.582   9.204  1.9035 -1.9842  2.9392
  176SOPE  H12Y20077   2.383   5.480   9.159  0.8846  1.4457 -0.4247
  176SOPE  C31320078   2.262   5.565   8.995 -0.1327  0.1071 -0.4595
  176SOPE  H13X20079   2.205   5.472   8.976  0.5597 -0.4163 -0.0274
  176SOPE  H13Y20080   2.344   5.556   8.921 -0.1090  1.8364 -0.6906
  176SOPE  C31420081   2.182   5.684   8.959  0.0641  0.2583  0.1875
  176SOPE  H14X20082   2.244   5.774   8.976  0.9984 -0.5543  1.2811
  176SOPE  H14Y20083   2.093   5.679   9.026 -1.0486 -2.3195 -1.3483
  176SOPE  C31520084   2.138   5.683   8.803 -0.2495 -0.0647  0.3961
  176SOPE  H15X20085   2.235   5.673   8.751  1.8401  1.8610  3.5342
  176SOPE  H15Y20086   2.091   5.778   8.769 -1.2720 -0.2191  1.3138
  176SOPE  C31620087   2.043   5.571   8.786  0.2716 -0.3614 -0.0933
  176SOPE  H16X20088   1.944   5.607   8.821  0.9734 -0.0360  1.6672
  176SOPE  H16Y20089   2.071   5.478   8.840 -0.9520 -0.8836 -0.3178
  176SOPE  C31720090   2.030   5.536   8.635 -0.8342  0.5031  0.6696
  176SOPE  H17X20091   2.137   5.540   8.605 -0.8613 -1.5430  0.1465
  176SOPE  H17Y20092   1.975   5.613   8.577  0.6515  1.1350  0.0274
  176SOPE  C31820093   1.970   5.397   8.605 -0.2792  0.1713 -0.1022
  176SOPE  H18X20094   1.915   5.353   8.691 -1.6333 -0.9175 -1.4761
  176SOPE  H18Y20095   2.045   5.323   8.571 -1.4226 -0.7589 -0.6659
  176SOPE  H18Z20096   1.889   5.411   8.530 -0.2687 -1.4751 -0.4403
  177SOPE     N20097   2.683   2.947  11.202 -0.5570  0.6569 -0.2580
  177SOPE   HN120098   2.750   2.908  11.272 -2.0695  0.1547  0.9752
  177SOPE   HN220099   2.597   2.889  11.207  0.3882 -0.7185  3.4992
  177SOPE   HN320100   2.723   2.934  11.107  0.8427  0.4680  0.3239
  177SOPE   C1220101   2.652   3.091  11.224 -0.6527  0.9061  0.4582
  177SOPE  H12A20102   2.752   3.139  11.235 -0.3921 -0.0009  2.6946
  177SOPE  H12B20103   2.596   3.097  11.320 -2.3659 -1.0714 -0.3542
  177SOPE   C1120104   2.572   3.154  11.112 -0.2222  0.8802  0.5324
  177SOPE  H11A20105   2.625   3.133  11.016 -0.8784 -1.5197  0.6474
  177SOPE  H11B20106   2.567   3.264  11.128 -0.5454  1.7691 -4.0628
  177SOPE     P20107   2.383   3.002  10.989  0.4423  0.3716 -0.3937
  177SOPE   O1320108   2.236   3.008  10.985 -0.3974 -0.7191  0.1687
  177SOPE   O1420109   2.443   2.869  11.017 -0.0055 -0.0995 -0.3586
  177SOPE   O1220110   2.438   3.101  11.104 -0.0823  0.3099 -0.1664
  177SOPE   O1120111   2.432   3.057  10.850  0.0413  0.8783 -0.3476
  177SOPE    C120112   2.540   3.014  10.767  0.4405 -0.6435 -0.3131
  177SOPE    HA20113   2.554   2.905  10.779  0.6217 -0.4998  0.8371
  177SOPE    HB20114   2.629   3.074  10.796  0.4131 -0.6963 -0.1214
  177SOPE    C220115   2.516   3.021  10.612 -0.1636 -0.3205  0.0031
  177SOPE    HS20116   2.489   3.125  10.582  3.5000  0.4090 -1.2481
  177SOPE   O2120117   2.427   2.918  10.564 -0.7213  0.2064  0.3079
  177SOPE   C2120118   2.295   2.944  10.586  0.4470 -0.1340 -0.5777
  177SOPE   O2220119   2.245   3.050  10.620  0.1500  0.2724 -0.4517
  177SOPE   C2220120   2.213   2.819  10.556  0.2680  0.6681 -0.4430
  177SOPE   H2R20121   2.145   2.791  10.639 -1.2201 -1.0241 -2.1177
  177SOPE   H2S20122   2.277   2.731  10.532 -1.8100 -2.3160  3.7782
  177SOPE    C320123   2.651   3.002  10.539  0.0123 -0.3142  0.2525
  177SOPE    HX20124   2.708   2.915  10.577  1.2986  1.5435  2.9127
  177SOPE    HY20125   2.712   3.092  10.564 -0.1314 -0.4053  0.9742
  177SOPE   O3120126   2.631   2.995  10.392  0.3908  0.3684 -0.3953
  177SOPE   C3120127   2.645   2.875  10.339 -0.2222  0.0436  0.3299
  177SOPE   O3220128   2.677   2.771  10.396 -0.1240 -1.3474 -0.2739
  177SOPE   C3220129   2.614   2.883  10.191  0.2208 -0.1060 -0.0479
  177SOPE   H2X20130   2.632   2.988  10.159 -1.5321 -0.1995 -1.4558
  177SOPE   H2Y20131   2.506   2.857  10.193  0.2357 -0.1361  0.7406
  177SOPE   C2320132   2.112   2.845  10.444  0.5290 -0.3414  0.4512
  177SOPE   H3R20133   2.071   2.948  10.451  3.0608  0.6650  1.9687
  177SOPE   H3S20134   2.026   2.775  10.443  0.4038 -0.1885 -0.0665
  177SOPE   C2420135   2.179   2.838  10.307  0.4054 -0.1777  0.4739
  177SOPE   H4R20136   2.271   2.897  10.291  2.0399 -2.2618  1.7374
  177SOPE   H4S20137   2.213   2.732  10.305  2.9117  0.5807  0.5511
  177SOPE   C2520138   2.082   2.857  10.195  0.1098  0.3176  0.6134
  177SOPE   H5R20139   1.998   2.784  10.197  1.9270 -1.8576  2.0533
  177SOPE   H5S20140   2.041   2.961  10.193 -0.2195  0.1781 -0.9896
  177SOPE   C2620141   2.159   2.829  10.064  0.2252 -0.5552  0.6949
  177SOPE   H6R20142   2.238   2.907  10.061 -0.6180  0.4373  2.5974
  177SOPE   H6S20143   2.204   2.728  10.066  2.4237  0.1935 -2.6204
  177SOPE   C2720144   2.071   2.851   9.939  0.1489 -0.7589 -0.1932
  177SOPE   H7R20145   2.028   2.754   9.907 -1.0251 -1.0672  2.1543
  177SOPE   H7S20146   1.977   2.901   9.970 -0.5709 -1.9743 -0.3430
  177SOPE   C2820147   2.125   2.948   9.830 -0.3301 -0.1009 -0.4702
  177SOPE   H8R20148   2.038   2.974   9.767  1.3329  1.8673 -2.1123
  177SOPE   H8S20149   2.152   3.039   9.889 -2.9842 -0.7871  2.0520
  177SOPE   C2920150   2.245   2.888   9.755 -0.2325 -0.2378  0.3323
  177SOPE   H9120151   2.328   2.896   9.827 -1.6391 -0.2948  2.0472
  177SOPE  C21020152   2.250   2.828   9.636  0.2955 -0.4435 -0.0563
  177SOPE  H10120153   2.350   2.813   9.593  0.2756  1.9326 -1.1155
  177SOPE  C21120154   2.140   2.804   9.533  0.4645 -0.2942  0.3861
  177SOPE  H11R20155   2.041   2.853   9.547 -0.1749 -1.1883 -0.9198
  177SOPE  H11S20156   2.122   2.695   9.535  0.6109 -0.3385  2.6489
  177SOPE  C21220157   2.178   2.853   9.389 -0.3459  0.4713  0.2929
  177SOPE  H12R20158   2.276   2.803   9.373 -0.6008  0.3920 -1.1858
  177SOPE  H12S20159   2.176   2.963   9.376 -2.6144  0.7575  2.3692
  177SOPE  C21320160   2.089   2.804   9.281 -0.0132 -0.8925 -0.5634
  177SOPE  H13R20161   1.989   2.849   9.298 -0.3843 -1.3392 -1.4784
  177SOPE  H13S20162   2.061   2.697   9.291  1.1378 -1.0903  0.9500
  177SOPE  C21420163   2.146   2.831   9.143  0.5011 -0.2165 -0.4332
  177SOPE  H14R20164   2.228   2.906   9.140 -0.1993  0.5601 -0.5222
  177SOPE  H14S20165   2.062   2.874   9.086  0.9505  2.8039  0.9671
  177SOPE  C21520166   2.205   2.698   9.080 -0.4118 -0.1181  0.9466
  177SOPE  H15R20167   2.152   2.601   9.094  0.4055 -0.8963 -0.9424
  177SOPE  H15S20168   2.308   2.677   9.116  0.8463  0.8877 -1.8096
  177SOPE  C21620169   2.227   2.706   8.926 -0.7564 -0.9797 -0.4154
  177SOPE  H16R20170   2.127   2.732   8.885  0.2021  1.7968 -1.2102
  177SOPE  H16S20171   2.253   2.607   8.883 -0.4011 -0.2353 -1.9923
  177SOPE  C21720172   2.320   2.817   8.872 -0.1290  0.5583 -0.3391
  177SOPE  H17R20173   2.418   2.802   8.922 -0.4895 -3.0176 -0.4113
  177SOPE  H17S20174   2.283   2.916   8.906  0.1190  0.0859  1.4062
  177SOPE  C21820175   2.335   2.799   8.721  0.5078 -0.0794  0.7076
  177SOPE  H18R20176   2.356   2.692   8.698  0.0693 -0.2881  1.2550
  177SOPE  H18S20177   2.416   2.860   8.676 -0.2963  0.2937 -0.2865
  177SOPE  H18T20178   2.240   2.835   8.677  0.5524  0.8747  1.3616
  177SOPE   C3320179   2.698   2.782  10.106 -0.0225  0.2299 -0.1931
  177SOPE   H3X20180   2.669   2.676  10.121 -1.2394  0.6882  0.8160
  177SOPE   H3Y20181   2.806   2.792  10.132 -0.3926  3.2392  0.5157
  177SOPE   C3420182   2.671   2.813   9.958  0.1335 -0.3989 -0.1153
  177SOPE   H4X20183   2.712   2.915   9.942  1.0703 -0.5018  1.5120
  177SOPE   H4Y20184   2.564   2.816   9.927  0.1260 -0.6481 -0.1202
  177SOPE   C3520185   2.741   2.706   9.870 -0.4035 -0.0271  0.6520
  177SOPE   H5X20186   2.672   2.619   9.871 -1.2811  0.6545  1.3283
  177SOPE   H5Y20187   2.835   2.678   9.922 -0.0568 -0.7858 -0.3393
  177SOPE   C3620188   2.757   2.745   9.722  0.1342 -0.3255 -0.2252
  177SOPE   H6X20189   2.805   2.845   9.720  0.3851 -0.2705  3.0242
  177SOPE   H6Y20190   2.659   2.754   9.670  1.3370  1.0611 -2.4087
  177SOPE   C3720191   2.826   2.639   9.640  0.9716  0.3445 -0.5667
  177SOPE   H7X20192   2.814   2.533   9.669  0.2448 -0.2095 -2.7440
  177SOPE   H7Y20193   2.933   2.654   9.666  0.5938  0.3394  1.1266
  177SOPE   C3820194   2.818   2.648   9.489  0.2315  0.1870  0.0581
  177SOPE   H8X20195   2.829   2.759   9.488 -0.6755  0.3925  2.6965
  177SOPE   H8Y20196   2.719   2.616   9.449  1.4378 -0.1328 -2.8839
  177SOPE   C3920197   2.928   2.570   9.414 -0.3061  0.4305 -0.1626
  177SOPE   H9X20198   2.922   2.461   9.439 -0.0034  0.5880  0.6356
  177SOPE   H9Y20199   3.022   2.599   9.467 -0.7523 -0.8688  1.4291
  177SOPE  C31020200   2.931   2.580   9.255 -0.1982 -0.3818  0.1651
  177SOPE  H10X20201   3.024   2.533   9.218 -0.6949 -1.6462  0.4551
  177SOPE  H10Y20202   2.934   2.686   9.222 -0.4253 -0.3030  0.3915
  177SOPE  C31120203   2.825   2.502   9.186  0.0824 -1.1581  0.7347
  177SOPE  H11X20204   2.723   2.525   9.223  0.5217  0.9177  0.7388
  177SOPE  H11Y20205   2.838   2.395   9.215 -1.1108 -1.6384 -0.4356
  177SOPE  C31220206   2.824   2.518   9.026  0.3174 -0.4233 -0.9522
  177SOPE  H12X20207   2.914   2.465   8.989  0.7318 -0.1482 -0.3452
  177SOPE  H12Y20208   2.841   2.623   8.993  2.8622  1.2009  4.3693
  177SOPE  C31320209   2.694   2.461   8.963  0.0022  0.4375 -0.6631
  177SOPE  H13X20210   2.675   2.500   8.861  0.8690  1.2332 -0.5293
  177SOPE  H13Y20211   2.612   2.504   9.024  0.7437  1.7354 -0.5561
  177SOPE  C31420212   2.674   2.309   8.970 -0.3408 -0.7675 -0.0024
  177SOPE  H14X20213   2.564   2.293   8.969 -0.3888 -0.5737  1.0187
  177SOPE  H14Y20214   2.713   2.252   9.056 -1.1687 -3.4675 -1.3183
  177SOPE  C31520215   2.727   2.242   8.844 -0.4080  0.0083 -0.2342
  177SOPE  H15X20216   2.837   2.256   8.840 -0.2002 -1.5582 -0.5352
  177SOPE  H15Y20217   2.669   2.280   8.756 -1.6699  0.3481  0.7072
  177SOPE  C31620218   2.707   2.086   8.833 -0.7704  0.4931 -0.7849
  177SOPE  H16X20219   2.601   2.064   8.858 -0.2054 -0.9320  0.5226
  177SOPE  H16Y20220   2.771   2.028   8.903  0.1038  0.6430 -1.4496
  177SOPE  C31720221   2.728   2.035   8.689 -0.1639  0.2536 -0.1660
  177SOPE  H17X20222   2.836   2.041   8.662 -0.1763 -0.8489 -0.5303
  177SOPE  H17Y20223   2.689   2.104   8.611  0.1773  0.8806  0.2106
  177SOPE  C31820224   2.670   1.893   8.655 -0.7291  0.1334  0.0580
  177SOPE  H18X20225   2.571   1.882   8.703 -1.2565  0.3243 -0.9777
  177SOPE  H18Y20226   2.734   1.809   8.692 -1.6288 -0.6298 -0.0954
  177SOPE  H18Z20227   2.640   1.883   8.549  0.3776  0.0988 -0.2646
  178SOPE     N20228   6.390   2.303  10.739 -0.2542  0.2621  0.0132
  178SOPE   HN120229   6.452   2.386  10.750  1.4951 -0.9239 -0.4384
  178SOPE   HN220230   6.457   2.235  10.697  0.1875 -0.3697  1.6429
  178SOPE   HN320231   6.310   2.318  10.675 -1.1488 -1.8453  0.5320
  178SOPE   C1220232   6.335   2.255  10.876 -0.2335  0.1091 -0.6291
  178SOPE  H12A20233   6.254   2.325  10.907 -0.4549 -0.0665 -0.8026
  178SOPE  H12B20234   6.422   2.248  10.944 -0.9048  0.5375  0.2931
  178SOPE   C1120235   6.278   2.113  10.869  0.0688  0.1522 -0.3255
  178SOPE  H11A20236   6.188   2.125  10.806  0.3819  1.3549 -0.5584
  178SOPE  H11B20237   6.233   2.085  10.967  1.0013  2.0164  0.6814
  178SOPE     P20238   6.494   1.974  10.865 -0.3172 -0.3108  0.4202
  178SOPE   O1320239   6.517   1.833  10.817  0.1504 -0.5031  0.1299
  178SOPE   O1420240   6.505   2.007  11.006 -0.2366 -0.3171  0.2834
  178SOPE   O1220241   6.356   2.007  10.808  0.0954 -0.1201 -0.1903
  178SOPE   O1120242   6.582   2.079  10.794  0.2906 -0.0492 -0.3197
  178SOPE    C120243   6.711   2.058  10.745 -0.3365 -0.3487  0.3322
  178SOPE    HA20244   6.747   1.955  10.767  1.8724  0.3757  0.3184
  178SOPE    HB20245   6.786   2.128  10.786 -0.4012  0.4309 -0.8661
  178SOPE    C220246   6.722   2.062  10.586 -0.1182 -0.4651 -1.0702
  178SOPE    HS20247   6.719   2.167  10.549  1.3209 -0.7867 -2.1382
  178SOPE   O2120248   6.631   1.973  10.525  0.6890  0.4906  0.0000
  178SOPE   C2120249   6.511   2.023  10.511  0.3720  0.1571  0.0126
  178SOPE   O2220250   6.474   2.140  10.523 -0.4115  0.1515 -0.7637
  178SOPE   C2220251   6.420   1.910  10.462  0.0666 -0.2465  0.0434
  178SOPE   H2R20252   6.414   1.836  10.545 -0.5101 -2.2351 -1.6556
  178SOPE   H2S20253   6.467   1.848  10.383  1.5399  0.6531  0.1746
  178SOPE    C320254   6.869   2.021  10.551  0.6362 -0.4468  0.2092
  178SOPE    HX20255   6.888   1.919  10.589  0.7151 -1.1864 -1.6893
  178SOPE    HY20256   6.930   2.095  10.607 -0.2338  1.1519 -0.8570
  178SOPE   O3120257   6.876   2.018  10.406 -0.1365  0.0729  0.1787
  178SOPE   C3120258   7.002   2.005  10.366  0.4368  1.1060 -0.1119
  178SOPE   O3220259   7.099   2.014  10.436  0.0552  0.4605 -0.0585
  178SOPE   C3220260   7.019   1.997  10.211 -0.1588 -0.0240 -0.3490
  178SOPE   H2X20261   7.124   1.962  10.197 -0.1128 -0.7377  1.4746
  178SOPE   H2Y20262   7.014   2.103  10.179 -1.4164 -0.0874 -0.4339
  178SOPE   C2320263   6.290   1.958  10.411  0.7004 -0.3661  0.8942
  178SOPE   H3R20264   6.258   2.038  10.481 -0.5542 -1.9709  2.2285
  178SOPE   H3S20265   6.221   1.872  10.419  0.5864 -0.5886 -1.6133
  178SOPE   C2420266   6.284   2.025  10.263  0.4080 -0.3797 -0.0508
  178SOPE   H4R20267   6.362   2.102  10.251 -1.0753  1.0600 -0.9279
  178SOPE   H4S20268   6.315   1.947  10.190  0.4182  0.6034 -1.1272
  178SOPE   C2520269   6.154   2.098  10.229 -0.3131 -0.5633 -0.0999
  178SOPE   H5R20270   6.070   2.027  10.245 -2.1622  1.7687  1.2089
  178SOPE   H5S20271   6.138   2.186  10.294 -0.7159 -2.2593  2.1981
  178SOPE   C2620272   6.150   2.136  10.086  0.0883 -0.3514 -0.0011
  178SOPE   H6R20273   6.195   2.232  10.056  0.2939 -0.2307  0.6922
  178SOPE   H6S20274   6.193   2.055  10.023  0.3792 -0.3925  0.2529
  178SOPE   C2720275   6.006   2.159  10.040  0.9526  0.0601  0.2463
  178SOPE   H7R20276   5.948   2.216  10.116  0.9868 -1.2115  1.2431
  178SOPE   H7S20277   6.005   2.227   9.952  1.3461 -0.1976  0.0440
  178SOPE   C2820278   5.928   2.024  10.013 -0.2069  0.0182 -0.1484
  178SOPE   H8R20279   5.984   1.972   9.933 -0.0913  1.9878 -1.4181
  178SOPE   H8S20280   5.947   1.966  10.106 -0.1165  2.0517  1.1823
  178SOPE   C2920281   5.788   2.046   9.975  0.6607  0.6641 -0.1110
  178SOPE   H9120282   5.727   2.110  10.042 -3.3551  1.8127 -4.3288
  178SOPE  C21020283   5.728   1.987   9.870  0.4346  0.4305 -0.5833
  178SOPE  H10120284   5.622   2.011   9.854  0.0957 -0.8082 -0.3107
  178SOPE  C21120285   5.792   1.898   9.773  0.3511 -0.2234  0.4777
  178SOPE  H11R20286   5.731   1.806   9.772 -0.9012  0.5858 -0.3522
  178SOPE  H11S20287   5.897   1.869   9.795  0.8283  0.9361 -0.1486
  178SOPE  C21220288   5.795   1.946   9.624 -0.0444 -0.7257  0.6111
  178SOPE  H12R20289   5.846   1.873   9.558  1.9628  0.1201  1.1625
  178SOPE  H12S20290   5.859   2.037   9.628 -1.2805  0.1392  1.7349
  178SOPE  C21320291   5.653   1.954   9.561 -1.1942 -0.7341 -0.2064
  178SOPE  H13R20292   5.604   2.043   9.605  1.1965  1.0883 -1.0160
  178SOPE  H13S20293   5.600   1.860   9.586  1.1671 -1.9841  0.3920
  178SOPE  C21420294   5.666   1.970   9.407 -0.6316  0.0460  0.9640
  178SOPE  H14R20295   5.569   1.979   9.355  0.7791  3.0885 -1.4691
  178SOPE  H14S20296   5.716   1.878   9.369 -1.1718  0.5273 -1.0537
  178SOPE  C21520297   5.745   2.093   9.366  1.1470  0.1182  0.2226
  178SOPE  H15R20298   5.838   2.096   9.427  1.8924  0.2521 -0.8735
  178SOPE  H15S20299   5.699   2.186   9.405  1.7554  0.2239  0.7083
  178SOPE  C21620300   5.788   2.095   9.218  0.2168  0.9187 -0.6979
  178SOPE  H16R20301   5.693   2.114   9.162 -0.6125  2.1371  1.0501
  178SOPE  H16S20302   5.819   1.995   9.181  3.0712  0.3980  2.5777
  178SOPE  C21720303   5.906   2.189   9.191 -0.2313  0.0855  0.3058
  178SOPE  H17R20304   5.943   2.197   9.086  0.3587 -0.1414  0.4911
  178SOPE  H17S20305   6.000   2.146   9.232 -0.5971 -2.1271 -1.0362
  178SOPE  C21820306   5.879   2.326   9.258 -0.8854  0.1238 -0.3729
  178SOPE  H18R20307   5.954   2.403   9.233  0.3670 -0.8853  0.1762
  178SOPE  H18S20308   5.870   2.327   9.369  1.7351 -1.7670 -0.0693
  178SOPE  H18T20309   5.786   2.361   9.208 -1.7511  1.7401  2.1847
  178SOPE   C3320310   6.911   1.913  10.146 -0.7946  0.2329  0.0937
  178SOPE   H3X20311   6.805   1.944  10.165 -0.7275  1.6249 -1.5957
  178SOPE   H3Y20312   6.920   1.806  10.173 -0.4899 -0.7238 -3.3494
  178SOPE   C3420313   6.950   1.915   9.993  0.0270 -0.3807  0.1702
  178SOPE   H4X20314   7.059   1.892   9.985  0.7771  2.7244  0.3735
  178SOPE   H4Y20315   6.927   2.017   9.955  0.5000 -0.5901 -0.7092
  178SOPE   C3520316   6.880   1.808   9.902 -0.6685 -0.0450  0.3365
  178SOPE   H5X20317   6.769   1.810   9.902 -0.7767 -1.3483 -2.3473
  178SOPE   H5Y20318   6.896   1.702   9.929 -2.3745 -0.6513 -0.8912
  178SOPE   C3620319   6.923   1.825   9.753  0.4095 -0.2099  0.6804
  178SOPE   H6X20320   7.027   1.790   9.734  1.0900  2.5894 -1.4668
  178SOPE   H6Y20321   6.927   1.934   9.733  0.2619 -0.4004 -0.4638
  178SOPE   C3720322   6.829   1.769   9.650  0.3575 -0.2774 -0.6365
  178SOPE   H7X20323   6.729   1.814   9.638 -0.7028 -1.5209  2.6205
  178SOPE   H7Y20324   6.810   1.661   9.667 -2.5219  0.4894  1.8480
  178SOPE   C3820325   6.892   1.786   9.511 -0.0012  0.1677 -0.3330
  178SOPE   H8X20326   6.990   1.737   9.491  0.4919  0.5581  1.0359
  178SOPE   H8Y20327   6.907   1.895   9.496 -0.2499  0.0331 -1.6750
  178SOPE   C3920328   6.796   1.736   9.402 -0.5750 -1.0538  0.3708
  178SOPE   H9X20329   6.711   1.808   9.405  1.8204  1.9593  0.7163
  178SOPE   H9Y20330   6.763   1.632   9.421 -2.1306 -0.9937 -1.6010
  178SOPE  C31020331   6.856   1.739   9.261 -0.2265 -0.3990 -0.0883
  178SOPE  H10X20332   6.891   1.840   9.230  0.5699 -0.7087 -0.2241
  178SOPE  H10Y20333   6.778   1.695   9.195 -1.1045 -0.9789  1.2848
  178SOPE  C31120334   6.985   1.654   9.248 -0.0471 -0.5219  0.8291
  178SOPE  H11X20335   6.977   1.558   9.303  2.8663 -2.4635 -1.7485
  178SOPE  H11Y20336   7.078   1.706   9.280  0.5322 -1.1843  0.2684
  178SOPE  C31220337   7.004   1.619   9.095 -0.2784 -0.5044  0.1392
  178SOPE  H12X20338   6.922   1.562   9.048 -0.3260 -1.0360  0.8525
  178SOPE  H12Y20339   7.093   1.553   9.093 -1.2566 -1.8488 -2.0181
  178SOPE  C31320340   7.027   1.744   9.010  0.0988 -0.3666  1.0695
  178SOPE  H13X20341   7.113   1.797   9.057  0.9673 -1.4044  0.6925
  178SOPE  H13Y20342   6.937   1.805   8.987 -1.2020 -2.8904 -1.0191
  178SOPE  C31420343   7.046   1.711   8.852 -0.5548 -1.1068 -0.5548
  178SOPE  H14X20344   7.146   1.665   8.837 -0.6125 -1.4957  0.2178
  178SOPE  H14Y20345   7.048   1.811   8.803  0.2069 -1.3733 -1.1037
  178SOPE  C31520346   6.943   1.630   8.786  0.2880  0.3632 -0.0031
  178SOPE  H15X20347   6.843   1.676   8.802  0.5581  0.3524  1.9972
  178SOPE  H15Y20348   6.943   1.525   8.822 -0.4622 -0.1489 -1.4002
  178SOPE  C31620349   6.962   1.623   8.626  0.4998 -0.0056 -0.1201
  178SOPE  H16X20350   7.059   1.572   8.611 -0.4802 -2.1175  0.4265
  178SOPE  H16Y20351   6.966   1.725   8.580 -4.8340  0.1464 -0.9106
  178SOPE  C31720352   6.851   1.543   8.552  0.6796  0.1848  0.0235
  178SOPE  H17X20353   6.754   1.591   8.574 -0.1124 -0.8309 -1.1082
  178SOPE  H17Y20354   6.840   1.447   8.606  0.0014 -0.4527 -1.1957
  178SOPE  C31820355   6.853   1.532   8.399  0.6595  0.7466 -0.0730
  178SOPE  H18X20356   6.861   1.624   8.338  3.3174 -0.3271 -1.4978
  178SOPE  H18Y20357   6.759   1.479   8.375  0.5992  0.5227  0.6419
  178SOPE  H18Z20358   6.935   1.465   8.367 -0.0416 -0.5333  0.7342
  179SOPE     N20359   3.039   4.313   6.296 -0.1068 -0.0314 -0.6194
  179SOPE   HN120360   3.126   4.344   6.247 -0.4562  1.2343 -0.4756
  179SOPE   HN220361   3.025   4.210   6.288 -0.1700 -0.1298  0.5682
  179SOPE   HN320362   2.961   4.376   6.271 -0.3556  0.6218  1.5999
  179SOPE   C1220363   3.068   4.341   6.441  0.0763 -0.3884  0.7958
  179SOPE  H12A20364   2.976   4.315   6.500 -0.7701  1.5111  0.3858
  179SOPE  H12B20365   3.096   4.448   6.456  0.6765  0.0192 -2.6213
  179SOPE   C1120366   3.188   4.270   6.486  0.0770 -0.0599 -0.1414
  179SOPE  H11A20367   3.215   4.291   6.592  0.6388 -0.8065 -0.1212
  179SOPE  H11B20368   3.275   4.310   6.429 -0.4447  2.7265  0.8671
  179SOPE     P20369   3.300   4.034   6.506  0.0089  0.3284  0.1716
  179SOPE   O1320370   3.409   4.104   6.431 -0.7363 -0.4759 -0.5000
  179SOPE   O1420371   3.270   3.890   6.462 -0.0456 -0.3008 -0.4748
  179SOPE   O1220372   3.170   4.126   6.478  0.1464 -0.3409  0.0719
  179SOPE   O1120373   3.321   4.037   6.663 -0.0776 -0.2270 -0.7309
  179SOPE    C120374   3.200   4.020   6.742 -0.6698  0.4098 -0.2518
  179SOPE    HA20375   3.116   3.979   6.682  0.0006 -1.9249  0.3350
  179SOPE    HB20376   3.175   4.120   6.785  1.1425  0.1303  1.5561
  179SOPE    C220377   3.215   3.931   6.871 -0.0697 -0.3032 -0.1708
  179SOPE    HS20378   3.111   3.919   6.905 -1.0472  2.5947 -1.8096
  179SOPE   O2120379   3.297   4.006   6.955  0.2807  0.5402  0.1286
  179SOPE   C2120380   3.283   3.997   7.086 -0.5738 -0.1300 -0.4948
  179SOPE   O2220381   3.188   3.948   7.138 -0.6648 -0.2510  0.2686
  179SOPE   C2220382   3.395   4.068   7.153 -0.6335 -1.4226  0.1742
  179SOPE   H2R20383   3.350   4.147   7.217  2.6143 -1.6033  2.9591
  179SOPE   H2S20384   3.463   4.104   7.072 -0.6340 -2.7675 -0.4534
  179SOPE    C320385   3.285   3.792   6.852 -0.8670  0.0799 -0.1672
  179SOPE    HX20386   3.387   3.811   6.814 -0.7848 -2.0440 -1.1320
  179SOPE    HY20387   3.237   3.733   6.771 -0.1569 -0.2285 -0.3690
  179SOPE   O3120388   3.305   3.716   6.979  0.0029 -0.2847  0.4551
  179SOPE   C3120389   3.195   3.655   7.010 -0.2948 -0.3926  0.3624
  179SOPE   O3220390   3.090   3.663   6.950  0.0283 -0.1504 -0.0935
  179SOPE   C3220391   3.221   3.583   7.144  0.3501  0.2806 -0.4156
  179SOPE   H2X20392   3.316   3.526   7.140  1.0496  1.2489  1.5031
  179SOPE   H2Y20393   3.141   3.508   7.162  0.0711  0.7229  0.1963
  179SOPE   C2320394   3.480   3.984   7.246  0.1546 -0.0683 -0.2154
  179SOPE   H3R20395   3.416   3.951   7.331  2.1577  1.0592  1.8527
  179SOPE   H3S20396   3.552   4.053   7.295 -0.6792  0.5876  0.0952
  179SOPE   C2420397   3.566   3.869   7.187 -0.2094  0.7162 -0.3593
  179SOPE   H4R20398   3.502   3.813   7.115 -2.2097  1.7978  0.4852
  179SOPE   H4S20399   3.649   3.916   7.130  0.6329 -0.8747 -0.5021
  179SOPE   C2520400   3.640   3.783   7.294  0.3779  0.5170  0.0368
  179SOPE   H5R20401   3.565   3.704   7.313  0.5055  0.7731  1.7715
  179SOPE   H5S20402   3.729   3.735   7.247 -1.0824 -0.1489 -2.2222
  179SOPE   C2620403   3.693   3.858   7.414 -0.0637  0.2549  0.2848
  179SOPE   H6R20404   3.759   3.939   7.378 -1.4456  1.3164  0.0653
  179SOPE   H6S20405   3.616   3.910   7.475  0.5828  2.2287 -0.5201
  179SOPE   C2720406   3.778   3.762   7.500 -0.4322  0.5571  0.3820
  179SOPE   H7R20407   3.718   3.676   7.536 -0.9685  1.4857  1.7941
  179SOPE   H7S20408   3.857   3.722   7.432  0.5161  0.4871  1.4919
  179SOPE   C2820409   3.866   3.835   7.601 -0.0507  0.4087 -0.0928
  179SOPE   H8R20410   3.917   3.920   7.551 -0.8769  0.1324 -1.4376
  179SOPE   H8S20411   3.803   3.885   7.677  0.3945 -0.7068  1.0480
  179SOPE   C2920412   3.961   3.736   7.668 -0.3725  0.1976 -0.8053
  179SOPE   H9120413   4.041   3.692   7.607 -0.0813  0.6087 -0.7196
  179SOPE  C21020414   3.959   3.697   7.802 -0.2437 -0.2140  0.1010
  179SOPE  H10120415   4.029   3.618   7.834 -1.8567 -1.3185  1.0313
  179SOPE  C21120416   3.865   3.753   7.910  1.0210  0.8769  0.2813
  179SOPE  H11R20417   3.794   3.670   7.935  0.7004  1.1616  0.3318
  179SOPE  H11S20418   3.791   3.816   7.856 -0.8570 -2.0364 -0.8232
  179SOPE  C21220419   3.942   3.819   8.017 -0.3169  0.3284  0.3583
  179SOPE  H12R20420   4.028   3.874   7.976 -2.1332  2.5170 -0.7263
  179SOPE  H12S20421   3.963   3.740   8.093 -2.7906  0.1232  0.9405
  179SOPE  C21320422   3.871   3.925   8.100 -0.1070 -0.0886 -0.5399
  179SOPE  H13R20423   3.779   3.884   8.147  1.0039 -2.1131 -0.0445
  179SOPE  H13S20424   3.841   3.999   8.022  1.0595 -0.8763 -1.7741
  179SOPE  C21420425   3.962   4.000   8.204 -0.0066 -0.4446 -0.1531
  179SOPE  H14R20426   4.058   4.032   8.159  0.4570  0.8147  1.6081
  179SOPE  H14S20427   3.995   3.932   8.286  1.3917 -1.4064 -1.4651
  179SOPE  C21520428   3.883   4.113   8.266  1.0370 -0.9145  0.1543
  179SOPE  H15R20429   3.946   4.176   8.332  0.8097  2.0641 -2.2482
  179SOPE  H15S20430   3.808   4.085   8.343  0.3189  3.7978  1.4417
  179SOPE  C21620431   3.823   4.220   8.174  0.7157 -0.1528 -0.4407
  179SOPE  H16R20432   3.751   4.182   8.099  0.7325  0.1992 -0.6345
  179SOPE  H16S20433   3.908   4.268   8.122  0.3276  0.5948 -0.4024
  179SOPE  C21720434   3.750   4.318   8.267  0.1645 -0.1401  0.0677
  179SOPE  H17R20435   3.820   4.338   8.351  1.3009  0.7912 -1.0570
  179SOPE  H17S20436   3.660   4.272   8.313  0.9359 -1.1814  0.5596
  179SOPE  C21820437   3.714   4.451   8.190  0.7147 -0.3381 -0.4507
  179SOPE  H18R20438   3.799   4.522   8.190  0.2531  0.3064 -2.8812
  179SOPE  H18S20439   3.631   4.499   8.247  0.0307 -0.5069 -1.2840
  179SOPE  H18T20440   3.672   4.428   8.090  1.6202 -3.0682 -0.2842
  179SOPE   C3320441   3.217   3.674   7.264  0.1131  0.4960 -0.1741
  179SOPE   H3X20442   3.117   3.717   7.283 -0.0173  0.2305 -0.2585
  179SOPE   H3Y20443   3.288   3.759   7.256 -1.2791  1.7190  0.0329
  179SOPE   C3420444   3.260   3.590   7.389 -0.0385  0.6282 -0.3204
  179SOPE   H4X20445   3.359   3.547   7.360 -0.1779 -0.1208  0.2702
  179SOPE   H4Y20446   3.193   3.504   7.409  1.3154 -0.2412  0.6401
  179SOPE   C3520447   3.284   3.676   7.516 -0.0714 -0.3136  0.1631
  179SOPE   H5X20448   3.192   3.732   7.544 -1.3907 -2.0024 -0.5727
  179SOPE   H5Y20449   3.372   3.743   7.505 -0.6144  0.1691 -1.7905
  179SOPE   C3620450   3.318   3.592   7.641 -0.5046 -0.1354  0.1130
  179SOPE   H6X20451   3.425   3.564   7.653 -0.2013 -0.5108 -2.7695
  179SOPE   H6Y20452   3.261   3.497   7.634  1.9745 -1.8598  1.6417
  179SOPE   C3720453   3.273   3.678   7.753  0.4649  0.3919  0.0419
  179SOPE   H7X20454   3.162   3.677   7.750  0.3619 -2.0642  1.5995
  179SOPE   H7Y20455   3.320   3.778   7.752 -0.6006  0.9166  0.7697
  179SOPE   C3820456   3.308   3.607   7.891  0.5644 -0.2312 -0.6603
  179SOPE   H8X20457   3.417   3.589   7.881  0.7972  1.3309 -1.2924
  179SOPE   H8Y20458   3.264   3.508   7.913  1.5844 -0.3498  0.9997
  179SOPE   C3920459   3.294   3.699   8.014 -0.4161  0.7868 -0.4720
  179SOPE   H9X20460   3.188   3.729   8.024 -1.0228 -1.6236  1.5326
  179SOPE   H9Y20461   3.363   3.785   7.999 -0.7253  1.5658  2.0266
  179SOPE  C31020462   3.341   3.628   8.141 -0.0693 -0.6608  0.6253
  179SOPE  H10X20463   3.434   3.569   8.135  0.7539  0.7380 -1.3437
  179SOPE  H10Y20464   3.271   3.548   8.174  0.2262 -0.8231  0.8664
  179SOPE  C31120465   3.350   3.733   8.257 -0.0118  0.0746  0.1635
  179SOPE  H11X20466   3.257   3.780   8.297 -0.4581  1.2929 -2.1250
  179SOPE  H11Y20467   3.401   3.827   8.225 -2.6176  1.0745 -1.3582
  179SOPE  C31220468   3.414   3.670   8.385 -0.2008 -0.6784 -0.1829
  179SOPE  H12X20469   3.506   3.616   8.356 -1.0003 -1.4529 -1.3962
  179SOPE  H12Y20470   3.342   3.595   8.426  0.9793 -1.5759  0.3122
  179SOPE  C31320471   3.439   3.775   8.496 -0.2719 -0.5118 -0.0255
  179SOPE  H13X20472   3.342   3.829   8.501 -1.4600 -2.4745 -0.3782
  179SOPE  H13Y20473   3.512   3.853   8.468 -0.9839  0.3791  0.5600
  179SOPE  C31420474   3.467   3.709   8.635 -0.7734  0.0395  0.1148
  179SOPE  H14X20475   3.562   3.657   8.613 -0.6738  0.4557 -0.4508
  179SOPE  H14Y20476   3.386   3.634   8.648 -1.9061  1.2258  0.1454
  179SOPE  C31520477   3.479   3.808   8.742  0.4037 -0.0111  0.0198
  179SOPE  H15X20478   3.380   3.858   8.736 -0.0169 -0.9864 -1.3930
  179SOPE  H15Y20479   3.558   3.876   8.702  0.8142  0.1731  1.0854
  179SOPE  C31620480   3.522   3.758   8.875 -0.4082 -0.5246  0.4646
  179SOPE  H16X20481   3.618   3.706   8.892 -0.6776 -0.3973  2.7464
  179SOPE  H16Y20482   3.448   3.684   8.914  0.3541 -1.4496  0.1799
  179SOPE  C31720483   3.521   3.873   8.980  0.1270 -0.6401  0.3677
  179SOPE  H17X20484   3.415   3.885   9.013 -0.3208  0.0935 -1.2396
  179SOPE  H17Y20485   3.556   3.971   8.941 -2.2892  0.3182  0.4191
  179SOPE  C31820486   3.608   3.842   9.100  0.1527  0.4562  0.1475
  179SOPE  H18X20487   3.548   3.782   9.173  1.5024 -0.8643  0.2241
  179SOPE  H18Y20488   3.634   3.935   9.155  1.6196 -0.1643  0.5352
  179SOPE  H18Z20489   3.704   3.792   9.075  0.8983  0.7305  2.2760
  180SOPE     N20490   3.228   3.860   6.182  0.4646  0.2119  0.0099
  180SOPE   HN120491   3.204   3.759   6.173 -2.2691  0.9533 -3.2634
  180SOPE   HN220492   3.281   3.882   6.268  0.4399  2.3110 -0.4453
  180SOPE   HN320493   3.141   3.917   6.189  0.7696  0.7641 -0.5530
  180SOPE   C1220494   3.318   3.895   6.067 -0.4388  0.0268  0.5900
  180SOPE  H12A20495   3.325   4.006   6.071 -2.6825  0.2119  1.0312
  180SOPE  H12B20496   3.273   3.867   5.969  1.6950 -0.4605 -0.3006
  180SOPE   C1120497   3.455   3.821   6.075  0.2935  0.1347  0.7560
  180SOPE  H11A20498   3.504   3.851   5.980  1.7855  0.6509  1.6546
  180SOPE  H11B20499   3.447   3.711   6.086  1.8231 -0.2483 -1.3765
  180SOPE     P20500   3.677   3.803   6.209  0.2404 -0.2065  0.2082
  180SOPE   O1320501   3.787   3.898   6.238  0.7016 -0.6194 -0.0109
  180SOPE   O1420502   3.706   3.699   6.107 -0.0760 -0.0173  0.1849
  180SOPE   O1220503   3.543   3.871   6.173 -0.1412 -0.3377 -0.6669
  180SOPE   O1120504   3.651   3.725   6.346  0.6105 -0.2229  0.1290
  180SOPE    C120505   3.541   3.776   6.427  0.1724  0.1850  0.0661
  180SOPE    HA20506   3.445   3.746   6.378  0.7394 -0.2266 -0.8088
  180SOPE    HB20507   3.542   3.886   6.442 -0.8446  0.1605  0.4512
  180SOPE    C220508   3.540   3.710   6.564  0.2488  0.0991  0.8480
  180SOPE    HS20509   3.478   3.771   6.633 -0.1772  1.5891 -0.7670
  180SOPE   O2120510   3.675   3.706   6.610  0.1482 -0.1004  0.0584
  180SOPE   C2120511   3.738   3.822   6.654  0.7165  0.4592  0.0699
  180SOPE   O2220512   3.678   3.928   6.665  0.0251  0.4217  0.4973
  180SOPE   C2220513   3.876   3.777   6.702 -0.1661 -0.1129 -0.1601
  180SOPE   H2R20514   3.916   3.859   6.764 -1.7157  1.5968 -1.3272
  180SOPE   H2S20515   3.944   3.773   6.614  0.9590 -0.0602  0.6846
  180SOPE    C320516   3.477   3.570   6.558  0.6144 -1.0362 -0.0680
  180SOPE    HX20517   3.529   3.510   6.479  0.2548  0.7809 -1.7641
  180SOPE    HY20518   3.371   3.591   6.536  0.5325 -1.3061  0.0598
  180SOPE   O3120519   3.476   3.502   6.688 -0.1841  0.7740 -0.4445
  180SOPE   C3120520   3.579   3.417   6.709  0.6266 -0.6466 -0.1386
  180SOPE   O3220521   3.671   3.395   6.631  0.2736 -0.3507  0.4573
  180SOPE   C3220522   3.567   3.349   6.847 -0.0827 -0.0264 -0.5771
  180SOPE   H2X20523   3.613   3.248   6.835 -2.6483 -1.3275 -0.2300
  180SOPE   H2Y20524   3.463   3.340   6.884  0.9106  1.0061  2.8105
  180SOPE   C2320525   3.870   3.667   6.808  0.8505 -0.1037  0.0268
  180SOPE   H3R20526   3.834   3.569   6.769 -0.5157  0.7729 -0.9969
  180SOPE   H3S20527   3.806   3.695   6.894  1.3766 -0.6196  0.6018
  180SOPE   C2420528   4.013   3.613   6.847 -0.0541 -0.8234 -0.4092
  180SOPE   H4R20529   4.018   3.502   6.854  2.3111 -0.6927  0.7182
  180SOPE   H4S20530   4.091   3.653   6.779  0.8838 -1.1575  0.4562
  180SOPE   C2520531   4.044   3.661   6.984 -0.1373 -0.0232  0.5210
  180SOPE   H5R20532   4.073   3.768   6.999 -1.4519  0.2750  1.0211
  180SOPE   H5S20533   3.960   3.639   7.052  0.6805 -0.8500  1.3004
  180SOPE   C2620534   4.157   3.584   7.055  0.0247  0.7147 -0.1218
  180SOPE   H6R20535   4.138   3.474   7.059  0.4826  0.6713  1.9201
  180SOPE   H6S20536   4.254   3.580   7.000 -0.1488 -2.8255 -0.4132
  180SOPE   C2720537   4.175   3.630   7.199 -0.0623 -0.4817  0.1224
  180SOPE   H7R20538   4.191   3.740   7.205  1.0889 -0.6562  0.5651
  180SOPE   H7S20539   4.078   3.620   7.252 -0.4449 -2.0344 -0.8130
  180SOPE   C2820540   4.283   3.558   7.282 -0.4028 -0.1801  0.5742
  180SOPE   H8R20541   4.268   3.597   7.385 -1.2413  0.7906  0.1005
  180SOPE   H8S20542   4.251   3.452   7.270 -0.0932 -0.2438  0.2812
  180SOPE   C2920543   4.427   3.584   7.249  1.1486 -0.3782  0.2746
  180SOPE   H9120544   4.457   3.688   7.266  0.5538  0.1594 -1.6835
  180SOPE  C21020545   4.518   3.500   7.208  0.0760  0.4968  0.3731
  180SOPE  H10120546   4.614   3.538   7.171 -0.4596 -0.1495 -1.7712
  180SOPE  C21120547   4.488   3.355   7.178 -0.1131 -0.3081  0.4200
  180SOPE  H11R20548   4.540   3.321   7.087 -2.0017  0.1313 -0.8803
  180SOPE  H11S20549   4.380   3.340   7.159 -0.4520 -0.6241  2.3462
  180SOPE  C21220550   4.530   3.255   7.290  0.2559 -0.0521 -0.1114
  180SOPE  H12R20551   4.640   3.243   7.295  0.4336  0.4071 -2.2200
  180SOPE  H12S20552   4.505   3.152   7.257  2.1243 -0.1725 -1.2479
  180SOPE  C21320553   4.474   3.283   7.429  0.4027 -0.2399 -0.4730
  180SOPE  H13R20554   4.363   3.279   7.432  0.2479  1.3240 -2.5852
  180SOPE  H13S20555   4.495   3.391   7.442 -1.3657  0.1393 -0.4292
  180SOPE  C21420556   4.542   3.197   7.539 -0.7319 -0.2578 -0.5092
  180SOPE  H14R20557   4.651   3.217   7.527 -1.1269  2.6230  0.0197
  180SOPE  H14S20558   4.523   3.089   7.526  0.3944 -0.2825 -2.2527
  180SOPE  C21520559   4.489   3.243   7.672  0.0997 -0.3480  0.6857
  180SOPE  H15R20560   4.379   3.226   7.674  0.3373 -3.1601 -1.8310
  180SOPE  H15S20561   4.511   3.351   7.672  1.4795 -0.4290 -4.0551
  180SOPE  C21620562   4.557   3.167   7.786  0.0156 -0.1300  0.0446
  180SOPE  H16R20563   4.661   3.152   7.750  0.3283 -0.6128  1.1395
  180SOPE  H16S20564   4.513   3.067   7.808 -0.8315 -0.1519 -1.5819
  180SOPE  C21720565   4.571   3.248   7.917  0.0694  0.2234 -0.3809
  180SOPE  H17R20566   4.648   3.326   7.903  1.3145 -0.3139  2.7269
  180SOPE  H17S20567   4.608   3.180   7.996 -0.0394  1.4781  0.7845
  180SOPE  C21820568   4.447   3.308   7.975 -0.4471  0.1136 -0.8893
  180SOPE  H18R20569   4.397   3.376   7.902  0.1502  1.3009 -0.2105
  180SOPE  H18S20570   4.469   3.354   8.074 -1.3434  0.1275 -0.6864
  180SOPE  H18T20571   4.390   3.216   8.000  0.6084 -1.2644 -3.2449
  180SOPE   C3320572   3.640   3.422   6.960  0.2531  0.4671  0.2210
  180SOPE   H3X20573   3.593   3.515   6.997  2.1875  0.8794  1.8701
  180SOPE   H3Y20574   3.743   3.453   6.931 -0.3194  0.9930 -1.3186
  180SOPE   C3420575   3.642   3.338   7.082  0.4927 -0.0208  0.5655
  180SOPE   H4X20576   3.718   3.259   7.066  0.8972  0.4281  0.2436
  180SOPE   H4Y20577   3.540   3.294   7.088  0.4749 -0.2341 -1.0075
  180SOPE   C3520578   3.669   3.416   7.210  1.1108 -0.3659  0.4233
  180SOPE   H5X20579   3.599   3.499   7.235  0.9828 -0.2598 -0.2683
  180SOPE   H5Y20580   3.770   3.462   7.208  1.9599 -1.9263  2.8435
  180SOPE   C3620581   3.677   3.322   7.321  0.2705 -0.1020  0.2150
  180SOPE   H6X20582   3.763   3.253   7.308 -0.8680 -1.7792  1.1564
  180SOPE   H6Y20583   3.585   3.259   7.325  1.1334 -1.3902  0.6414
  180SOPE   C3720584   3.683   3.381   7.467  0.0992  0.3789  0.0386
  180SOPE   H7X20585   3.596   3.449   7.474 -0.0311  0.2888 -0.6516
  180SOPE   H7Y20586   3.769   3.452   7.475  0.6836 -0.4291  1.4692
  180SOPE   C3820587   3.693   3.279   7.582  0.2623  0.4029  0.9505
  180SOPE   H8X20588   3.799   3.244   7.587  0.6089  1.4929  1.3977
  180SOPE   H8Y20589   3.623   3.194   7.565  1.6960 -0.1649 -3.7340
  180SOPE   C3920590   3.653   3.335   7.714 -1.1452 -0.0364 -1.0825
  180SOPE   H9X20591   3.548   3.372   7.712 -1.0627  0.2252 -0.7581
  180SOPE   H9Y20592   3.728   3.411   7.744 -1.0341 -0.9058  0.9914
  180SOPE  C31020593   3.646   3.224   7.816  0.2142  0.4886 -0.3423
  180SOPE  H10X20594   3.745   3.174   7.825 -1.0440 -2.1833 -0.4311
  180SOPE  H10Y20595   3.572   3.153   7.772 -1.3702  2.9042 -1.8044
  180SOPE  C31120596   3.603   3.284   7.952  0.7651 -0.2766  1.0076
  180SOPE  H11X20597   3.507   3.338   7.935  1.5887  1.1352  0.6520
  180SOPE  H11Y20598   3.680   3.360   7.978 -1.9036  2.7858  0.6176
  180SOPE  C31220599   3.577   3.174   8.062 -0.4972 -0.0678 -0.2954
  180SOPE  H12X20600   3.679   3.136   8.083 -1.2978 -0.7848  2.7012
  180SOPE  H12Y20601   3.516   3.087   8.028  1.9134 -2.3920  0.9024
  180SOPE  C31320602   3.522   3.246   8.187  0.0586  0.0941 -0.4389
  180SOPE  H13X20603   3.422   3.289   8.167 -0.1777  0.4228  1.3002
  180SOPE  H13Y20604   3.576   3.337   8.220 -1.2604  1.3170 -1.5641
  180SOPE  C31420605   3.535   3.168   8.316  0.4109  0.4287  0.3258
  180SOPE  H14X20606   3.637   3.128   8.337  0.0909  0.6256  2.6071
  180SOPE  H14Y20607   3.481   3.072   8.305 -0.7537  1.2513 -1.3465
  180SOPE  C31520608   3.490   3.252   8.435 -0.1356 -1.0194  0.3751
  180SOPE  H15X20609   3.388   3.292   8.416  0.3713 -0.2788 -0.9190
  180SOPE  H15Y20610   3.549   3.345   8.443  1.7499 -2.0275 -1.0376
  180SOPE  C31620611   3.490   3.170   8.559  0.5170 -1.1181  0.2348
  180SOPE  H16X20612   3.459   3.064   8.548 -0.9093 -0.9004  1.7940
  180SOPE  H16Y20613   3.414   3.209   8.630  0.7423 -2.2055  1.0947
  180SOPE  C31720614   3.633   3.173   8.613  0.5863 -0.6710  0.3431
  180SOPE  H17X20615   3.649   3.273   8.659 -2.2821 -0.0993  0.2392
  180SOPE  H17Y20616   3.706   3.164   8.530  0.0747 -1.2554 -0.0546
  180SOPE  C31820617   3.661   3.064   8.717  0.4696 -0.1362 -0.6500
  180SOPE  H18X20618   3.767   3.073   8.750  0.7940 -1.3719 -1.2846
  180SOPE  H18Y20619   3.659   2.963   8.671  0.5605  0.0472 -1.0679
  180SOPE  H18Z20620   3.592   3.061   8.803 -0.1988 -3.8128 -1.1421
  181SOPE     N20621   5.044   1.979   5.657  0.2726 -1.1347 -0.2499
  181SOPE   HN120622   4.965   1.951   5.719  1.5506 -2.8172  0.6946
  181SOPE   HN220623   5.032   2.078   5.628  2.9869  0.1941  2.6016
  181SOPE   HN320624   5.051   1.919   5.572  0.4071 -1.5898  0.0763
  181SOPE   C1220625   5.160   1.951   5.740  0.0310 -0.2536 -0.4235
  181SOPE  H12A20626   5.260   1.997   5.722  0.5613 -1.1349  0.2424
  181SOPE  H12B20627   5.186   1.846   5.717 -1.5895 -0.1171 -3.2241
  181SOPE   C1120628   5.144   1.985   5.892  0.6532 -0.2456  0.3939
  181SOPE  H11A20629   5.146   2.092   5.922  0.9091 -0.4506  1.1258
  181SOPE  H11B20630   5.230   1.940   5.946  0.7029  1.4971  1.8599
  181SOPE     P20631   4.901   1.999   5.979  0.2624 -0.0167 -0.1539
  181SOPE   O1320632   4.822   1.991   5.856  0.7715  0.3229 -0.2048
  181SOPE   O1420633   4.936   2.138   6.019  0.5984 -0.2699 -0.3655
  181SOPE   O1220634   5.031   1.920   5.947 -0.0303 -0.3458 -0.5183
  181SOPE   O1120635   4.832   1.924   6.106  0.1018  0.5008 -0.4111
  181SOPE    C120636   4.905   1.813   6.168 -0.2028  1.1330 -0.6552
  181SOPE    HA20637   5.014   1.832   6.185  0.2929 -1.7042 -0.0767
  181SOPE    HB20638   4.903   1.740   6.084 -0.6861  0.4253 -0.0408
  181SOPE    C220639   4.830   1.761   6.297 -0.5134 -0.0951  0.5765
  181SOPE    HS20640   4.879   1.669   6.337  2.1483  0.8692 -0.2449
  181SOPE   O2120641   4.692   1.746   6.279 -0.6498 -0.5471  0.0343
  181SOPE   C2120642   4.668   1.642   6.210  0.3933 -0.2205  0.4224
  181SOPE   O2220643   4.745   1.560   6.164 -0.4266 -0.3747 -0.1922
  181SOPE   C2220644   4.515   1.625   6.203  0.1180 -1.1938  0.5721
  181SOPE   H2R20645   4.492   1.563   6.113  1.3737  0.9037 -1.3007
  181SOPE   H2S20646   4.465   1.724   6.192  0.6132 -1.1625 -1.8342
  181SOPE    C320647   4.849   1.875   6.400 -0.0160 -0.0136  0.5600
  181SOPE    HX20648   4.783   1.959   6.369 -1.6495 -1.6108 -0.5139
  181SOPE    HY20649   4.954   1.912   6.397 -0.3132  0.8196 -0.0652
  181SOPE   O3120650   4.837   1.826   6.533 -0.2577 -0.4372  0.4661
  181SOPE   C3120651   4.747   1.886   6.611 -0.5924 -0.0371 -0.4727
  181SOPE   O3220652   4.670   1.973   6.574  0.0672  0.1153  0.0135
  181SOPE   C3220653   4.773   1.846   6.755 -0.4059 -0.7894 -0.3422
  181SOPE   H2X20654   4.866   1.786   6.770 -0.6077 -0.7355  1.3017
  181SOPE   H2Y20655   4.691   1.777   6.786  0.5414 -1.3740  0.9411
  181SOPE   C2320656   4.469   1.551   6.334  1.1241  0.5212  0.3884
  181SOPE   H3R20657   4.533   1.461   6.349  1.0328  0.4086  0.1135
  181SOPE   H3S20658   4.363   1.518   6.328  1.4830 -0.9541  1.6198
  181SOPE   C2420659   4.492   1.627   6.466 -0.1585 -0.6350 -0.5010
  181SOPE   H4R20660   4.594   1.631   6.510 -1.2795  1.0719  2.1534
  181SOPE   H4S20661   4.468   1.732   6.441  3.1016  0.3756  0.1770
  181SOPE   C2520662   4.396   1.578   6.575 -0.2458 -0.1317 -0.0156
  181SOPE   H5R20663   4.291   1.610   6.562 -0.3296 -0.3489  0.1239
  181SOPE   H5S20664   4.408   1.468   6.581  1.9952  0.1393  2.5403
  181SOPE   C2620665   4.432   1.637   6.712 -0.2779 -0.3592 -0.3597
  181SOPE   H6R20666   4.524   1.587   6.749  1.4670  2.1684 -1.0276
  181SOPE   H6S20667   4.450   1.747   6.710  1.5835 -0.5680  1.1669
  181SOPE   C2720668   4.318   1.620   6.812  0.3007 -0.1992 -0.0894
  181SOPE   H7R20669   4.224   1.616   6.754  0.2318 -3.0047  0.0615
  181SOPE   H7S20670   4.330   1.521   6.862  1.5818 -0.2622 -0.4887
  181SOPE   C2820671   4.317   1.728   6.921  0.0307  0.2841 -0.3253
  181SOPE   H8R20672   4.310   1.834   6.888 -0.6178  0.6004  0.7780
  181SOPE   H8S20673   4.233   1.714   6.993 -0.1373  1.0630 -0.3567
  181SOPE   C2920674   4.437   1.704   7.016 -0.1025 -0.8319  0.1632
  181SOPE   H9120675   4.506   1.622   6.993  0.5222  0.0545 -1.3382
  181SOPE  C21020676   4.461   1.787   7.123  0.1290  0.9665 -0.8603
  181SOPE  H10120677   4.538   1.755   7.194 -2.1945 -0.3162  1.2659
  181SOPE  C21120678   4.378   1.909   7.163 -0.7303 -0.5840 -0.3337
  181SOPE  H11R20679   4.303   1.936   7.087 -1.1732  0.7239  0.5355
  181SOPE  H11S20680   4.448   1.995   7.167 -1.4132 -0.0295 -0.0935
  181SOPE  C21220681   4.303   1.904   7.294  0.2537  0.5177  0.2532
  181SOPE  H12R20682   4.243   1.811   7.305  1.1943 -0.2403 -0.8096
  181SOPE  H12S20683   4.232   1.990   7.292 -2.0470 -1.2783 -1.5603
  181SOPE  C21320684   4.399   1.923   7.410 -0.5404  0.0796  0.0813
  181SOPE  H13R20685   4.463   2.006   7.374 -1.2799 -0.4031 -2.5572
  181SOPE  H13S20686   4.468   1.837   7.424 -0.5788  0.0369  0.0055
  181SOPE  C21420687   4.325   1.937   7.546 -0.4346  0.3890 -0.1584
  181SOPE  H14R20688   4.266   1.844   7.564  1.1663 -0.7000 -0.3510
  181SOPE  H14S20689   4.254   2.022   7.548  0.2690  0.9650  1.5753
  181SOPE  C21520690   4.425   1.958   7.664  0.2611 -0.0915  0.4938
  181SOPE  H15R20691   4.488   2.043   7.633  1.5111 -1.0673  0.2568
  181SOPE  H15S20692   4.489   1.868   7.679  2.0509  0.5119 -2.6588
  181SOPE  C21620693   4.355   1.986   7.794  0.2031  0.3556  0.7791
  181SOPE  H16R20694   4.289   1.899   7.810 -0.6396  0.5869 -1.2282
  181SOPE  H16S20695   4.286   2.072   7.781 -2.2045 -1.6205 -0.1691
  181SOPE  C21720696   4.443   2.018   7.911  0.2885 -0.0275  0.2208
  181SOPE  H17R20697   4.509   2.107   7.904 -1.0350  1.0745  1.2556
  181SOPE  H17S20698   4.497   1.922   7.928 -0.1315 -0.1699  0.7803
  181SOPE  C21820699   4.358   2.033   8.038 -0.0915  0.2597 -0.0391
  181SOPE  H18R20700   4.294   1.947   8.068 -0.7471  1.1521  1.1660
  181SOPE  H18S20701   4.287   2.117   8.024  0.4904  0.9069  0.7886
  181SOPE  H18T20702   4.422   2.044   8.127 -0.1224 -0.9196  0.1532
  181SOPE   C3320703   4.784   1.969   6.850 -0.0896 -0.9303 -0.2477
  181SOPE   H3X20704   4.708   2.049   6.838 -0.3137 -1.0191  0.5703
  181SOPE   H3Y20705   4.880   2.020   6.827  0.9868 -1.5734  2.4727
  181SOPE   C3420706   4.777   1.921   7.003  0.3342 -0.3435 -0.4057
  181SOPE   H4X20707   4.828   1.823   7.011 -1.8881 -1.5473 -0.0782
  181SOPE   H4Y20708   4.668   1.916   7.025  0.7134  0.4290  1.9437
  181SOPE   C3520709   4.835   2.022   7.098  0.4651 -0.2014  0.0447
  181SOPE   H5X20710   4.821   2.124   7.056  0.0549 -1.3856 -2.9268
  181SOPE   H5Y20711   4.944   2.002   7.108  0.4173  0.1993  1.8844
  181SOPE   C3620712   4.774   2.017   7.239 -0.8303 -0.2248 -0.2188
  181SOPE   H6X20713   4.777   1.915   7.282  1.1900 -0.7348 -1.4502
  181SOPE   H6Y20714   4.667   2.045   7.235 -0.3353  2.2650  1.1835
  181SOPE   C3720715   4.825   2.118   7.345  0.0503 -0.1078 -0.2343
  181SOPE   H7X20716   4.817   2.227   7.326 -1.1822 -0.2712 -0.7819
  181SOPE   H7Y20717   4.936   2.117   7.355  0.0791  2.4613  0.4595
  181SOPE   C3820718   4.771   2.078   7.489 -0.1025  0.7732  0.0118
  181SOPE   H8X20719   4.796   1.969   7.487 -0.9575  0.5732 -0.4465
  181SOPE   H8Y20720   4.660   2.083   7.489 -0.0446  2.2608 -0.0262
  181SOPE   C3920721   4.828   2.157   7.607  0.0160  0.2114 -0.1651
  181SOPE   H9X20722   4.781   2.258   7.604 -0.1194  0.1580  0.1031
  181SOPE   H9Y20723   4.936   2.171   7.590  0.1178  0.8254  0.8401
  181SOPE  C31020724   4.802   2.087   7.742 -0.0600  0.5055 -0.1679
  181SOPE  H10X20725   4.869   2.000   7.757 -0.3002  0.6420  2.1344
  181SOPE  H10Y20726   4.699   2.046   7.748 -0.1285  0.2769 -2.1618
  181SOPE  C31120727   4.828   2.186   7.858 -0.7983 -0.0819  0.1403
  181SOPE  H11X20728   4.753   2.268   7.854 -0.3209  0.2934 -1.7662
  181SOPE  H11Y20729   4.929   2.230   7.845 -0.4284 -0.6490  1.0180
  181SOPE  C31220730   4.823   2.109   7.993  0.3077  0.1186  0.4119
  181SOPE  H12X20731   4.859   2.005   7.984  1.4588  0.5453 -0.1271
  181SOPE  H12Y20732   4.713   2.107   8.011  0.2601  3.1224  0.9614
  181SOPE  C31320733   4.905   2.176   8.101  0.8368 -0.2854  0.6768
  181SOPE  H13X20734   4.888   2.286   8.094  0.2827 -0.4767 -1.4626
  181SOPE  H13Y20735   5.014   2.166   8.080  1.0489  3.9860 -1.5848
  181SOPE  C31420736   4.871   2.130   8.240  0.2255  0.0044  0.1334
  181SOPE  H14X20737   4.913   2.028   8.253 -1.7803 -0.9270 -0.2969
  181SOPE  H14Y20738   4.762   2.127   8.259  0.3009  0.7651  0.7272
  181SOPE  C31520739   4.933   2.225   8.349 -0.4298  0.0084 -0.2486
  181SOPE  H15X20740   5.012   2.284   8.299 -1.0233  2.5031  1.5991
  181SOPE  H15Y20741   4.971   2.161   8.432 -1.0075  2.0853  1.7184
  181SOPE  C31620742   4.843   2.328   8.419  0.2142  0.0582 -0.5358
  181SOPE  H16X20743   4.761   2.272   8.469  1.0372 -0.9266 -0.2717
  181SOPE  H16Y20744   4.788   2.391   8.345 -0.3008 -1.2651 -1.3131
  181SOPE  C31720745   4.924   2.421   8.513 -0.2286 -0.1187  0.1684
  181SOPE  H17X20746   5.022   2.448   8.470  1.1487 -2.5558  1.5330
  181SOPE  H17Y20747   4.941   2.351   8.598 -0.2669 -1.0868 -0.5977
  181SOPE  C31820748   4.849   2.543   8.559 -0.3951  0.7926 -1.0266
  181SOPE  H18X20749   4.908   2.596   8.637 -1.2531  1.5904 -0.9035
  181SOPE  H18Y20750   4.756   2.506   8.607  0.3818 -0.6876 -0.6016
  181SOPE  H18Z20751   4.823   2.610   8.474 -0.6348  0.8604 -0.9024
  182SOPE     N20752   4.281   2.675   6.043 -0.6052  0.1316 -0.0608
  182SOPE   HN120753   4.362   2.611   6.058 -1.5358 -1.2155 -0.5658
  182SOPE   HN220754   4.308   2.763   5.996  0.0592 -0.3892 -0.6756
  182SOPE   HN320755   4.256   2.710   6.138  1.2787  0.6349  0.2862
  182SOPE   C1220756   4.170   2.600   5.978  0.8422 -0.0480 -0.2498
  182SOPE  H12A20757   4.174   2.609   5.867 -2.5177  0.7026 -0.4255
  182SOPE  H12B20758   4.072   2.635   6.016  0.6478 -0.3431 -0.4797
  182SOPE   C1120759   4.174   2.459   6.022  0.5496 -0.3765  0.6720
  182SOPE  H11A20760   4.270   2.411   5.994  0.1268 -1.1879  0.5641
  182SOPE  H11B20761   4.093   2.406   5.967 -0.2330  1.8323 -0.4124
  182SOPE     P20762   4.068   2.368   6.244 -0.5305  0.0886 -0.1976
  182SOPE   O1320763   4.088   2.228   6.202  0.1765 -0.3056 -0.3695
  182SOPE   O1420764   3.930   2.423   6.230 -0.2344 -0.1106  0.2791
  182SOPE   O1220765   4.165   2.459   6.163 -0.3433  0.0678 -0.0835
  182SOPE   O1120766   4.122   2.385   6.392 -0.0246  0.0895 -0.3695
  182SOPE    C120767   4.193   2.496   6.441 -0.2101 -0.1176 -1.1914
  182SOPE    HA20768   4.144   2.589   6.405 -0.5955 -0.7356 -2.3311
  182SOPE    HB20769   4.298   2.500   6.406 -0.1306  3.0198 -0.8830
  182SOPE    C220770   4.196   2.491   6.602 -0.6628  0.0954  0.3351
  182SOPE    HS20771   4.226   2.593   6.632  2.1459 -1.5123  3.6516
  182SOPE   O2120772   4.296   2.392   6.638  0.2903 -0.1939 -0.5962
  182SOPE   C2120773   4.351   2.420   6.751 -0.2554 -0.2226  0.6040
  182SOPE   O2220774   4.350   2.522   6.814 -0.1175 -0.2814 -0.3750
  182SOPE   C2220775   4.430   2.286   6.804  0.2491  0.8936 -0.1208
  182SOPE   H2R20776   4.496   2.257   6.719  1.8056 -2.5235  2.0459
  182SOPE   H2S20777   4.357   2.202   6.807  1.5638 -0.2680  1.3341
  182SOPE    C320778   4.058   2.463   6.655  0.3962 -0.3126 -0.3029
  182SOPE    HX20779   4.035   2.358   6.629  0.4470 -0.5502  0.5609
  182SOPE    HY20780   3.987   2.518   6.589 -0.0516 -1.3142 -0.6685
  182SOPE   O3120781   4.038   2.480   6.797  0.4129 -0.0690  0.1114
  182SOPE   C3120782   4.035   2.613   6.839  0.1220 -0.2481  0.1642
  182SOPE   O3220783   4.055   2.710   6.767  1.1315 -0.1266  0.7588
  182SOPE   C3220784   4.012   2.616   6.988  0.3499 -0.3508  0.1005
  182SOPE   H2X20785   4.100   2.585   7.048 -1.4464 -2.4242  1.8469
  182SOPE   H2Y20786   3.939   2.534   7.004  0.9424 -0.8181  0.4788
  182SOPE   C2320787   4.498   2.316   6.935 -0.0508  0.1055 -0.2836
  182SOPE   H3R20788   4.534   2.420   6.953  0.1166 -0.1803  1.1506
  182SOPE   H3S20789   4.591   2.255   6.942  0.6633  1.1661 -0.2785
  182SOPE   C2420790   4.413   2.279   7.052 -0.1334 -0.4304 -0.6744
  182SOPE   H4R20791   4.320   2.340   7.045 -0.4287 -0.6509  0.9763
  182SOPE   H4S20792   4.379   2.173   7.055 -0.4423 -0.3418 -0.9518
  182SOPE   C2520793   4.488   2.308   7.188 -0.1991  0.3342 -0.3695
  182SOPE   H5R20794   4.562   2.229   7.212 -1.1084 -0.0645  1.2444
  182SOPE   H5S20795   4.551   2.398   7.170  1.5270 -1.2652 -2.8830
  182SOPE   C2620796   4.393   2.314   7.307  0.2170 -0.2470  0.5253
  182SOPE   H6R20797   4.318   2.392   7.282 -1.2464 -2.2326 -1.7552
  182SOPE   H6S20798   4.332   2.221   7.300 -1.9536  1.1879 -0.8673
  182SOPE   C2720799   4.478   2.333   7.426 -0.2215  0.6422  0.0338
  182SOPE   H7R20800   4.552   2.250   7.427  0.4191  0.9713  5.1972
  182SOPE   H7S20801   4.544   2.422   7.432  1.4011 -0.6283  3.4559
  182SOPE   C2820802   4.400   2.316   7.559 -0.6537 -0.4215  0.0839
  182SOPE   H8R20803   4.345   2.220   7.554 -2.0178  0.3900 -3.3038
  182SOPE   H8S20804   4.466   2.296   7.646 -1.1797 -0.6585  0.4353
  182SOPE   C2920805   4.302   2.431   7.579 -0.3252  0.9966 -0.0639
  182SOPE   H9120806   4.246   2.472   7.494  0.2350  1.7094 -0.0950
  182SOPE  C21020807   4.297   2.504   7.692  0.5401  0.3505 -0.5454
  182SOPE  H10120808   4.222   2.585   7.695 -0.4812 -0.3790 -3.5462
  182SOPE  C21120809   4.375   2.470   7.818  0.5514 -0.8743 -0.4466
  182SOPE  H11R20810   4.464   2.536   7.824  1.6996 -2.4019  0.0528
  182SOPE  H11S20811   4.420   2.369   7.828  0.0749 -1.0965 -0.5166
  182SOPE  C21220812   4.288   2.481   7.941  0.3117 -0.1490 -0.3761
  182SOPE  H12R20813   4.202   2.410   7.938 -0.6830  0.9392  1.0582
  182SOPE  H12S20814   4.251   2.585   7.934 -2.2501 -0.9158  0.5777
  182SOPE  C21320815   4.374   2.483   8.077  0.4979 -0.2658  0.1317
  182SOPE  H13R20816   4.443   2.571   8.071  0.5956 -0.2026  1.8845
  182SOPE  H13S20817   4.428   2.387   8.068  0.4053 -0.4148  1.1391
  182SOPE  C21420818   4.298   2.486   8.214  0.3546  0.2136 -0.7467
  182SOPE  H14R20819   4.228   2.400   8.207  1.2861 -0.4110 -3.7036
  182SOPE  H14S20820   4.236   2.577   8.230 -1.0292 -0.8922  0.5790
  182SOPE  C21520821   4.393   2.445   8.330 -0.2603  0.2810  0.1890
  182SOPE  H15R20822   4.366   2.503   8.420  0.6111  1.5263 -0.3186
  182SOPE  H15S20823   4.492   2.487   8.302 -1.5791  1.9437 -2.3992
  182SOPE  C21620824   4.387   2.291   8.346 -0.7176  0.2051 -0.3137
  182SOPE  H16R20825   4.432   2.247   8.254  0.0006  0.9490 -0.3311
  182SOPE  H16S20826   4.284   2.249   8.349 -0.7609  0.3685  0.7611
  182SOPE  C21720827   4.465   2.255   8.474 -0.4128  0.1980  1.0597
  182SOPE  H17R20828   4.404   2.290   8.560  0.2784  1.6311  1.0056
  182SOPE  H17S20829   4.556   2.319   8.483 -0.5242  0.4592  0.3592
  182SOPE  C21820830   4.512   2.103   8.495  0.4084 -0.2805  0.7902
  182SOPE  H18R20831   4.434   2.031   8.461  0.8080 -1.8745  3.0049
  182SOPE  H18S20832   4.508   2.076   8.603 -1.0690  0.1865  0.8769
  182SOPE  H18T20833   4.613   2.085   8.452  0.0469 -1.0365  0.2334
  182SOPE   C3320834   3.954   2.746   7.033  0.6212 -0.3187  0.0351
  182SOPE   H3X20835   3.860   2.768   6.978  0.5908 -2.8972 -1.0654
  182SOPE   H3Y20836   4.028   2.828   7.024  2.5783 -2.1118 -1.0726
  182SOPE   C3420837   3.915   2.748   7.179 -0.8743  0.4009  0.1022
  182SOPE   H4X20838   3.853   2.659   7.201 -1.1764  0.9804  1.7407
  182SOPE   H4Y20839   3.854   2.837   7.204 -0.4354  0.3247  1.5128
  182SOPE   C3520840   4.035   2.751   7.278 -0.1356 -0.4267 -0.2707
  182SOPE   H5X20841   4.104   2.834   7.251  1.5843 -0.4832  3.3705
  182SOPE   H5Y20842   4.086   2.653   7.291  0.4400 -0.0768  0.1164
  182SOPE   C3620843   3.999   2.800   7.422 -0.1041  0.4344  0.0095
  182SOPE   H6X20844   3.946   2.717   7.473 -2.7466  0.8286 -1.8823
  182SOPE   H6Y20845   3.934   2.890   7.421 -1.4719 -0.4985  1.4267
  182SOPE   C3720846   4.129   2.825   7.512 -0.0639  0.4026  0.2276
  182SOPE   H7X20847   4.174   2.912   7.459 -1.0088  0.7688  0.0059
  182SOPE   H7Y20848   4.194   2.735   7.500 -0.4587  0.2153 -0.5437
  182SOPE   C3820849   4.098   2.848   7.656  0.1183  0.3388  0.0433
  182SOPE   H8X20850   4.025   2.774   7.696  1.8366 -0.7374  1.3114
  182SOPE   H8Y20851   4.036   2.941   7.656 -1.9773 -0.9741  0.4937
  182SOPE   C3920852   4.223   2.856   7.746 -0.3289  0.4560 -0.2192
  182SOPE   H9X20853   4.285   2.946   7.723  0.1448 -0.3052 -2.0755
  182SOPE   H9Y20854   4.288   2.769   7.725  0.4091  1.2710 -1.4328
  182SOPE  C31020855   4.190   2.866   7.893  0.5966  0.2805  0.0047
  182SOPE  H10X20856   4.130   2.778   7.925  1.8398 -0.3576  0.6780
  182SOPE  H10Y20857   4.130   2.956   7.919 -1.1353  0.0357 -2.7558
  182SOPE  C31120858   4.315   2.874   7.987 -0.3729  0.3976 -0.6836
  182SOPE  H11X20859   4.384   2.957   7.960  0.7696 -1.2741 -3.3185
  182SOPE  H11Y20860   4.371   2.779   7.973 -0.7763  0.3765 -2.3919
  182SOPE  C31220861   4.274   2.889   8.138  0.2388 -0.4281 -0.4948
  182SOPE  H12X20862   4.200   2.813   8.171  0.1183  0.3525  1.1029
  182SOPE  H12Y20863   4.236   2.993   8.137 -1.3109 -0.9599 -0.4543
  182SOPE  C31320864   4.395   2.868   8.232  0.4375  0.1538 -0.3682
  182SOPE  H13X20865   4.485   2.903   8.177  1.1875 -3.4060 -1.6247
  182SOPE  H13Y20866   4.399   2.758   8.247 -0.7785  0.1442  0.0084
  182SOPE  C31420867   4.384   2.933   8.370  0.5896 -1.0089 -0.1877
  182SOPE  H14X20868   4.465   2.893   8.435  0.0308 -0.8177  0.6443
  182SOPE  H14Y20869   4.288   2.912   8.421  0.4917  0.3459  0.2163
  182SOPE  C31520870   4.407   3.089   8.361 -0.0195  0.0423 -0.3439
  182SOPE  H15X20871   4.325   3.149   8.316  0.5115  0.9579 -0.1222
  182SOPE  H15Y20872   4.492   3.097   8.290  0.8612 -2.1294  0.3646
  182SOPE  C31620873   4.423   3.144   8.505  0.1247 -0.3722  0.2165
  182SOPE  H16X20874   4.460   3.248   8.494 -0.8862 -0.0657 -0.4219
  182SOPE  H16Y20875   4.497   3.090   8.568  1.6671  0.5893 -0.7206
  182SOPE  C31720876   4.291   3.159   8.584  0.2820 -0.3621 -0.1069
  182SOPE  H17X20877   4.242   3.059   8.580  0.0631 -0.2192 -1.2423
  182SOPE  H17Y20878   4.228   3.233   8.531  0.9152 -0.2560 -0.7351
  182SOPE  C31820879   4.322   3.201   8.729 -0.0633 -0.0084  0.9495
  182SOPE  H18X20880   4.362   3.305   8.727 -1.1078  0.4175 -1.6048
  182SOPE  H18Y20881   4.384   3.131   8.788 -0.2823 -1.3448 -0.3588
  182SOPE  H18Z20882   4.236   3.209   8.799  1.1712  2.5841  2.3315
  183SOPE     N20883   0.256   0.706   6.406  0.3706 -0.1625 -0.3658
  183SOPE   HN120884   0.202   0.793   6.388  1.4523  0.1318 -2.5885
  183SOPE   HN220885   0.353   0.733   6.380 -0.2220  1.3053 -1.1897
  183SOPE   HN320886   0.226   0.626   6.346 -0.2244 -0.1810 -0.0498
  183SOPE   C1220887   0.240   0.682   6.551 -0.2512  0.2424 -0.5629
  183SOPE  H12A20888   0.274   0.770   6.608  0.6492 -0.9783  0.8448
  183SOPE  H12B20889   0.299   0.593   6.581 -0.1717  0.8361  1.1098
  183SOPE   C1120890   0.093   0.652   6.593  0.2019 -0.8593 -1.1061
  183SOPE  H11A20891   0.029   0.743   6.580  1.8161  0.7800  1.4427
  183SOPE  H11B20892   0.093   0.641   6.704  1.8705 -0.7160 -1.0807
  183SOPE     P20893  -0.043   0.533   6.405 -0.1716 -0.4532 -0.1005
  183SOPE   O1320894  -0.048   0.400   6.356 -0.1351  0.2546  0.1229
  183SOPE   O1420895   0.004   0.648   6.318 -0.0700 -0.0861 -0.1700
  183SOPE   O1220896   0.041   0.536   6.534  0.0804 -0.2312 -0.3101
  183SOPE   O1120897  -0.191   0.568   6.453 -0.2500  0.2096 -0.0907
  183SOPE    C120898  -0.247   0.692   6.500  0.2933 -0.2652  0.1671
  183SOPE    HA20899  -0.312   0.727   6.417 -0.2993  2.6504  1.7452
  183SOPE    HB20900  -0.179   0.775   6.529  0.2433 -0.1713  0.0185
  183SOPE    C220901  -0.331   0.666   6.625 -0.2223 -0.1609  0.3842
  183SOPE    HS20902  -0.411   0.594   6.596  0.4371 -0.1797 -1.5933
  183SOPE   O2120903  -0.382   0.783   6.688  0.2706 -0.0878 -0.4249
  183SOPE   C2120904  -0.501   0.775   6.746 -0.0806 -0.7698  0.9466
  183SOPE   O2220905  -0.567   0.678   6.741 -0.1783  0.7298 -0.4164
  183SOPE   C2220906  -0.539   0.901   6.825 -0.5761 -0.4521 -0.3948
  183SOPE   H2R20907  -0.629   0.869   6.883 -0.4394 -2.0479 -0.9990
  183SOPE   H2S20908  -0.569   0.983   6.757  0.7911  1.8991  1.6585
  183SOPE    C320909  -0.240   0.593   6.729  1.0186  0.2870  0.3449
  183SOPE    HX20910  -0.174   0.674   6.768  0.4894 -0.6566  3.4410
  183SOPE    HY20911  -0.183   0.514   6.676 -0.5017 -0.4817 -0.2056
  183SOPE   O3120912  -0.319   0.552   6.844 -1.1685 -0.0268 -0.1657
  183SOPE   C3120913  -0.364   0.421   6.841  0.3778  0.5425  0.1064
  183SOPE   O3220914  -0.337   0.338   6.755  0.3157 -0.4108 -0.5623
  183SOPE   C3220915  -0.466   0.402   6.963 -0.5239  0.4922  0.3791
  183SOPE   H2X20916  -0.505   0.298   6.968  1.0074 -0.3983 -2.9374
  183SOPE   H2Y20917  -0.552   0.467   6.937 -1.2040 -0.5203  0.0502
  183SOPE   C2320918  -0.429   0.964   6.908  0.1441  0.3292 -0.1836
  183SOPE   H3R20919  -0.372   1.023   6.833 -2.6427  0.5817 -2.2859
  183SOPE   H3S20920  -0.361   0.889   6.954 -0.0329 -1.7850 -3.0602
  183SOPE   C2420921  -0.489   1.050   7.018 -0.5387 -1.1813 -0.1123
  183SOPE   H4R20922  -0.402   1.102   7.064 -0.2292 -2.6868  1.0710
  183SOPE   H4S20923  -0.543   1.139   6.980  0.0003  1.0127  3.8125
  183SOPE   C2520924  -0.570   0.980   7.116  0.3618  0.1229 -0.1596
  183SOPE   H5R20925  -0.668   0.953   7.072 -0.3905 -3.2310  3.0986
  183SOPE   H5S20926  -0.520   0.889   7.155 -0.0768  0.3803  1.0562
  183SOPE   C2620927  -0.605   1.066   7.235  0.8618 -0.9739 -0.0444
  183SOPE   H6R20928  -0.655   1.008   7.315  2.6067 -3.3372 -0.5496
  183SOPE   H6S20929  -0.516   1.114   7.281  0.5807 -0.6844  0.2083
  183SOPE   C2720930  -0.704   1.177   7.201  0.2418  0.7137  1.0219
  183SOPE   H7R20931  -0.654   1.246   7.131  1.2985 -0.8640  0.1599
  183SOPE   H7S20932  -0.784   1.133   7.138  0.2801 -0.5910  1.8426
  183SOPE   C2820933  -0.759   1.256   7.316  0.5670 -0.2292 -0.1175
  183SOPE   H8R20934  -0.826   1.335   7.275 -0.5901 -1.4994 -0.7721
  183SOPE   H8S20935  -0.823   1.199   7.388  3.3347 -1.6124  1.3918
  183SOPE   C2920936  -0.645   1.326   7.399  0.7284  0.1768  0.2225
  183SOPE   H9120937  -0.577   1.392   7.345  1.3337 -0.7211 -0.1394
  183SOPE  C21020938  -0.621   1.311   7.533  0.0188  0.2159  0.3460
  183SOPE  H10120939  -0.532   1.367   7.565 -0.5068  1.0978  0.3151
  183SOPE  C21120940  -0.701   1.234   7.640 -0.0119  0.0938  0.4666
  183SOPE  H11R20941  -0.776   1.160   7.607  1.5201 -0.4922 -1.9677
  183SOPE  H11S20942  -0.757   1.304   7.707  0.2543  2.3043 -1.4896
  183SOPE  C21220943  -0.598   1.145   7.716  0.5677  0.0464  0.2696
  183SOPE  H12R20944  -0.535   1.206   7.784  0.0872 -0.9787  1.6928
  183SOPE  H12S20945  -0.525   1.095   7.649 -0.3892  1.8950 -2.3205
  183SOPE  C21320946  -0.663   1.020   7.783 -0.1523  0.0775 -0.3821
  183SOPE  H13R20947  -0.585   0.969   7.843  0.9871 -0.3383 -2.1595
  183SOPE  H13S20948  -0.697   0.947   7.707  1.6227  0.1027 -1.2388
  183SOPE  C21420949  -0.785   1.042   7.868  1.4926  0.2634 -0.8747
  183SOPE  H14R20950  -0.811   0.948   7.920 -2.0570  1.2115 -0.6949
  183SOPE  H14S20951  -0.871   1.069   7.803 -0.5203 -1.0433  1.1535
  183SOPE  C21520952  -0.763   1.150   7.987  0.4948  0.4793  0.2032
  183SOPE  H15R20953  -0.862   1.163   8.036  0.6586 -0.1920  0.7306
  183SOPE  H15S20954  -0.722   1.236   7.930  2.1960 -1.4288 -1.6121
  183SOPE  C21620955  -0.647   1.118   8.086  0.1604  0.6702  0.0188
  183SOPE  H16R20956  -0.548   1.120   8.035  0.0989  0.4015 -0.1132
  183SOPE  H16S20957  -0.665   1.013   8.118  0.7621 -0.0286 -1.8072
  183SOPE  C21720958  -0.640   1.207   8.208 -0.4570  0.1637  0.6567
  183SOPE  H17R20959  -0.647   1.312   8.171  0.2702 -0.0608 -0.1642
  183SOPE  H17S20960  -0.537   1.190   8.247  0.3098 -1.5134 -1.8230
  183SOPE  C21820961  -0.736   1.170   8.315  0.1417  0.2753 -0.1675
  183SOPE  H18R20962  -0.697   1.206   8.412  1.7489 -1.5266 -0.0849
  183SOPE  H18S20963  -0.732   1.059   8.323  0.3646  0.3565  1.0241
  183SOPE  H18T20964  -0.837   1.203   8.282  0.0961  0.4182  0.1192
  183SOPE   C3320965  -0.414   0.443   7.097  0.4062 -0.3538  0.3154
  183SOPE   H3X20966  -0.383   0.549   7.089  2.0993 -0.7929  0.6471
  183SOPE   H3Y20967  -0.328   0.391   7.144  1.1881 -2.5112 -3.1332
  183SOPE   C3420968  -0.527   0.437   7.199 -0.1296 -0.0786 -0.3172
  183SOPE   H4X20969  -0.562   0.332   7.212 -1.1705  0.2661 -0.2592
  183SOPE   H4Y20970  -0.608   0.510   7.180 -1.4444 -0.7422  2.2525
  183SOPE   C3520971  -0.477   0.469   7.345 -0.4443  0.0986 -0.0202
  183SOPE   H5X20972  -0.388   0.406   7.364 -0.9345 -1.0522 -1.3484
  183SOPE   H5Y20973  -0.560   0.451   7.417 -0.7681 -0.7608 -0.5916
  183SOPE   C3620974  -0.447   0.621   7.363 -0.0207  0.3907 -0.4507
  183SOPE   H6X20975  -0.527   0.673   7.307 -0.9976 -1.5778 -0.9633
  183SOPE   H6Y20976  -0.353   0.637   7.306  1.4724 -2.9617  0.7975
  183SOPE   C3720977  -0.440   0.663   7.510 -0.2133 -0.2128  0.2624
  183SOPE   H7X20978  -0.520   0.615   7.571 -1.3387  1.1058 -0.1242
  183SOPE   H7Y20979  -0.453   0.774   7.512 -0.5255 -0.1267 -2.5169
  183SOPE   C3820980  -0.315   0.640   7.589  0.5989  0.2107  0.0762
  183SOPE   H8X20981  -0.226   0.670   7.529 -0.6823  0.3981 -1.7992
  183SOPE   H8Y20982  -0.297   0.533   7.613  3.1784  1.0032  2.1714
  183SOPE   C3920983  -0.333   0.722   7.716 -0.4724 -0.4867 -0.2552
  183SOPE   H9X20984  -0.397   0.812   7.704 -0.2413 -0.2492  0.2497
  183SOPE   H9Y20985  -0.229   0.748   7.745  0.0841 -0.3657 -2.2172
  183SOPE  C31020986  -0.401   0.645   7.829 -0.2343  0.1983 -0.2031
  183SOPE  H10X20987  -0.337   0.562   7.865 -1.5063  0.1750  2.1959
  183SOPE  H10Y20988  -0.488   0.584   7.797 -0.3572  0.4503 -0.3524
  183SOPE  C31120989  -0.441   0.725   7.952  0.0770  0.0032 -0.5802
  183SOPE  H11X20990  -0.461   0.646   8.027 -1.5045  1.2057  0.3256
  183SOPE  H11Y20991  -0.532   0.788   7.945  1.2197  1.8779  0.5389
  183SOPE  C31220992  -0.327   0.817   7.986 -0.5201 -0.3574 -0.0724
  183SOPE  H12X20993  -0.344   0.900   7.913 -1.0903 -0.7997 -0.4549
  183SOPE  H12Y20994  -0.223   0.783   7.968  0.0193  1.1864 -0.0319
  183SOPE  C31320995  -0.346   0.865   8.128 -0.6171 -0.0770 -0.5405
  183SOPE  H13X20996  -0.456   0.874   8.144 -0.6957  0.6731 -1.4264
  183SOPE  H13Y20997  -0.310   0.970   8.139 -0.0240 -0.4846  2.2057
  183SOPE  C31420998  -0.270   0.762   8.216  0.3089  0.4472 -0.2547
  183SOPE  H14X20999  -0.161   0.784   8.216  0.5262 -0.5469 -0.9904
  183SOPE  H14Y21000  -0.285   0.660   8.177 -1.2462 -0.2341  1.9677
  183SOPE  C31521001  -0.321   0.766   8.364  0.3099  1.1678 -0.3916
  183SOPE  H15X21002  -0.266   0.688   8.420 -0.2291  2.0114  1.4057
  183SOPE  H15Y21003  -0.426   0.729   8.355  0.9638 -0.7504 -0.5030
  183SOPE  C31621004  -0.322   0.898   8.441  0.2912  0.3445 -0.2279
  183SOPE  H16X21005  -0.390   0.963   8.383 -0.4502 -0.9431 -0.8611
  183SOPE  H16Y21006  -0.223   0.948   8.438 -0.4145  1.7067 -1.4677
  183SOPE  C31721007  -0.372   0.894   8.590  0.2931 -0.6529 -0.3957
  183SOPE  H17X21008  -0.437   0.804   8.599 -0.3945  0.0132  2.4774
  183SOPE  H17Y21009  -0.418   0.992   8.615  0.7344 -0.5602  0.0791
  183SOPE  C31821010  -0.259   0.882   8.694  0.4880  0.1371  0.5335
  183SOPE  H18X21011  -0.302   0.884   8.796  1.9128  0.8246  1.1606
  183SOPE  H18Y21012  -0.191   0.970   8.685  1.4474 -0.3810  2.3223
  183SOPE  H18Z21013  -0.183   0.803   8.678  0.8845  0.6737 -0.3681
  184SOPE     N21014   4.919   1.166   5.889  0.1203 -0.3004  0.6756
  184SOPE   HN121015   4.919   1.236   5.966 -0.9419 -1.5791  1.8838
  184SOPE   HN221016   4.915   1.210   5.795  0.5097 -0.3924  0.6132
  184SOPE   HN321017   4.848   1.093   5.908  0.9568 -0.8669  1.7820
  184SOPE   C1221018   5.044   1.085   5.899 -0.1166 -0.4025  0.2796
  184SOPE  H12A21019   5.099   1.126   5.987  0.0871  1.2951 -0.5809
  184SOPE  H12B21020   5.102   1.100   5.805  1.0014 -1.1535  0.8314
  184SOPE   C1121021   5.015   0.935   5.912  0.4997 -0.4966  0.3547
  184SOPE  H11A21022   4.966   0.907   5.816  1.5985 -3.6201  0.6103
  184SOPE  H11B21023   4.940   0.904   5.988  0.3764  0.8564  0.8165
  184SOPE     P21024   5.225   0.829   6.050  0.1173  0.0955  0.3686
  184SOPE   O1321025   5.358   0.894   6.033  0.0177  0.0581  0.4775
  184SOPE   O1421026   5.224   0.685   6.077  0.1188  0.7256  0.2001
  184SOPE   O1221027   5.131   0.861   5.925  0.0997  0.3808 -0.2975
  184SOPE   O1121028   5.149   0.906   6.159 -0.9660 -0.0936  0.0877
  184SOPE    C121029   5.138   0.860   6.291  0.1398 -0.3447 -0.6792
  184SOPE    HA21030   5.238   0.829   6.327  0.7101  0.1354 -1.7942
  184SOPE    HB21031   5.070   0.773   6.297 -1.4566  0.9595  2.5023
  184SOPE    C221032   5.097   0.983   6.379  0.1043  0.4227  0.4562
  184SOPE    HS21033   5.178   1.059   6.371 -1.6437  2.2379 -0.9369
  184SOPE   O2121034   5.068   0.940   6.517  0.3796  0.0552 -0.6648
  184SOPE   C2121035   5.180   0.925   6.598  0.4732 -0.5937 -0.1203
  184SOPE   O2221036   5.293   0.947   6.563 -0.3413 -0.5585  0.3001
  184SOPE   C2221037   5.125   0.867   6.727 -0.5906  0.2190  0.9352
  184SOPE   H2R21038   5.085   0.765   6.708 -1.2415  0.7646 -0.8492
  184SOPE   H2S21039   5.036   0.925   6.759  0.7034  2.6812  0.3054
  184SOPE    C321040   4.969   1.053   6.330  0.6461  0.6088  0.2646
  184SOPE    HX21041   4.888   0.977   6.335 -0.8034  1.7680 -2.8742
  184SOPE    HY21042   4.991   1.082   6.225 -1.8117 -3.0990 -1.5214
  184SOPE   O3121043   4.933   1.167   6.407 -0.1705  0.1435  0.2216
  184SOPE   C3121044   4.805   1.209   6.393  0.6225  0.0880 -1.0228
  184SOPE   O3221045   4.719   1.162   6.330  0.2449 -0.0786  0.6366
  184SOPE   C3221046   4.795   1.335   6.479 -0.2427 -0.4630  0.0961
  184SOPE   H2X21047   4.691   1.371   6.461 -1.1334 -1.9543  1.8805
  184SOPE   H2Y21048   4.874   1.398   6.432 -0.1033  0.1580  1.1237
  184SOPE   C2321049   5.224   0.857   6.846 -0.2243 -0.0148 -0.6464
  184SOPE   H3R21050   5.257   0.960   6.871  0.8294 -0.6937  0.9245
  184SOPE   H3S21051   5.309   0.786   6.838 -0.6948 -0.5313 -1.1492
  184SOPE   C2421052   5.141   0.819   6.969 -0.0974  0.2976 -0.1269
  184SOPE   H4R21053   5.076   0.907   6.989 -0.3938 -0.0923  0.6791
  184SOPE   H4S21054   5.073   0.731   6.955  1.7281 -1.5234  1.7713
  184SOPE   C2521055   5.233   0.790   7.096  0.2415  0.2773  0.7113
  184SOPE   H5R21056   5.267   0.689   7.065 -2.0929  0.5738 -3.4170
  184SOPE   H5S21057   5.318   0.861   7.089  1.6860 -1.5229 -1.4188
  184SOPE   C2621058   5.162   0.792   7.232 -0.7076  0.7014  0.4723
  184SOPE   H6R21059   5.071   0.731   7.249  0.4410 -0.9766  0.8585
  184SOPE   H6S21060   5.231   0.747   7.307  0.4980 -1.4009 -1.7380
  184SOPE   C2721061   5.122   0.926   7.271  0.3812 -0.5414  0.3185
  184SOPE   H7R21062   5.206   0.997   7.259 -0.2915  0.1310 -0.5224
  184SOPE   H7S21063   5.042   0.964   7.204  1.2938  0.1497 -0.4088
  184SOPE   C2821064   5.086   0.933   7.421  0.1048  0.1898  0.1138
  184SOPE   H8R21065   5.037   1.032   7.439  0.8619  0.3098  1.6941
  184SOPE   H8S21066   5.012   0.856   7.450 -0.4000  0.9479  0.8836
  184SOPE   C2921067   5.206   0.939   7.513 -0.3985  0.1627  0.2808
  184SOPE   H9121068   5.286   1.008   7.480  0.5058 -0.0292  1.9216
  184SOPE  C21021069   5.230   0.866   7.625  0.2494 -0.3703  0.1742
  184SOPE  H10121070   5.320   0.892   7.681  0.4627 -0.6413 -0.0439
  184SOPE  C21121071   5.139   0.759   7.689  0.0468  0.3401  0.0111
  184SOPE  H11R21072   5.193   0.665   7.666 -1.5013 -0.6502  0.3050
  184SOPE  H11S21073   5.043   0.750   7.635  0.6710  0.9455 -1.2613
  184SOPE  C21221074   5.108   0.787   7.840 -0.3240 -0.6527  0.0873
  184SOPE  H12R21075   5.202   0.803   7.896 -0.7749  2.9510  0.0796
  184SOPE  H12S21076   5.061   0.698   7.887  0.5325 -1.4286 -0.4936
  184SOPE  C21321077   5.009   0.901   7.876  0.3810  0.8087  0.3604
  184SOPE  H13R21078   4.907   0.877   7.841 -0.8368  0.2211  3.8902
  184SOPE  H13S21079   5.039   0.992   7.821 -1.0128  0.8762 -0.3277
  184SOPE  C21421080   5.003   0.918   8.025  0.3165 -0.6416 -0.2611
  184SOPE  H14R21081   4.953   1.013   8.055  0.9524  0.1262 -1.5396
  184SOPE  H14S21082   5.108   0.935   8.059  0.6153 -1.4208 -0.7754
  184SOPE  C21521083   4.934   0.806   8.101 -1.1019  0.0457 -0.2037
  184SOPE  H15R21084   5.004   0.719   8.099  1.3313  1.8945 -1.1443
  184SOPE  H15S21085   4.835   0.769   8.069 -0.8051 -2.8024  1.7805
  184SOPE  C21621086   4.920   0.843   8.253  0.6139 -0.0996 -0.2359
  184SOPE  H16R21087   4.850   0.929   8.257 -1.0083 -1.1579 -2.9803
  184SOPE  H16S21088   5.019   0.869   8.297 -0.0437  1.3741  0.4557
  184SOPE  C21721089   4.862   0.730   8.344  0.1883 -0.7228 -0.3833
  184SOPE  H17R21090   4.932   0.644   8.339  0.3618 -0.5445 -1.2636
  184SOPE  H17S21091   4.759   0.695   8.322 -0.2046 -0.2145  0.5842
  184SOPE  C21821092   4.871   0.773   8.491  0.2393 -0.4255 -0.6101
  184SOPE  H18R21093   4.836   0.700   8.567 -1.0223  0.0185 -0.7428
  184SOPE  H18S21094   4.807   0.863   8.500  0.0730 -0.6786  1.1145
  184SOPE  H18T21095   4.973   0.808   8.518 -0.2959 -0.3554  1.4853
  184SOPE   C3321096   4.819   1.320   6.629  0.4779 -0.2193  0.5043
  184SOPE   H3X21097   4.897   1.245   6.655  2.5565  0.8563 -2.1969
  184SOPE   H3Y21098   4.727   1.277   6.675  0.2765  0.8792  1.1876
  184SOPE   C3421099   4.833   1.444   6.717 -0.0419 -0.6341  0.0621
  184SOPE   H4X21100   4.756   1.523   6.706  0.1924 -0.0457  2.2167
  184SOPE   H4Y21101   4.930   1.495   6.697 -1.0844  1.4033 -0.1212
  184SOPE   C3521102   4.832   1.399   6.865  0.0281 -0.6519  0.5859
  184SOPE   H5X21103   4.914   1.327   6.882  0.4270 -0.7183 -1.3181
  184SOPE   H5Y21104   4.740   1.337   6.868  0.0867 -0.8537 -0.8268
  184SOPE   C3621105   4.831   1.508   6.973 -0.4610 -0.2135  0.6267
  184SOPE   H6X21106   4.745   1.577   6.960 -0.1869  0.0476  0.1834
  184SOPE   H6Y21107   4.924   1.563   6.949  1.3085 -3.7247 -1.3632
  184SOPE   C3721108   4.827   1.449   7.114 -0.5527 -0.3532 -0.1035
  184SOPE   H7X21109   4.896   1.362   7.118  0.5091  0.5133  1.5234
  184SOPE   H7Y21110   4.723   1.412   7.127 -0.7845  0.9644  2.4950
  184SOPE   C3821111   4.846   1.547   7.229 -0.1992 -0.0478 -0.2908
  184SOPE   H8X21112   4.797   1.642   7.200  1.7431  0.7395 -1.1199
  184SOPE   H8Y21113   4.953   1.577   7.232  0.1805 -1.1119 -1.7108
  184SOPE   C3921114   4.792   1.491   7.359 -0.0044  0.1200 -0.0453
  184SOPE   H9X21115   4.860   1.406   7.380  1.0456  0.6425 -1.2017
  184SOPE   H9Y21116   4.690   1.448   7.349  0.8712 -2.3476  0.7484
  184SOPE  C31021117   4.798   1.578   7.482 -0.1054 -0.4305 -0.9657
  184SOPE  H10X21118   4.778   1.683   7.455 -2.8282 -0.4234  0.6640
  184SOPE  H10Y21119   4.904   1.573   7.516 -0.3171  0.1380 -0.2065
  184SOPE  C31121120   4.703   1.536   7.599 -0.4227  0.2803 -0.4670
  184SOPE  H11X21121   4.736   1.437   7.637 -1.5043 -0.0598 -0.3857
  184SOPE  H11Y21122   4.598   1.534   7.562 -0.3277  0.4266 -0.7450
  184SOPE  C31221123   4.714   1.640   7.713 -0.3799 -0.3531  0.5556
  184SOPE  H12X21124   4.697   1.746   7.685 -2.1483 -0.1654  2.1382
  184SOPE  H12Y21125   4.812   1.632   7.763  0.2506  0.5513 -0.5003
  184SOPE  C31321126   4.630   1.603   7.836  0.5123 -0.0518 -0.2054
  184SOPE  H13X21127   4.665   1.502   7.866 -0.1410  0.2832  1.8385
  184SOPE  H13Y21128   4.525   1.609   7.801  1.4926  1.1726 -3.2183
  184SOPE  C31421129   4.653   1.698   7.954  0.2788 -0.3279  0.6603
  184SOPE  H14X21130   4.564   1.689   8.019  0.7593  0.9377  1.5299
  184SOPE  H14Y21131   4.650   1.806   7.926  0.7000 -0.8329 -1.5577
  184SOPE  C31521132   4.773   1.663   8.036 -0.1672  0.0771  0.1990
  184SOPE  H15X21133   4.857   1.701   7.973 -0.3048  0.5315  0.2832
  184SOPE  H15Y21134   4.784   1.554   8.052  0.6512 -0.1966 -1.8435
  184SOPE  C31621135   4.761   1.738   8.168  0.6258 -0.8783 -0.2204
  184SOPE  H16X21136   4.655   1.763   8.192  1.0021  0.3233  0.2228
  184SOPE  H16Y21137   4.820   1.827   8.139  0.2152 -0.6932 -0.5054
  184SOPE  C31721138   4.830   1.673   8.285 -0.5155 -0.1732 -0.6205
  184SOPE  H17X21139   4.926   1.628   8.252 -0.1782  1.0594 -1.3866
  184SOPE  H17Y21140   4.765   1.595   8.329 -0.4937  1.1251  1.9092
  184SOPE  C31821141   4.864   1.769   8.403  0.7054 -0.1296  0.8449
  184SOPE  H18X21142   4.932   1.852   8.373 -0.6483  0.4608 -0.6906
  184SOPE  H18Y21143   4.923   1.706   8.473  0.8100 -0.4896  0.4331
  184SOPE  H18Z21144   4.782   1.804   8.469 -0.9765 -0.7564 -0.8308
  185SAPI   C1221145   4.092   3.830  10.807 -1.1475  0.1043 -0.0491
  185SAPI    H221146   4.035   3.807  10.715  2.1343  0.7816 -2.4486
  185SAPI    O221147   4.087   3.714  10.892  0.0718  0.4925 -0.5607
  185SAPI   HO221148   3.999   3.688  10.920 -0.1175 -0.0877 -1.6422
  185SAPI   C1321149   4.236   3.852  10.757 -0.3999  0.5025  0.3205
  185SAPI    H321150   4.227   3.926  10.675  1.3745 -0.9650 -1.3016
  185SAPI    O321151   4.292   3.742  10.688 -0.0361 -0.6221 -0.1659
  185SAPI   HO321152   4.284   3.669  10.751  2.4464 -0.6974  0.1485
  185SAPI   C1421153   4.331   3.908  10.865  0.2141  0.9755 -0.1561
  185SAPI    H421154   4.337   3.819  10.932  0.9119  0.6092 -0.6769
  185SAPI    O421155   4.467   3.926  10.818  0.6510  0.1006 -0.0179
  185SAPI   HO421156   4.458   4.013  10.779 -0.0342  0.5602  1.0977
  185SAPI   C1521157   4.273   4.028  10.936 -0.6384 -0.4310 -0.5319
  185SAPI    H521158   4.262   4.101  10.853 -1.1560 -1.3863 -1.3311
  185SAPI    O521159   4.373   4.080  11.031  0.3405  0.3211  0.0689
  185SAPI   HO521160   4.433   4.011  11.059  0.4413 -0.1743 -1.3151
  185SAPI   C1621161   4.133   4.000  10.992  0.0150  0.2258 -0.0619
  185SAPI    H621162   4.141   3.919  11.067  1.3750  0.9980  0.6678
  185SAPI    O621163   4.076   4.116  11.052  0.6735  0.5326  0.3712
  185SAPI   HO621164   3.994   4.132  11.005  1.2296 -1.3348 -1.3784
  185SAPI   C1121165   4.046   3.952  10.873  0.2593 -0.4236 -0.5950
  185SAPI    H121166   4.043   4.027  10.791 -0.1845 -0.7005 -0.8343
  185SAPI     P21167   3.797   4.050  10.876  0.0144  0.3171  0.0974
  185SAPI   O1321168   3.862   4.177  10.911 -0.3081 -0.3014  0.2863
  185SAPI   O1421169   3.669   4.023  10.942  0.0072  0.0310 -0.0824
  185SAPI   O1221170   3.912   3.937  10.917 -0.0657  0.0462 -0.4762
  185SAPI   O1121171   3.778   4.040  10.722 -0.4654 -0.3609 -0.1476
  185SAPI    C121172   3.757   3.923  10.641  0.1919 -0.7325  0.0839
  185SAPI    HA21173   3.839   3.918  10.566  1.2837  2.2453  0.9285
  185SAPI    HB21174   3.754   3.826  10.695  1.2196 -0.2364  1.0674
  185SAPI    C221175   3.620   3.933  10.560 -0.3061  0.0151 -0.4576
  185SAPI    HS21176   3.583   3.829  10.556  2.4490 -1.2169  2.1293
  185SAPI   O2121177   3.649   3.983  10.433 -0.4293 -0.6256  0.2078
  185SAPI   C2121178   3.717   3.912  10.347 -0.0663 -0.3132 -0.0489
  185SAPI   O2221179   3.771   3.805  10.371  0.3679  0.3431 -0.1233
  185SAPI   C2221180   3.724   3.989  10.217  0.4469  0.8963  0.3761
  185SAPI   H2R21181   3.634   4.052  10.200  1.2756  1.9765 -0.1314
  185SAPI   H2S21182   3.809   4.060  10.220  0.0969  1.3296  0.0971
  185SAPI    C321183   3.512   4.011  10.642 -0.4431 -1.0284 -0.2468
  185SAPI    HX21184   3.552   4.106  10.683 -2.0408 -1.5643  2.9021
  185SAPI    HY21185   3.500   3.956  10.738 -0.5541  0.9020  0.8916
  185SAPI   O3121186   3.392   4.037  10.567  0.2226  0.2396 -0.1363
  185SAPI   C3121187   3.306   3.937  10.575  0.0542 -0.0073 -0.3084
  185SAPI   O3221188   3.315   3.836  10.644 -0.6295  0.6417 -0.0938
  185SAPI   C3221189   3.195   3.962  10.478  0.0376  0.0953  0.1956
  185SAPI   H2X21190   3.232   4.039  10.406  0.0814  0.2633  0.3986
  185SAPI   H2Y21191   3.117   4.010  10.541  0.7910  1.1500  0.3518
  185SAPI   C2321192   3.731   3.891  10.091 -0.2982 -0.4304 -0.1272
  185SAPI   H3R21193   3.782   3.796  10.115 -0.5081 -0.1186  1.6992
  185SAPI   H3S21194   3.797   3.945  10.020  0.3043  1.3958  1.7418
  185SAPI   C2421195   3.592   3.864  10.031 -0.1041 -0.6402  0.4793
  185SAPI   H4R21196   3.569   3.952   9.966  1.7498 -2.1314 -2.4074
  185SAPI   H4S21197   3.516   3.843  10.108  0.2949 -1.5587  0.6280
  185SAPI   C2521198   3.606   3.753   9.931  0.2136  0.6288 -0.4121
  185SAPI   H5R21199   3.650   3.661   9.974 -1.4731 -0.2688 -0.5143
  185SAPI   C2621200   3.584   3.764   9.794 -0.5245 -0.0114 -0.2602
  185SAPI   H6R21201   3.599   3.674   9.733 -3.4279  0.5617 -2.0395
  185SAPI   C2721202   3.542   3.887   9.721  0.0031 -0.3568 -0.1492
  185SAPI   H7R21203   3.577   3.982   9.766  2.3768 -1.6884  0.9882
  185SAPI   H7S21204   3.432   3.889   9.739 -0.0166 -0.9485 -0.1826
  185SAPI   C2821205   3.593   3.878   9.581 -0.7418 -0.1890  0.0582
  185SAPI   H8R21206   3.703   3.883   9.578 -0.3356 -4.0717  1.9919
  185SAPI   C2921207   3.524   3.853   9.469  0.0311  0.5445  0.5296
  185SAPI   H9R21208   3.584   3.847   9.377  0.6003 -2.4826  0.9984
  185SAPI  C21021209   3.374   3.822   9.459  0.7493  0.0258 -0.3117
  185SAPI  H10R21210   3.322   3.869   9.373 -2.8429  0.7947  2.0895
  185SAPI  H10S21211   3.326   3.864   9.549  0.9391 -0.5652  0.0728
  185SAPI  C21121212   3.373   3.671   9.463  0.2620  0.1760  0.0963
  185SAPI  H11R21213   3.417   3.626   9.554  1.6677 -2.0319 -1.5717
  185SAPI  C21221214   3.322   3.588   9.371  0.2347 -0.2800 -0.3358
  185SAPI  H12R21215   3.321   3.481   9.396 -0.5710 -0.6185 -1.7174
  185SAPI  C21321216   3.247   3.623   9.245  0.4531 -0.4571  0.0659
  185SAPI  H13R21217   3.231   3.543   9.169  0.6157  1.7981 -2.5024
  185SAPI  H13S21218   3.310   3.702   9.199 -1.1579  1.2355  0.6448
  185SAPI  C21421219   3.114   3.682   9.278 -0.2592  0.1257  0.1474
  185SAPI  H14R21220   3.103   3.737   9.373  2.1298  0.5465  0.2482
  185SAPI  C21521221   3.004   3.662   9.201 -0.0223  0.3998 -0.2177
  185SAPI  H15R21222   2.913   3.709   9.242  0.0362 -1.4440  2.2568
  185SAPI  C21621223   2.992   3.590   9.075 -0.2522 -0.0723  0.0660
  185SAPI  H16R21224   2.892   3.544   9.082  0.2619 -0.9987  1.9040
  185SAPI  H16S21225   3.063   3.505   9.063 -1.1862 -0.6820 -1.3844
  185SAPI  C21721226   3.005   3.679   8.955 -0.2983 -0.0775  0.6627
  185SAPI  H17R21227   3.101   3.733   8.971 -0.0645 -0.3773  0.2734
  185SAPI  H17S21228   2.930   3.759   8.935 -0.5389 -0.4606  0.0229
  185SAPI  C21821229   3.031   3.585   8.834 -0.0131  0.0667 -0.0728
  185SAPI  H18R21230   2.930   3.540   8.825  0.0326  0.2986 -2.1169
  185SAPI  H18S21231   3.104   3.510   8.872 -1.3453 -1.5662 -0.6294
  185SAPI  C21921232   3.056   3.664   8.704 -0.0475  0.5592  0.3864
  185SAPI  H19R21233   3.152   3.720   8.694 -0.0014  0.3651 -0.3186
  185SAPI  H19S21234   2.986   3.748   8.689 -0.1640  0.2794 -0.6939
  185SAPI  C22021235   3.039   3.568   8.578  0.0316  0.0595 -0.3249
  185SAPI  H20R21236   3.066   3.630   8.490  0.2147 -0.1650 -0.4267
  185SAPI  H20S21237   2.931   3.540   8.575  0.5199 -1.9567 -1.1246
  185SAPI  H20T21238   3.107   3.480   8.580  0.5270  0.4436  1.9692
  185SAPI   C3321239   3.137   3.833  10.403 -0.2476 -0.5447 -0.0005
  185SAPI   H3X21240   3.028   3.845  10.385 -0.2268  1.0321  0.7566
  185SAPI   H3Y21241   3.147   3.740  10.462  2.4212  0.9711  2.1682
  185SAPI   C3421242   3.204   3.809  10.270  0.7085 -0.5130 -0.4128
  185SAPI   H4X21243   3.314   3.800  10.283  1.4016  3.6329 -1.8134
  185SAPI   H4Y21244   3.178   3.903  10.216  2.0437  0.4337  0.5253
  185SAPI   C3521245   3.145   3.697  10.176 -0.4743 -0.1808  0.5679
  185SAPI   H5X21246   3.035   3.712  10.179 -0.7453 -1.9245  0.0463
  185SAPI   H5Y21247   3.171   3.599  10.220  1.1791 -1.6303 -3.1685
  185SAPI   C3621248   3.188   3.711  10.024  0.0164 -0.4550 -1.2004
  185SAPI   H6X21249   3.295   3.681  10.026 -0.2049 -1.2808 -1.4431
  185SAPI   H6Y21250   3.173   3.816   9.991  1.9900  1.0400  2.1151
  185SAPI   C3721251   3.119   3.618   9.936 -0.2524  0.3946  0.0171
  185SAPI   H7X21252   3.011   3.645   9.941  0.2269  2.5248 -0.3160
  185SAPI   H7Y21253   3.135   3.512   9.967 -0.2599  1.0823  2.5988
  185SAPI   C3821254   3.164   3.626   9.790 -0.1897 -0.1902 -1.0029
  185SAPI   H8X21255   3.271   3.657   9.795 -0.6657  1.3355  1.3091
  185SAPI   H8Y21256   3.119   3.710   9.734 -1.8476  0.3903  1.0775
  185SAPI   C3921257   3.145   3.503   9.712 -0.1260 -0.3370 -0.4914
  185SAPI   H9X21258   3.146   3.416   9.782 -1.9524 -2.2338 -2.6480
  185SAPI   H9Y21259   3.231   3.481   9.644  0.4654  0.0550  0.1203
  185SAPI  C31021260   3.012   3.469   9.642  0.0716 -0.3000  0.1685
  185SAPI  H10X21261   2.982   3.557   9.581 -0.0356 -0.2128  0.3464
  185SAPI  H10Y21262   2.934   3.448   9.718 -0.2820 -3.4731 -0.9405
  185SAPI  C31121263   3.034   3.339   9.561 -0.6701  0.1360  0.3334
  185SAPI  H11X21264   3.000   3.247   9.612 -3.5604 -0.2793 -2.0685
  185SAPI  H11Y21265   3.140   3.312   9.547 -0.3212  0.9452  1.2538
  185SAPI  C31221266   2.974   3.343   9.420  0.8425  0.2164  0.2020
  185SAPI  H12X21267   3.033   3.420   9.365  0.8374  0.1202  0.0617
  185SAPI  H12Y21268   2.868   3.376   9.413  0.6931 -0.4019 -0.6936
  185SAPI  C31321269   3.006   3.217   9.347  0.2317  0.0626 -0.0484
  185SAPI  H13X21270   2.984   3.126   9.407  1.2186 -0.9047 -1.1069
  185SAPI  H13Y21271   3.114   3.221   9.322  0.1438 -0.1602 -0.4807
  185SAPI  C31421272   2.929   3.206   9.206  0.4426 -0.1819 -0.3649
  185SAPI  H14X21273   2.959   3.287   9.136 -0.7865  0.5008 -0.1326
  185SAPI  H14Y21274   2.820   3.209   9.228  0.0973 -0.6761 -1.8961
  185SAPI  C31521275   2.953   3.074   9.132 -0.1644 -0.0712  0.1139
  185SAPI  H15X21276   2.906   2.993   9.192  1.6963 -2.2641 -1.2038
  185SAPI  H15Y21277   3.064   3.061   9.131  0.3273  3.2745  0.4917
  185SAPI  C31621278   2.888   3.071   8.994  0.4585  0.5254 -0.1945
  185SAPI  H16X21279   2.940   3.141   8.926 -1.0523  0.3156 -1.6427
  185SAPI  H16Y21280   2.782   3.103   8.998 -0.0054 -0.7076 -1.5524
  185SAPI  C31721281   2.892   2.917   8.942  0.5611 -0.7327  0.4733
  185SAPI  H17X21282   2.869   2.866   9.038 -0.8136  1.9144  1.6193
  185SAPI  H17Y21283   2.992   2.876   8.914  1.7085 -0.7756  4.1193
  185SAPI  C31821284   2.788   2.877   8.835  0.0717 -0.0659  0.6895
  185SAPI  H18X21285   2.806   2.940   8.745  4.1126 -1.0616  0.6113
  185SAPI  H18Y21286   2.681   2.879   8.865 -0.3641 -2.3605 -0.4841
  185SAPI  H18Z21287   2.810   2.771   8.809 -0.5262 -1.3302  4.6993
  186SAPI   C1221288   2.962   1.328  11.047 -0.5797  0.1230 -0.1105
  186SAPI    H221289   2.914   1.428  11.053 -0.5893  0.2544 -1.8874
  186SAPI    O221290   3.085   1.332  11.120 -0.2998 -0.1385  0.6023
  186SAPI   HO221291   3.136   1.405  11.084  0.6523 -1.1555 -0.1538
  186SAPI   C1321292   2.867   1.236  11.124 -0.0830  0.0542  0.4656
  186SAPI    H321293   2.771   1.245  11.069  1.3136 -1.8629 -2.5467
  186SAPI    O321294   2.846   1.286  11.256 -0.2084 -0.0695 -0.1989
  186SAPI   HO321295   2.932   1.295  11.297 -0.6151 -1.2720  0.9880
  186SAPI   C1421296   2.903   1.093  11.121  0.1605 -0.8293  0.3691
  186SAPI    H421297   3.001   1.070  11.167  1.3843  0.2145 -1.5868
  186SAPI    O421298   2.799   1.019  11.188  0.1745  0.1648  0.5362
  186SAPI   HO421299   2.767   1.070  11.263  0.9275  0.3282  0.7609
  186SAPI   C1521300   2.909   1.044  10.980 -0.8061 -0.3907 -0.3862
  186SAPI    H521301   2.816   1.059  10.921 -0.1952  0.2864 -1.2024
  186SAPI    O521302   2.936   0.908  10.967  0.1289  0.3092  0.1587
  186SAPI   HO521303   3.032   0.905  10.959  0.3332  0.1254  2.1306
  186SAPI   C1621304   3.002   1.133  10.892 -0.2007  0.1347  0.4551
  186SAPI    H621305   3.106   1.125  10.931  0.2677  1.5356 -0.4492
  186SAPI    O621306   3.001   1.083  10.754 -0.4425 -0.1529 -0.0310
  186SAPI   HO621307   3.082   1.107  10.709 -0.3921  0.9443  0.5993
  186SAPI   C1121308   2.963   1.283  10.898  0.1515 -0.6795  0.5045
  186SAPI    H121309   2.861   1.297  10.857  0.9325  0.7369 -1.0780
  186SAPI     P21310   3.008   1.478  10.729  0.0659 -0.3650  0.6141
  186SAPI   O1321311   3.122   1.533  10.655 -0.1879  0.0682 -0.1486
  186SAPI   O1421312   2.900   1.561  10.793  0.1623  0.0888 -0.0570
  186SAPI   O1221313   3.061   1.361  10.819 -0.3317  0.4494 -0.4804
  186SAPI   O1121314   2.939   1.386  10.617 -0.2478 -0.2015  0.0820
  186SAPI    C121315   2.954   1.405  10.479 -0.4495  0.2471 -0.0091
  186SAPI    HA21316   2.955   1.514  10.458  0.3983  0.5430  1.4166
  186SAPI    HB21317   3.050   1.360  10.447  1.2266  3.4218  0.1071
  186SAPI    C221318   2.834   1.333  10.405 -0.2003  0.3454 -0.2754
  186SAPI    HS21319   2.852   1.226  10.381 -1.0406  0.4430 -1.4501
  186SAPI   O2121320   2.789   1.404  10.294 -0.4734 -0.1805 -0.8417
  186SAPI   C2121321   2.877   1.406  10.192 -0.7241 -0.0056  0.6564
  186SAPI   O2221322   2.989   1.366  10.191 -0.5023  0.2136 -0.0467
  186SAPI   C2221323   2.807   1.468  10.073 -0.9239  0.3457 -0.1239
  186SAPI   H2R21324   2.726   1.399  10.041 -1.9193  1.6625 -0.5455
  186SAPI   H2S21325   2.749   1.551  10.119 -0.1360  2.1457 -2.2047
  186SAPI    C321326   2.711   1.333  10.502 -0.2585 -0.5415  0.1537
  186SAPI    HX21327   2.687   1.438  10.526 -2.9480 -1.0334 -0.0076
  186SAPI    HY21328   2.728   1.279  10.597 -0.8624  1.0976  1.2170
  186SAPI   O3121329   2.584   1.291  10.445  0.0900  0.5102 -0.6753
  186SAPI   C3121330   2.569   1.168  10.410 -0.1750 -0.0252 -0.5901
  186SAPI   O3221331   2.652   1.082  10.410 -0.6849 -0.2703  0.3236
  186SAPI   C3221332   2.423   1.145  10.372  0.0789 -0.3486  0.1424
  186SAPI   H2X21333   2.359   1.192  10.450  1.3116 -1.0809  1.6300
  186SAPI   H2Y21334   2.409   1.037  10.392  0.7993 -0.4043  0.3610
  186SAPI   C2321335   2.902   1.506   9.952  0.3271  1.1801 -0.0311
  186SAPI   H3R21336   2.950   1.418   9.904 -0.5691 -0.0170  1.1652
  186SAPI   H3S21337   2.983   1.572   9.988  2.6339 -0.9060 -1.0847
  186SAPI   C2421338   2.831   1.566   9.830  0.5152  0.1051  0.0344
  186SAPI   H4R21339   2.911   1.612   9.767  0.5806  1.1866  0.8682
  186SAPI   H4S21340   2.758   1.636   9.875  0.8605 -0.1865  1.0684
  186SAPI   C2521341   2.762   1.454   9.755 -0.0045 -0.0461  0.0519
  186SAPI   H5R21342   2.714   1.371   9.809 -2.1081  0.9230 -0.2008
  186SAPI   C2621343   2.746   1.455   9.625 -0.4063  1.0541  0.3514
  186SAPI   H6R21344   2.707   1.363   9.580 -0.6472  2.0763 -1.6149
  186SAPI   C2721345   2.798   1.553   9.524 -0.0536 -0.0831  0.1772
  186SAPI   H7R21346   2.840   1.640   9.578 -3.5406  1.2904  0.9472
  186SAPI   H7S21347   2.716   1.593   9.461  1.6254  1.2300 -1.3003
  186SAPI   C2821348   2.895   1.477   9.429 -0.7360  0.8178  1.3395
  186SAPI   H8R21349   2.974   1.415   9.472 -1.2873 -1.2042 -0.4292
  186SAPI   C2921350   2.891   1.476   9.292  0.1938  0.1852 -0.4648
  186SAPI   H9R21351   2.971   1.423   9.240  1.2826 -0.3266  1.5987
  186SAPI  C21021352   2.781   1.544   9.205  0.1759 -0.0355  0.4544
  186SAPI  H10R21353   2.825   1.572   9.107  1.1234  1.0287  1.1709
  186SAPI  H10S21354   2.730   1.631   9.250  0.5450 -0.0176  0.8403
  186SAPI  C21121355   2.668   1.439   9.183 -1.1209 -0.0721  0.0903
  186SAPI  H11R21356   2.642   1.376   9.270  0.1543  0.9605  1.2705
  186SAPI  C21221357   2.603   1.418   9.069  0.2056 -0.4359  0.7589
  186SAPI  H12R21358   2.532   1.337   9.044 -0.6721  1.1726 -2.5669
  186SAPI  C21321359   2.613   1.496   8.940 -0.5011  0.3599  0.8232
  186SAPI  H13R21360   2.647   1.599   8.963  0.8189  0.8216 -2.5927
  186SAPI  H13S21361   2.523   1.500   8.875 -1.2172 -2.9399  1.4112
  186SAPI  C21421362   2.738   1.447   8.865  0.7214 -0.2897  0.5900
  186SAPI  H14R21363   2.827   1.415   8.921  2.3882  0.1319 -1.6827
  186SAPI  C21521364   2.748   1.459   8.734  0.5993  1.0708 -0.0516
  186SAPI  H15R21365   2.832   1.419   8.674 -0.2849  2.4674 -2.3389
  186SAPI  C21621366   2.639   1.529   8.647  0.0526 -0.1312 -0.2321
  186SAPI  H16R21367   2.688   1.603   8.579  1.9087 -1.8819 -0.9144
  186SAPI  H16S21368   2.553   1.578   8.697  1.5450 -0.1837  2.5582
  186SAPI  C21721369   2.579   1.434   8.545 -0.3632  0.4405  0.2653
  186SAPI  H17R21370   2.487   1.393   8.592  1.0578 -0.5800  2.2809
  186SAPI  H17S21371   2.636   1.339   8.534 -1.2873 -0.2619  1.3355
  186SAPI  C21821372   2.544   1.498   8.406  1.0196  0.7277 -0.6538
  186SAPI  H18R21373   2.531   1.408   8.341  0.3597  0.4407 -0.1420
  186SAPI  H18S21374   2.625   1.558   8.360  1.4385 -0.0136 -0.8950
  186SAPI  C21921375   2.422   1.603   8.414 -0.1521 -0.1544  0.0340
  186SAPI  H19R21376   2.455   1.682   8.343 -1.0635  3.2651  3.1000
  186SAPI  H19S21377   2.420   1.659   8.510 -0.7198 -1.4781  0.8252
  186SAPI  C22021378   2.286   1.549   8.392 -0.0986  0.1904  0.0467
  186SAPI  H20R21379   2.266   1.462   8.458  0.4533 -3.3695 -4.0390
  186SAPI  H20S21380   2.278   1.518   8.285  0.3892 -1.3365  0.4242
  186SAPI  H20T21381   2.210   1.627   8.412 -0.9187 -0.1510 -1.5548
  186SAPI   C3321382   2.387   1.194  10.230  1.2501 -0.3666 -0.5425
  186SAPI   H3X21383   2.386   1.305  10.236 -1.3396 -0.3918  1.8691
  186SAPI   H3Y21384   2.281   1.165  10.215  1.6551 -1.9732 -0.4608
  186SAPI   C3421385   2.475   1.120  10.125  0.2837  0.2567  0.0043
  186SAPI   H4X21386   2.584   1.139  10.132  0.3618 -0.4841  0.9812
  186SAPI   H4Y21387   2.447   1.152  10.022  2.4144  0.0045 -0.6924
  186SAPI   C3521388   2.448   0.966  10.122  0.0384  0.2641  0.0708
  186SAPI   H5X21389   2.340   0.947  10.102 -0.1982 -0.5373  1.8940
  186SAPI   H5Y21390   2.479   0.908  10.211 -4.1588 -0.5317  1.2353
  186SAPI   C3621391   2.514   0.894  10.004 -0.1160 -0.3958 -0.3837
  186SAPI   H6X21392   2.488   0.787  10.017 -0.4869 -0.2267  0.2783
  186SAPI   H6Y21393   2.622   0.896  10.031 -0.3667 -0.4418  0.6445
  186SAPI   C3721394   2.474   0.946   9.868 -0.3435 -0.2879  0.1096
  186SAPI   H7X21395   2.518   1.047   9.857  1.5727 -1.2422 -1.8986
  186SAPI   H7Y21396   2.367   0.976   9.864  0.1863  1.9487  1.4756
  186SAPI   C3821397   2.508   0.861   9.742 -0.7353  0.3497  0.4953
  186SAPI   H8X21398   2.446   0.770   9.754 -2.3517  1.4117  0.5243
  186SAPI   H8Y21399   2.613   0.827   9.745 -0.5415  0.9603  0.8154
  186SAPI   C3921400   2.467   0.927   9.611 -0.4179  0.3083  0.3803
  186SAPI   H9X21401   2.562   0.960   9.562 -1.6289  1.7395 -1.1054
  186SAPI   H9Y21402   2.410   1.019   9.634  2.2651  2.9670 -2.6011
  186SAPI  C31021403   2.396   0.833   9.522 -0.2354 -0.6146 -1.0909
  186SAPI  H10X21404   2.310   0.808   9.587 -0.1549  0.1822 -0.6665
  186SAPI  H10Y21405   2.463   0.747   9.504  2.2857  0.4668  2.2019
  186SAPI  C31121406   2.342   0.898   9.398  0.0320  0.2873  0.2671
  186SAPI  H11X21407   2.296   0.991   9.439  1.6423  0.6104  1.4326
  186SAPI  H11Y21408   2.269   0.830   9.350  2.1114 -1.9626  0.1342
  186SAPI  C31221409   2.450   0.941   9.296  0.2797  0.5595 -0.0726
  186SAPI  H12X21410   2.510   0.852   9.267 -0.0565  0.2563  0.1603
  186SAPI  H12Y21411   2.525   1.020   9.316  3.8103 -1.8136 -2.6099
  186SAPI  C31321412   2.377   0.993   9.170 -0.2198 -0.6567 -0.2415
  186SAPI  H13X21413   2.336   1.092   9.198 -0.9982 -0.9926 -0.1473
  186SAPI  H13Y21414   2.288   0.932   9.143  0.2585 -0.7141 -1.7833
  186SAPI  C31421415   2.465   1.017   9.053 -0.5168  1.1855  0.9649
  186SAPI  H14X21416   2.503   0.919   9.018  1.9433  2.8614 -1.5598
  186SAPI  H14Y21417   2.555   1.075   9.080  0.7697  0.5942 -1.6780
  186SAPI  C31521418   2.396   1.093   8.936 -0.0713  0.7136  0.3361
  186SAPI  H15X21419   2.473   1.116   8.860 -0.0606 -1.0349 -0.2275
  186SAPI  H15Y21420   2.348   1.188   8.970 -1.1593  0.5664 -0.7179
  186SAPI  C31621421   2.296   1.003   8.863 -0.1693 -0.4984 -0.4865
  186SAPI  H16X21422   2.254   0.932   8.937  0.6571 -0.2736  0.2187
  186SAPI  H16Y21423   2.350   0.937   8.791 -1.9687 -1.3976 -1.0850
  186SAPI  C31721424   2.183   1.082   8.800  0.3631  0.1312 -0.1796
  186SAPI  H17X21425   2.125   1.145   8.871  1.4575 -0.5878  1.4026
  186SAPI  H17Y21426   2.101   1.012   8.775  0.6465 -0.2184 -0.1261
  186SAPI  C31821427   2.240   1.156   8.678  0.1162 -0.1378  0.1121
  186SAPI  H18X21428   2.277   1.086   8.601  2.2151  3.8287 -2.8626
  186SAPI  H18Y21429   2.324   1.217   8.718 -0.6628  1.9739 -1.2453
  186SAPI  H18Z21430   2.170   1.229   8.631  1.2518  2.9769  2.8309
  187SAPI   C1221431   6.215   3.954   5.926  0.9404 -0.2631  0.5877
  187SAPI    H221432   6.227   3.915   6.029  1.4253  0.9380  1.0034
  187SAPI    O221433   6.327   4.043   5.914  0.9971 -0.0345  0.0039
  187SAPI   HO221434   6.314   4.116   5.975 -0.9873 -1.3931  1.3501
  187SAPI   C1321435   6.211   3.843   5.820  0.4676 -0.3988 -0.4579
  187SAPI    H321436   6.113   3.798   5.847 -0.0720  2.2428  2.7007
  187SAPI    O321437   6.314   3.755   5.837  0.1615  0.1427  0.3534
  187SAPI   HO321438   6.391   3.811   5.854 -0.7567  1.8472 -0.8353
  187SAPI   C1421439   6.203   3.911   5.683  0.0608 -0.1337  0.7282
  187SAPI    H421440   6.302   3.960   5.669  0.3202 -0.2982  1.8691
  187SAPI    O421441   6.187   3.809   5.577  0.0949  0.3288  0.1891
  187SAPI   HO421442   6.173   3.859   5.497  1.7107  0.3207 -0.1362
  187SAPI   C1521443   6.087   4.009   5.668 -0.3047  0.5944  0.1551
  187SAPI    H521444   5.988   3.960   5.668  0.0016 -0.1311 -1.8767
  187SAPI    O521445   6.094   4.065   5.535  0.0466  0.4663 -0.8383
  187SAPI   HO521446   6.165   4.130   5.532  0.0241  0.5484  0.0462
  187SAPI   C1621447   6.085   4.108   5.782 -0.1935  0.8356  0.0916
  187SAPI    H621448   6.171   4.178   5.769 -0.6421  1.1700 -1.2954
  187SAPI    O621449   5.969   4.189   5.772 -0.1966  0.7115 -0.3361
  187SAPI   HO621450   5.908   4.164   5.842  2.1329  0.1331  1.6496
  187SAPI   C1121451   6.085   4.033   5.920  0.6402 -0.0379  0.7026
  187SAPI    H121452   5.997   3.965   5.916  0.5842  0.0858 -0.4946
  187SAPI     P21453   6.023   4.077   6.181 -0.5611  0.5166 -0.2010
  187SAPI   O1321454   5.906   3.987   6.169  0.8798 -0.1755  0.1416
  187SAPI   O1421455   6.003   4.200   6.268  0.1261 -0.4545 -0.0486
  187SAPI   O1221456   6.082   4.121   6.031 -0.1876 -0.5685 -0.4077
  187SAPI   O1121457   6.147   4.009   6.241  0.4583 -0.3431 -0.2636
  187SAPI    C121458   6.151   3.887   6.316  1.2711  0.0363 -0.5255
  187SAPI    HA21459   6.071   3.821   6.276 -1.1356  2.3040  0.2321
  187SAPI    HB21460   6.244   3.835   6.285  0.8451  0.1199 -1.9874
  187SAPI    C221461   6.138   3.914   6.469  0.3786 -0.3897  0.1773
  187SAPI    HS21462   6.161   3.829   6.537 -1.0472  0.1673  1.4129
  187SAPI   O2121463   6.014   3.977   6.505  0.0357  0.0596  0.1698
  187SAPI   C2121464   5.913   3.899   6.493  0.6639  0.5878  0.1608
  187SAPI   O2221465   5.916   3.783   6.453  0.2469 -0.0229 -0.4780
  187SAPI   C2221466   5.782   3.979   6.535 -1.2928  0.2108 -0.7706
  187SAPI   H2R21467   5.807   4.058   6.610  0.9786  0.3234 -1.5616
  187SAPI   H2S21468   5.749   4.034   6.445 -0.5056 -0.5033 -1.5095
  187SAPI    C321469   6.266   3.997   6.505  0.1845 -0.5894 -0.8497
  187SAPI    HX21470   6.292   4.075   6.430  0.0622  0.5702  0.2671
  187SAPI    HY21471   6.352   3.928   6.493  1.1599  0.7129 -1.5715
  187SAPI   O3121472   6.249   4.048   6.637  0.4954  0.1772 -0.0346
  187SAPI   C3121473   6.211   4.169   6.646 -0.2915 -0.3852  0.2815
  187SAPI   O3221474   6.206   4.254   6.554  0.0915 -0.1392  0.7278
  187SAPI   C3221475   6.173   4.195   6.790  0.3576  0.4324  0.3235
  187SAPI   H2X21476   6.230   4.283   6.826  1.2570 -0.4120  1.0077
  187SAPI   H2Y21477   6.207   4.104   6.844 -1.3355 -1.9976 -2.4093
  187SAPI   C2321478   5.674   3.883   6.594  0.5284 -0.1872 -0.0898
  187SAPI   H3R21479   5.627   3.824   6.512 -0.3570  1.1943 -0.6201
  187SAPI   H3S21480   5.586   3.941   6.629 -1.0227 -1.2626 -1.9758
  187SAPI   C2421481   5.732   3.776   6.695  0.0204 -0.5979  0.3018
  187SAPI   H4R21482   5.802   3.709   6.640  0.5236  1.7631 -2.1450
  187SAPI   H4S21483   5.657   3.707   6.740 -1.3267  0.4445 -0.2684
  187SAPI   C2521484   5.804   3.848   6.804 -0.4620  0.2300  0.2512
  187SAPI   H5R21485   5.763   3.948   6.826  1.1354  1.2694 -1.2244
  187SAPI   C2621486   5.911   3.806   6.874 -0.9182  0.7826  0.5146
  187SAPI   H6R21487   5.953   3.879   6.945  1.3858  1.1193 -1.0935
  187SAPI   C2721488   5.993   3.677   6.842  0.4865  0.5530 -0.3506
  187SAPI   H7R21489   6.078   3.670   6.914 -0.2983 -1.1848  0.4798
  187SAPI   H7S21490   6.034   3.697   6.741 -1.4251  1.9350 -0.9138
  187SAPI   C2821491   5.918   3.543   6.853 -0.9339 -0.0012  0.0059
  187SAPI   H8R21492   5.881   3.497   6.761  0.5265 -1.6099  0.1862
  187SAPI   C2921493   5.894   3.484   6.970 -0.1769 -0.4132  0.1834
  187SAPI   H9R21494   5.849   3.384   6.962  0.2322 -0.5340 -0.6341
  187SAPI  C21021495   5.935   3.533   7.110  0.4632 -0.5401 -0.0141
  187SAPI  H10R21496   6.028   3.594   7.109  0.8091 -0.9419  2.2727
  187SAPI  H10S21497   5.955   3.450   7.181 -0.5969 -0.1740  0.7349
  187SAPI  C21121498   5.836   3.625   7.175  0.0564 -0.2856 -0.9384
  187SAPI  H11R21499   5.738   3.634   7.125 -0.2357  0.5486 -0.2442
  187SAPI  C21221500   5.849   3.695   7.290 -0.3825  0.7337 -0.3358
  187SAPI  H12R21501   5.766   3.755   7.330 -0.3584 -0.4479  1.6285
  187SAPI  C21321502   5.970   3.706   7.382  0.7432  0.2746  0.1014
  187SAPI  H13R21503   5.951   3.805   7.429  2.2105  0.3652  0.5332
  187SAPI  H13S21504   6.060   3.721   7.319 -0.2173  2.5203 -0.8415
  187SAPI  C21421505   5.991   3.591   7.471 -0.3205 -0.0271 -0.2893
  187SAPI  H14R21506   5.961   3.495   7.424  1.3688 -0.6101 -0.2294
  187SAPI  C21521507   6.054   3.598   7.589  0.1069 -0.6390  0.0978
  187SAPI  H15R21508   6.066   3.511   7.655 -1.4014  0.1948  1.5583
  187SAPI  C21621509   6.104   3.725   7.654  0.6250 -0.6751  0.7083
  187SAPI  H16R21510   6.035   3.809   7.629 -1.0418 -2.1046  0.3307
  187SAPI  H16S21511   6.206   3.744   7.614 -0.2893  0.3606 -1.2633
  187SAPI  C21721512   6.105   3.722   7.810 -0.4528  0.8487  0.0489
  187SAPI  H17R21513   6.166   3.811   7.836  1.2488 -0.4835  0.8420
  187SAPI  H17S21514   6.160   3.634   7.849  0.5889  0.6730 -1.7097
  187SAPI  C21821515   5.967   3.726   7.884 -0.4594  0.0037 -0.1757
  187SAPI  H18R21516   5.988   3.735   7.993  0.0673  0.2872 -0.2959
  187SAPI  H18S21517   5.907   3.633   7.874 -1.7944  0.7510  0.5510
  187SAPI  C21921518   5.876   3.851   7.855 -0.2052  0.3147  0.3557
  187SAPI  H19R21519   5.856   3.859   7.746 -1.1156 -1.8112  0.3261
  187SAPI  H19S21520   5.945   3.935   7.879  0.8305 -0.4050 -0.0264
  187SAPI  C22021521   5.743   3.866   7.935  0.0395  0.1673  0.7340
  187SAPI  H20R21522   5.745   3.823   8.037  1.1716 -4.4962 -0.9624
  187SAPI  H20S21523   5.658   3.814   7.886  0.9085  0.5004 -1.2254
  187SAPI  H20T21524   5.721   3.975   7.932 -1.9686 -0.2053 -1.6502
  187SAPI   C3321525   6.028   4.214   6.808  0.9848  0.5639  0.7677
  187SAPI   H3X21526   5.967   4.130   6.769  1.3030 -0.4966  2.4752
  187SAPI   H3Y21527   5.999   4.298   6.741  0.3879  1.0423  1.6209
  187SAPI   C3421528   5.990   4.226   6.957 -0.6341  0.3378  0.1375
  187SAPI   H4X21529   5.996   4.122   6.995  3.2454  0.1636 -0.5397
  187SAPI   H4Y21530   5.881   4.249   6.960 -0.9990 -1.3624  0.8600
  187SAPI   C3521531   6.081   4.306   7.051 -0.3143  0.0926 -0.2278
  187SAPI   H5X21532   6.122   4.399   7.007  0.3856 -0.4299 -0.6916
  187SAPI   H5Y21533   6.163   4.234   7.072 -0.0434  0.3134 -0.5186
  187SAPI   C3621534   6.014   4.353   7.185  0.2995  1.0611 -0.1005
  187SAPI   H6X21535   5.933   4.424   7.159 -0.0108  0.7725  0.0784
  187SAPI   H6Y21536   6.100   4.413   7.224  0.0505  2.8178 -2.0630
  187SAPI   C3721537   5.962   4.239   7.269 -0.3724 -0.5120  0.5388
  187SAPI   H7X21538   6.040   4.160   7.276  1.7127  1.1304 -2.4426
  187SAPI   H7Y21539   5.880   4.199   7.206  1.3119 -2.8200 -0.3413
  187SAPI   C3821540   5.927   4.278   7.414 -0.4456 -0.3860  0.4803
  187SAPI   H8X21541   5.869   4.191   7.449  0.7442 -0.6793  1.8449
  187SAPI   H8Y21542   5.864   4.369   7.413 -0.7527 -0.5722  1.6183
  187SAPI   C3921543   6.048   4.288   7.512  0.3290 -0.4046  0.2386
  187SAPI   H9X21544   6.133   4.337   7.461  0.3567 -0.6931  0.0029
  187SAPI   H9Y21545   6.096   4.192   7.542 -0.3663 -0.4872  1.1346
  187SAPI  C31021546   6.020   4.358   7.642 -1.0535 -0.2080 -0.7643
  187SAPI  H10X21547   5.965   4.452   7.623  0.2109  0.7218  0.0141
  187SAPI  H10Y21548   6.122   4.388   7.675 -1.7179  1.6065 -0.2186
  187SAPI  C31121549   5.950   4.268   7.748 -0.0737 -0.6286  0.8325
  187SAPI  H11X21550   6.006   4.172   7.749 -1.0191 -1.2528 -1.1530
  187SAPI  H11Y21551   5.846   4.237   7.725  0.0169 -0.6183  0.4010
  187SAPI  C31221552   5.947   4.338   7.890  0.8766  0.0772 -0.4757
  187SAPI  H12X21553   5.852   4.396   7.888  1.0643  0.5219  1.4298
  187SAPI  H12Y21554   6.031   4.409   7.907  2.2365 -1.3746 -0.9474
  187SAPI  C31321555   5.934   4.238   8.002  0.0196  0.5159 -0.7600
  187SAPI  H13X21556   6.008   4.156   8.007 -2.8460 -2.2107  1.1642
  187SAPI  H13Y21557   5.841   4.178   7.987  1.2575 -1.5313 -0.7000
  187SAPI  C31421558   5.931   4.298   8.146 -0.2394 -0.0113 -0.3943
  187SAPI  H14X21559   5.918   4.223   8.227 -2.2763 -0.1040 -0.7490
  187SAPI  H14Y21560   5.840   4.362   8.154 -2.1154 -2.5139 -0.6691
  187SAPI  C31521561   6.053   4.386   8.191 -0.1725 -0.1572 -0.0847
  187SAPI  H15X21562   6.078   4.453   8.107  0.0381  0.5328  0.5157
  187SAPI  H15Y21563   6.145   4.323   8.199  0.3952  0.3367 -2.1815
  187SAPI  C31621564   6.022   4.461   8.320 -0.0808  0.1844 -0.3565
  187SAPI  H16X21565   6.011   4.387   8.402  1.0207  1.5375  1.0697
  187SAPI  H16Y21566   5.931   4.524   8.315  0.4653  0.9889 -0.3685
  187SAPI  C31721567   6.138   4.553   8.369  0.4818  0.0717  0.5290
  187SAPI  H17X21568   6.102   4.631   8.439 -0.0946  0.3416 -0.0607
  187SAPI  H17Y21569   6.178   4.613   8.285  1.5358 -1.7753 -0.3664
  187SAPI  C31821570   6.253   4.472   8.427  0.0214 -0.0769 -0.7770
  187SAPI  H18X21571   6.243   4.422   8.526  0.3197 -0.8116 -1.1103
  187SAPI  H18Y21572   6.347   4.530   8.439 -0.4484  0.9097 -1.7318
  187SAPI  H18Z21573   6.288   4.390   8.361 -0.9185 -0.4894 -0.7828
  188SAPI   C1221574   1.125   5.999   6.583  0.2237 -0.5312  0.1844
  188SAPI    H221575   1.146   6.055   6.676 -2.5943  0.4012  0.3767
  188SAPI    O221576   1.246   6.017   6.509  0.2375  1.0518 -0.0662
  188SAPI   HO221577   1.289   6.094   6.547  0.6737  0.1960  1.2407
  188SAPI   C1321578   1.097   5.852   6.605  0.7517 -0.4658 -0.1992
  188SAPI    H321579   0.999   5.853   6.657  0.5415  0.7082 -0.5863
  188SAPI    O321580   1.210   5.792   6.673 -0.0433  0.1652 -0.0010
  188SAPI   HO321581   1.289   5.841   6.650 -0.2344  0.8239  0.7123
  188SAPI   C1421582   1.076   5.783   6.474  0.2648  0.0714 -0.0520
  188SAPI    H421583   1.160   5.803   6.403  0.7284  3.2733  1.2459
  188SAPI    O421584   1.064   5.642   6.491 -0.4516 -0.4975 -0.0362
  188SAPI   HO421585   1.154   5.614   6.473 -0.3226  0.5499 -1.1573
  188SAPI   C1521586   0.949   5.843   6.414  0.2548  0.2834  0.7094
  188SAPI    H521587   0.869   5.822   6.488 -1.0009 -1.6253 -1.0769
  188SAPI    O521588   0.913   5.775   6.296  0.0408  0.1347 -0.1382
  188SAPI   HO521589   0.817   5.784   6.289  0.2509  1.3432 -3.0691
  188SAPI   C1621590   0.967   5.991   6.391  0.8520  0.2141  0.7165
  188SAPI    H621591   1.043   6.010   6.312 -0.2856 -0.3492 -0.5451
  188SAPI    O621592   0.846   6.051   6.339 -0.2314  0.6542 -0.4253
  188SAPI   HO621593   0.872   6.142   6.322 -2.0918  0.8374 -2.7686
  188SAPI   C1121594   1.005   6.064   6.517  0.2315  0.7576  0.0883
  188SAPI    H121595   0.919   6.047   6.586  1.2938 -2.5630  0.7752
  188SAPI     P21596   0.941   6.325   6.511  0.2848  0.1090 -0.0390
  188SAPI   O1321597   0.848   6.311   6.396 -0.2789  0.3288 -0.2446
  188SAPI   O1421598   1.014   6.457   6.520 -0.0487  0.1503  0.2117
  188SAPI   O1221599   1.043   6.198   6.514 -0.5865  0.0118 -0.0251
  188SAPI   O1121600   0.855   6.309   6.643  0.6140 -0.7480 -0.3061
  188SAPI    C121601   0.773   6.426   6.687 -0.1798  0.1853  0.3132
  188SAPI    HA21602   0.844   6.511   6.686  1.9129 -1.4816 -0.5846
  188SAPI    HB21603   0.687   6.450   6.620 -0.1007 -0.4338 -0.0134
  188SAPI    C221604   0.736   6.417   6.840  0.6713  0.4763  0.2321
  188SAPI    HS21605   0.668   6.503   6.857  1.2900  1.2546 -1.0851
  188SAPI   O2121606   0.853   6.427   6.920 -0.2745 -0.0912 -0.3761
  188SAPI   C2121607   0.908   6.548   6.920 -0.3858  0.1982 -0.6125
  188SAPI   O2221608   0.861   6.654   6.885 -0.2034 -0.4292 -0.0204
  188SAPI   C2221609   1.049   6.536   6.981  0.2603  0.0085 -0.6882
  188SAPI   H2R21610   1.073   6.428   6.994  1.5967  0.4285  0.6272
  188SAPI   H2S21611   1.124   6.581   6.912  0.3757 -0.5622 -0.9467
  188SAPI    C321612   0.663   6.287   6.878  0.6397  0.1076  0.6527
  188SAPI    HX21613   0.731   6.203   6.850  0.4232  0.0292  0.3541
  188SAPI    HY21614   0.574   6.276   6.813  1.0756 -0.5368  0.1470
  188SAPI   O3121615   0.629   6.290   7.019 -0.4890  0.5642 -0.0968
  188SAPI   C3121616   0.687   6.204   7.099 -1.0951  0.9506 -0.1480
  188SAPI   O3221617   0.758   6.109   7.076 -0.0162  0.1680 -0.6753
  188SAPI   C3221618   0.654   6.252   7.240 -0.1062 -1.1854 -0.5076
  188SAPI   H2X21619   0.543   6.244   7.245 -0.1966 -0.5580 -1.3213
  188SAPI   H2Y21620   0.675   6.359   7.260  0.8972 -1.2641 -1.0980
  188SAPI   C2321621   1.056   6.609   7.118  0.2526  0.1293  0.8477
  188SAPI   H3R21622   1.032   6.717   7.115  0.7512  0.3010  2.3689
  188SAPI   H3S21623   1.158   6.592   7.157  0.7867 -2.6229 -1.4391
  188SAPI   C2421624   0.963   6.544   7.223  0.2542  0.3090 -0.1253
  188SAPI   H4R21625   0.860   6.548   7.183 -0.1790 -2.1864  0.5856
  188SAPI   H4S21626   0.959   6.608   7.314 -0.8232  0.4519 -0.2651
  188SAPI   C2521627   0.992   6.404   7.267  0.5370 -0.2272  0.5142
  188SAPI   H5R21628   0.948   6.320   7.211  1.3668 -0.3820  0.0725
  188SAPI   C2621629   1.069   6.380   7.377 -0.4245 -0.1791 -0.4737
  188SAPI   H6R21630   1.096   6.277   7.405 -0.5510  0.5779  2.7768
  188SAPI   C2721631   1.138   6.476   7.477  0.4359 -0.2423 -0.0171
  188SAPI   H7R21632   1.173   6.566   7.422  0.3464 -1.6020 -2.4261
  188SAPI   H7S21633   1.228   6.426   7.521 -0.3291  0.0510  1.9658
  188SAPI   C2821634   1.036   6.504   7.581 -0.4348 -1.1352  0.2690
  188SAPI   H8R21635   0.949   6.565   7.553 -0.1367 -1.6104 -1.8311
  188SAPI   C2921636   1.037   6.460   7.708  0.2812 -0.0625  0.2550
  188SAPI   H9R21637   0.967   6.484   7.789 -0.0701  0.2671 -0.1468
  188SAPI  C21021638   1.142   6.369   7.764 -0.6115  0.7695  0.5388
  188SAPI  H10R21639   1.237   6.367   7.706 -1.3257  0.5468 -0.6522
  188SAPI  H10S21640   1.088   6.274   7.744  0.6563  0.0968  0.1337
  188SAPI  C21121641   1.181   6.396   7.906  0.0601  0.5295  0.3263
  188SAPI  H11R21642   1.114   6.343   7.975  1.1054 -0.0668  0.9009
  188SAPI  C21221643   1.266   6.483   7.957  0.1205 -1.0198  0.5274
  188SAPI  H12R21644   1.268   6.510   8.063  0.0477  3.3483 -0.3993
  188SAPI  C21321645   1.353   6.570   7.867  0.9269 -0.0763  0.2703
  188SAPI  H13R21646   1.353   6.679   7.888 -0.3362  0.1581 -0.8406
  188SAPI  H13S21647   1.313   6.565   7.764  2.6791 -0.5335 -0.4325
  188SAPI  C21421648   1.485   6.501   7.852  0.8038  0.2857  0.6472
  188SAPI  H14R21649   1.489   6.407   7.797  0.3937  0.5604  0.1416
  188SAPI  C21521650   1.595   6.539   7.918  0.3570  0.0806 -0.9101
  188SAPI  H15R21651   1.680   6.470   7.923 -0.4650 -0.9203  0.0135
  188SAPI  C21621652   1.614   6.655   8.019 -0.6662  0.2034  0.7948
  188SAPI  H16R21653   1.535   6.733   8.023  1.1622  2.2881 -0.6966
  188SAPI  H16S21654   1.693   6.725   7.983 -0.7502 -0.2396 -0.2900
  188SAPI  C21721655   1.625   6.588   8.150 -1.1886  0.4740 -0.0132
  188SAPI  H17R21656   1.537   6.526   8.175 -0.2091 -0.3412  1.5878
  188SAPI  H17S21657   1.627   6.670   8.225 -0.8580  0.1073  0.3849
  188SAPI  C21821658   1.755   6.502   8.160  0.2350  0.2792 -0.0647
  188SAPI  H18R21659   1.844   6.551   8.116 -0.6737  1.9059 -0.1663
  188SAPI  H18S21660   1.743   6.402   8.113  0.4508  1.3885 -2.6339
  188SAPI  C21921661   1.786   6.470   8.308  0.5119  0.7510 -0.2003
  188SAPI  H19R21662   1.713   6.399   8.353  1.0328 -0.2356 -0.8805
  188SAPI  H19S21663   1.776   6.564   8.368 -0.6122 -0.9771  2.5162
  188SAPI  C22021664   1.921   6.399   8.335  0.1308  0.4489  0.2638
  188SAPI  H20R21665   1.963   6.396   8.437 -1.5333 -1.2104  0.9618
  188SAPI  H20S21666   1.998   6.438   8.265  0.7176 -0.2744  0.5074
  188SAPI  H20T21667   1.916   6.292   8.306  1.1900  0.2491  0.8065
  188SAPI   C3321668   0.714   6.161   7.346  0.2085 -0.7291  0.3676
  188SAPI   H3X21669   0.817   6.200   7.359  0.4275 -0.3438 -1.9865
  188SAPI   H3Y21670   0.719   6.055   7.313 -2.0095 -0.6780 -0.3047
  188SAPI   C3421671   0.644   6.168   7.484  0.0576  0.1814  0.0487
  188SAPI   H4X21672   0.685   6.087   7.550  1.5734 -0.7649 -1.9471
  188SAPI   H4Y21673   0.536   6.146   7.470 -0.0962  0.5917  0.5374
  188SAPI   C3521674   0.660   6.313   7.534 -0.4812 -0.0526  0.4118
  188SAPI   H5X21675   0.602   6.378   7.465 -1.6107 -1.1597  0.2624
  188SAPI   H5Y21676   0.767   6.341   7.527  0.0631 -1.9661  0.3419
  188SAPI   C3621677   0.618   6.328   7.676  0.2712  0.5595 -0.6972
  188SAPI   H6X21678   0.514   6.292   7.690  0.3377  0.4741 -0.4000
  188SAPI   H6Y21679   0.613   6.438   7.696  0.4811  0.4490  0.0047
  188SAPI   C3721680   0.707   6.259   7.780  0.6529 -0.8206  0.1380
  188SAPI   H7X21681   0.815   6.278   7.765  0.6295 -1.4890 -0.9644
  188SAPI   H7Y21682   0.691   6.149   7.771 -1.8348 -0.4513 -0.6913
  188SAPI   C3821683   0.675   6.306   7.928  0.4210 -0.5458 -0.0144
  188SAPI   H8X21684   0.685   6.222   8.000  0.7900 -0.2213  0.3266
  188SAPI   H8Y21685   0.568   6.332   7.935  0.5203  0.0624 -0.6395
  188SAPI   C3921686   0.780   6.409   7.966 -0.1719  0.0974 -0.4177
  188SAPI   H9X21687   0.761   6.510   7.923 -0.1158 -0.3769 -1.6006
  188SAPI   H9Y21688   0.885   6.380   7.943 -0.4026  0.3912 -1.9044
  188SAPI  C31021689   0.792   6.438   8.116  0.3673  0.3686  0.0214
  188SAPI  H10X21690   0.808   6.349   8.181  0.8641  0.9434  0.6888
  188SAPI  H10Y21691   0.693   6.483   8.140  0.6680  0.4531  1.1302
  188SAPI  C31121692   0.896   6.538   8.139  0.3771 -0.1258 -0.1058
  188SAPI  H11X21693   0.890   6.610   8.054  1.0428  0.5113  0.3749
  188SAPI  H11Y21694   0.998   6.493   8.132  0.4881 -0.1498  1.4345
  188SAPI  C31221695   0.871   6.620   8.268 -0.0707 -0.6131 -0.9184
  188SAPI  H12X21696   0.777   6.675   8.246 -0.7245 -0.3819  2.0365
  188SAPI  H12Y21697   0.937   6.708   8.287 -1.3575  0.2694 -0.4071
  188SAPI  C31321698   0.855   6.537   8.404  0.9215  0.2273 -0.7236
  188SAPI  H13X21699   0.912   6.442   8.399 -0.4457 -0.6231 -0.8646
  188SAPI  H13Y21700   0.749   6.505   8.416  0.4924  1.9627  0.3463
  188SAPI  C31421701   0.894   6.626   8.523  0.4314  0.2715 -0.3667
  188SAPI  H14X21702   0.821   6.710   8.531 -0.0306 -0.0267 -1.3137
  188SAPI  H14Y21703   0.994   6.669   8.504  0.8714 -0.1706  0.8451
  188SAPI  C31521704   0.904   6.544   8.651 -0.1269  0.6911  0.3961
  188SAPI  H15X21705   0.992   6.477   8.646  0.0973  0.7393  2.5777
  188SAPI  H15Y21706   0.810   6.486   8.666  0.0058  1.1074  3.5776
  188SAPI  C31621707   0.903   6.615   8.785 -0.5031 -0.7102 -1.0468
  188SAPI  H16X21708   0.891   6.540   8.865  1.2833 -1.0710 -1.0774
  188SAPI  H16Y21709   0.818   6.686   8.792 -1.5230 -1.8956 -1.2368
  188SAPI  C31721710   1.031   6.703   8.799 -0.1142  0.1216  0.3016
  188SAPI  H17X21711   1.053   6.744   8.698 -1.7047 -0.4341 -0.2971
  188SAPI  H17Y21712   1.119   6.635   8.803 -1.0635 -1.0934  1.4183
  188SAPI  C31821713   1.041   6.815   8.906  0.0321 -0.1961  0.2996
  188SAPI  H18X21714   1.004   6.778   9.004 -0.6465 -1.2774 -0.3430
  188SAPI  H18Y21715   0.979   6.904   8.883  0.1400 -0.4815 -1.1790
  188SAPI  H18Z21716   1.149   6.836   8.918  0.5139 -2.5713  0.6283
  189POPC     N21717   0.385   1.244  11.080  0.3362 -0.0910 -0.1641
  189POPC   C1221718   0.390   1.142  10.965 -0.1561  0.4824 -0.2704
  189POPC  H12A21719   0.298   1.087  10.961 -0.2045  0.6005 -0.8394
  189POPC  H12B21720   0.453   1.057  10.990 -3.0276 -1.7052  0.1259
  189POPC   C1321721   0.344   1.164  11.206 -0.7231 -0.3019  0.4048
  189POPC  H13A21722   0.434   1.112  11.235 -0.3547  0.1437  0.0845
  189POPC  H13B21723   0.311   1.228  11.286 -2.7233 -0.2029 -0.4345
  189POPC  H13C21724   0.262   1.096  11.187 -1.5358  1.0799 -1.3764
  189POPC   C1421725   0.518   1.311  11.108 -0.7041 -0.3560 -0.0749
  189POPC  H14A21726   0.543   1.397  11.047  3.3365  0.1063  1.8731
  189POPC  H14B21727   0.526   1.340  11.212  0.5294  1.2474 -0.5862
  189POPC  H14C21728   0.604   1.246  11.105  0.0295  0.5911 -0.1377
  189POPC   C1521729   0.277   1.338  11.041 -0.3987 -0.5674 -0.0805
  189POPC  H15A21730   0.277   1.423  11.107 -2.3993  0.3628 -1.2042
  189POPC  H15B21731   0.181   1.289  11.040 -0.3810 -0.7363  1.9105
  189POPC  H15C21732   0.300   1.387  10.947 -0.3968 -0.6467 -0.1217
  189POPC   C1121733   0.426   1.198  10.829  0.5656  0.6243  0.3551
  189POPC  H11A21734   0.361   1.286  10.812 -2.5073 -1.1797  1.9404
  189POPC  H11B21735   0.395   1.127  10.749  0.4769 -1.4009  2.0878
  189POPC     P21736   0.678   1.154  10.764 -0.2210 -0.1510  0.0733
  189POPC   O1321737   0.641   1.013  10.745 -0.6845 -0.3620 -0.3294
  189POPC   O1421738   0.796   1.177  10.850 -0.6693  0.6873 -0.2767
  189POPC   O1221739   0.566   1.245  10.822 -0.0328 -0.0120  0.2866
  189POPC   O1121740   0.714   1.216  10.627 -0.2576 -0.1579 -0.2406
  189POPC    C121741   0.628   1.309  10.567 -0.2685 -0.2175 -0.3515
  189POPC    HA21742   0.601   1.402  10.622 -0.4324 -0.3268 -0.2457
  189POPC    HB21743   0.539   1.249  10.539  0.3384 -1.0791 -0.4791
  189POPC    C221744   0.691   1.364  10.442 -0.7534 -0.0938  1.3834
  189POPC    HS21745   0.629   1.450  10.408 -0.2178  0.5136  1.9346
  189POPC   O2121746   0.692   1.265  10.337 -0.6425  0.3174 -0.2932
  189POPC   C2121747   0.582   1.236  10.278  0.3681 -0.2769  0.6190
  189POPC   O2221748   0.473   1.286  10.298  0.3921 -0.0419 -0.2350
  189POPC   C2221749   0.609   1.150  10.155  0.2510  0.4307 -0.3527
  189POPC   H2R21750   0.681   1.070  10.180 -1.5177 -0.9136  0.7117
  189POPC   H2S21751   0.651   1.213  10.074  0.9249 -0.1060 -0.4229
  189POPC    C321752   0.831   1.418  10.466 -0.4549 -0.2463 -0.3696
  189POPC    HX21753   0.893   1.339  10.512  0.7616  0.7042 -0.3244
  189POPC    HY21754   0.825   1.502  10.538 -0.1431  1.2208 -1.9773
  189POPC   O3121755   0.900   1.472  10.349 -0.0348  0.0838  0.7313
  189POPC   C3121756   0.884   1.598  10.313 -0.0915  0.2472 -0.5174
  189POPC   O3221757   0.820   1.680  10.385 -0.0587  0.1174 -0.2627
  189POPC   C3221758   0.946   1.634  10.187 -0.3142 -0.3087  0.1796
  189POPC   H2X21759   0.904   1.729  10.147 -0.0461 -0.6004 -0.8117
  189POPC   H2Y21760   0.920   1.555  10.114 -0.7516  0.2447 -0.2725
  189POPC   C2321761   0.476   1.080  10.099  0.0053 -0.3393  0.2973
  189POPC   H3R21762   0.385   1.142  10.109  0.8537  0.7473  1.5944
  189POPC   H3S21763   0.451   0.987  10.154  0.3121 -0.5447  0.0961
  189POPC   C2421764   0.490   1.049   9.948  0.4441  0.0576 -0.0522
  189POPC   H4R21765   0.504   1.145   9.895  0.1918 -0.4395 -1.0465
  189POPC   H4S21766   0.395   1.007   9.909 -0.0239  2.7472 -2.0758
  189POPC   C2521767   0.601   0.949   9.918 -0.0001  0.4867 -0.1672
  189POPC   H5R21768   0.607   0.877  10.003  1.4930 -1.2089 -1.6327
  189POPC   H5S21769   0.693   1.011   9.921 -0.1328  0.6903 -0.3024
  189POPC   C2621770   0.588   0.869   9.789  0.1988 -0.5777 -0.6729
  189POPC   H6R21771   0.495   0.809   9.791 -2.5616  3.2945 -0.8170
  189POPC   H6S21772   0.677   0.803   9.783 -1.7103 -3.1912 -2.4412
  189POPC   C2721773   0.585   0.967   9.672 -0.5454 -0.5503  0.5917
  189POPC   H7R21774   0.664   1.045   9.676 -2.0484  1.1760 -1.3813
  189POPC   H7S21775   0.486   1.016   9.661 -0.3888 -0.4206 -0.3463
  189POPC   C2821776   0.615   0.898   9.538 -0.2293  0.0684 -0.1568
  189POPC   H8R21777   0.716   0.852   9.539 -1.1212 -1.9725 -0.1002
  189POPC   H8S21778   0.607   0.981   9.464  1.5142 -0.9387 -1.5659
  189POPC   C2921779   0.513   0.797   9.503 -0.9992  0.1793 -0.9158
  189POPC   H9121780   0.490   0.726   9.584 -3.3674  0.5139 -1.2243
  189POPC  C21021781   0.442   0.787   9.392 -0.3342 -0.5548  0.5624
  189POPC  H10121782   0.371   0.703   9.379  1.6854 -2.0077 -2.2132
  189POPC  C21121783   0.451   0.879   9.269 -0.2800  0.1588 -1.1964
  189POPC  H11R21784   0.448   0.988   9.295 -1.8286 -0.3071  0.8815
  189POPC  H11S21785   0.363   0.867   9.203  0.2563 -0.1802 -1.8584
  189POPC  C21221786   0.577   0.857   9.183 -0.3277  0.4346 -0.5924
  189POPC  H12R21787   0.575   0.756   9.138  3.1560 -0.0158  0.0126
  189POPC  H12S21788   0.667   0.857   9.249 -2.0626  1.7407  1.9350
  189POPC  C21321789   0.589   0.966   9.072 -0.5234 -0.1479 -0.3489
  189POPC  H13R21790   0.622   1.057   9.126 -0.5157  0.3822 -1.2371
  189POPC  H13S21791   0.486   0.984   9.033 -0.9276  0.0931  0.7792
  189POPC  C21421792   0.694   0.928   8.967 -0.0121 -0.1401  0.2778
  189POPC  H14R21793   0.778   0.875   9.017 -0.5134 -2.0751 -0.8310
  189POPC  H14S21794   0.745   1.024   8.947  1.9895 -1.4949 -1.6109
  189POPC  C21521795   0.642   0.861   8.843 -0.1049  0.3419  0.4686
  189POPC  H15R21796   0.556   0.918   8.803 -0.5429 -1.2221 -0.9312
  189POPC  H15S21797   0.599   0.761   8.868  1.0904 -0.6167 -1.0893
  189POPC  C21621798   0.746   0.845   8.732  0.5545  0.0446  0.2090
  189POPC  H16R21799   0.839   0.791   8.758  0.5813  0.1058  0.2411
  189POPC  H16S21800   0.781   0.948   8.709  4.6834 -0.9479  1.1969
  189POPC  C21721801   0.676   0.799   8.598  0.3925 -0.3012 -0.5575
  189POPC  H17R21802   0.599   0.875   8.571  0.1064 -0.9819 -1.7450
  189POPC  H17S21803   0.627   0.701   8.613  0.0858 -0.0900 -0.1475
  189POPC  C21821804   0.774   0.790   8.488 -0.2270 -0.3361  0.5825
  189POPC  H18R21805   0.825   0.885   8.463 -0.5217 -0.3939 -0.2452
  189POPC  H18S21806   0.739   0.744   8.393  0.6212 -0.0116  0.1027
  189POPC  H18T21807   0.865   0.732   8.517  1.0210  0.7566 -0.9872
  189POPC   C3321808   1.104   1.650  10.191 -0.2399 -0.1372 -0.1082
  189POPC   H3X21809   1.140   1.573  10.261  0.6434 -2.5930 -3.0791
  189POPC   H3Y21810   1.147   1.745  10.230  2.7333  0.1200 -3.5319
  189POPC   C3421811   1.167   1.625  10.049 -0.0960  0.4937 -0.7329
  189POPC   H4X21812   1.096   1.554  10.001 -0.5338 -0.0270  0.6552
  189POPC   H4Y21813   1.267   1.579  10.064 -0.9097 -1.8453 -2.0745
  189POPC   C3521814   1.185   1.749   9.960  0.1570  0.0566 -0.7765
  189POPC   H5X21815   1.232   1.822  10.029  0.9721 -0.3419 -0.8995
  189POPC   H5Y21816   1.086   1.789   9.928  0.9364  1.5970 -1.3498
  189POPC   C3621817   1.262   1.721   9.835  0.1712 -0.2529 -0.6736
  189POPC   H6X21818   1.351   1.663   9.867  0.2920 -0.1916 -0.8966
  189POPC   H6Y21819   1.285   1.814   9.779 -0.2135  1.3045  1.6067
  189POPC   C3721820   1.176   1.635   9.735 -0.2909 -0.2806 -0.0578
  189POPC   H7X21821   1.086   1.697   9.715 -1.4176 -1.0211  2.3961
  189POPC   H7Y21822   1.154   1.539   9.786  1.8633 -0.3379  0.8693
  189POPC   C3821823   1.232   1.611   9.593  0.3576 -0.2539 -0.1925
  189POPC   H8X21824   1.260   1.504   9.578 -0.7103 -1.0304  2.6986
  189POPC   H8Y21825   1.322   1.676   9.583 -1.0249  1.5912 -1.0143
  189POPC   C3921826   1.143   1.661   9.473 -0.6076  1.2425 -0.0168
  189POPC   H9X21827   1.047   1.607   9.490  0.1388  0.5822  2.5294
  189POPC   H9Y21828   1.195   1.643   9.377  0.1684  1.5294  0.3468
  189POPC  C31021829   1.114   1.814   9.465 -1.0557 -0.1793  0.9005
  189POPC  H10X21830   1.206   1.874   9.452 -0.9388 -0.8773 -2.2178
  189POPC  H10Y21831   1.055   1.838   9.556  0.3393 -0.1374  1.8263
  189POPC  C31121832   1.019   1.842   9.351 -0.4774 -0.0947 -0.3043
  189POPC  H11X21833   0.992   1.950   9.353 -0.7233 -0.1494  1.8601
  189POPC  H11Y21834   0.923   1.787   9.360 -0.5085 -0.0343 -0.2669
  189POPC  C31221835   1.074   1.798   9.207  0.0293 -0.7112 -0.5212
  189POPC  H12X21836   1.091   1.690   9.190 -0.4169 -0.4516 -2.9217
  189POPC  H12Y21837   1.180   1.828   9.191  0.3620 -1.3992  0.3004
  189POPC  C31321838   0.987   1.859   9.095  0.4294  0.6086  0.5048
  189POPC  H13X21839   1.027   1.958   9.066 -1.1054  0.9756 -0.4402
  189POPC  H13Y21840   0.883   1.854   9.133  0.4628  0.1547  0.5500
  189POPC  C31421841   0.964   1.762   8.978 -0.3168  0.4108  0.3693
  189POPC  H14X21842   0.935   1.661   9.015  0.8751  0.2552  0.9398
  189POPC  H14Y21843   1.055   1.760   8.914  0.4534  1.9761  1.3617
  189POPC  C31521844   0.859   1.821   8.885 -0.4635 -0.5802 -0.5500
  189POPC  H15X21845   0.901   1.919   8.854 -0.8965 -0.2552 -0.1305
  189POPC  H15Y21846   0.761   1.843   8.933 -0.1215 -0.5393  0.1459
  189POPC  C31621847   0.835   1.735   8.763  0.0079 -0.4059 -0.9629
  189POPC  H16X21848   0.763   1.785   8.694 -0.8844 -0.5925 -0.1834
  189POPC  H16Y21849   0.803   1.630   8.780 -1.2670 -0.3493 -2.6819
  189POPC  H16Z21850   0.930   1.725   8.707  0.2145  0.2095 -0.7344
  190POPC     N21851   3.945   4.974  10.827  0.5849  0.3711 -0.0878
  190POPC   C1221852   3.961   4.825  10.801 -0.0321  0.0420 -0.2755
  190POPC  H12A21853   4.022   4.774  10.873 -1.3633  1.3269  1.8691
  190POPC  H12B21854   3.996   4.814  10.699  2.0319  3.9500 -0.1765
  190POPC   C1321855   4.085   5.033  10.838 -0.7801  0.0985  0.3153
  190POPC  H13A21856   4.143   4.997  10.755 -0.5279  1.1176  0.0374
  190POPC  H13B21857   4.078   5.141  10.846 -0.4649  0.3006 -1.7028
  190POPC  H13C21858   4.134   4.997  10.927  0.9346 -0.3965 -0.7931
  190POPC   C1421859   3.870   5.042  10.713  0.3122  0.0152  0.2534
  190POPC  H14A21860   3.763   5.038  10.733  0.5860  0.0929  1.8600
  190POPC  H14B21861   3.886   5.148  10.708 -1.1124  0.2672  0.4180
  190POPC  H14C21862   3.890   5.008  10.612  0.4161  2.4302 -0.6112
  190POPC   C1521863   3.868   5.008  10.953 -0.2461  0.0423 -0.1413
  190POPC  H15A21864   3.848   5.114  10.964  0.2393  0.2416 -1.0755
  190POPC  H15B21865   3.915   4.971  11.044 -3.0227 -1.6351  0.7250
  190POPC  H15C21866   3.772   4.959  10.956 -0.6910  0.9253  0.8532
  190POPC   C1121867   3.834   4.736  10.790  0.2333 -0.3165  0.5918
  190POPC  H11A21868   3.862   4.629  10.774  0.5981  0.0319 -1.2363
  190POPC  H11B21869   3.769   4.778  10.711 -0.2868  0.6226  1.4869
  190POPC     P21870   3.808   4.681  11.048  0.1003 -0.3915 -0.4158
  190POPC   O1321871   3.779   4.780  11.148  0.1505  0.3205  0.6164
  190POPC   O1421872   3.946   4.632  11.037 -0.5132 -0.2970  0.6354
  190POPC   O1221873   3.761   4.738  10.907 -0.4291  0.7861  0.6806
  190POPC   O1121874   3.710   4.560  11.072  0.2544  0.2623 -0.0664
  190POPC    C121875   3.695   4.453  10.982 -0.0253 -0.3919 -0.2102
  190POPC    HA21876   3.679   4.366  11.049 -1.1387  0.9380  1.3337
  190POPC    HB21877   3.789   4.432  10.926  0.7029 -1.5028  1.3704
  190POPC    C221878   3.573   4.481  10.888  0.0964 -0.0245  0.3482
  190POPC    HS21879   3.605   4.566  10.824  0.3495  0.2922  0.8866
  190POPC   O2121880   3.461   4.502  10.977  0.3742 -0.0849 -0.5367
  190POPC   C2121881   3.394   4.614  10.945 -0.8078 -0.3700  0.2845
  190POPC   O2221882   3.416   4.683  10.845  0.3269 -0.1703 -0.1556
  190POPC   C2221883   3.305   4.654  11.060 -1.2586  0.4502  0.0810
  190POPC   H2R21884   3.350   4.722  11.136  2.0161  0.8272 -2.0234
  190POPC   H2S21885   3.275   4.559  11.110 -3.1582 -0.3148 -2.3384
  190POPC    C321886   3.548   4.359  10.797  0.0367  0.5296 -0.0217
  190POPC    HX21887   3.500   4.282  10.861 -1.8387  1.7666  0.1256
  190POPC    HY21888   3.643   4.316  10.757 -0.1921 -0.5257  0.5155
  190POPC   O3121889   3.448   4.388  10.698 -0.6060 -0.1588 -0.0927
  190POPC   C3121890   3.493   4.464  10.596  0.3341 -0.7601  0.9773
  190POPC   O3221891   3.610   4.499  10.579  0.6114  0.5048  0.0764
  190POPC   C3221892   3.373   4.506  10.515 -0.4380 -0.6562  0.3033
  190POPC   H2X21893   3.381   4.603  10.462 -3.4207  0.2565  1.3510
  190POPC   H2Y21894   3.286   4.522  10.583 -1.6822  1.4657 -1.6560
  190POPC   C2321895   3.172   4.715  11.021 -0.0023  0.2758  0.3357
  190POPC   H3R21896   3.179   4.823  10.999 -2.8415  0.5738  0.4167
  190POPC   H3S21897   3.096   4.701  11.101 -0.7937  1.2936 -0.2202
  190POPC   C2421898   3.113   4.659  10.889  0.2431  0.0385  0.2452
  190POPC   H4R21899   3.184   4.687  10.809 -2.2914 -0.1421 -2.1992
  190POPC   H4S21900   3.019   4.717  10.877  0.7432  0.6962 -0.5260
  190POPC   C2521901   3.085   4.510  10.883  0.2491 -0.0491 -0.6985
  190POPC   H5R21902   3.023   4.481  10.970 -0.2008  4.2059  0.6190
  190POPC   H5S21903   3.180   4.453  10.878 -0.4376 -1.2988 -0.1240
  190POPC   C2621904   3.000   4.477  10.755 -0.6349 -0.0402 -0.3577
  190POPC   H6R21905   3.054   4.527  10.673  0.4853 -0.8693 -0.1507
  190POPC   H6S21906   2.900   4.524  10.772 -1.0636 -0.2115 -2.1953
  190POPC   C2721907   2.979   4.334  10.728  1.0811  0.7328 -0.3686
  190POPC   H7R21908   2.917   4.284  10.805  0.6723 -0.5368 -1.4791
  190POPC   H7S21909   3.069   4.269  10.721 -0.4980 -1.4419 -1.9193
  190POPC   C2821910   2.897   4.314  10.592 -0.4913 -0.4987 -0.2179
  190POPC   H8R21911   2.945   4.360  10.503 -2.3760 -1.5712 -1.8734
  190POPC   H8S21912   2.801   4.371  10.599 -0.1598 -0.0196  0.7145
  190POPC   C2921913   2.869   4.163  10.569  0.5813 -0.9536  0.4965
  190POPC   H9121914   2.833   4.112  10.659  1.0228 -1.4694  0.3841
  190POPC  C21021915   2.871   4.104  10.446 -0.4484  0.3488 -0.7459
  190POPC  H10121916   2.850   3.996  10.441 -0.1116  0.2560 -0.1989
  190POPC  C21121917   2.901   4.164  10.310 -0.2511  0.0056  0.6207
  190POPC  H11R21918   3.010   4.186  10.311 -0.0641 -0.8861  1.0987
  190POPC  H11S21919   2.846   4.259  10.296 -0.2125 -0.2697 -1.8811
  190POPC  C21221920   2.878   4.074  10.190 -0.2217  0.3838  0.2740
  190POPC  H12R21921   2.769   4.077  10.170 -0.3616  2.3850  1.1179
  190POPC  H12S21922   2.909   3.968  10.201 -2.3918 -0.2706  0.5714
  190POPC  C21321923   2.936   4.130  10.061 -0.2844  0.1531  0.7250
  190POPC  H13R21924   3.043   4.158  10.078 -0.4730  2.4076 -1.4211
  190POPC  H13S21925   2.878   4.219  10.030 -1.8661 -0.9695  0.3356
  190POPC  C21421926   2.930   4.026   9.949  0.3880  0.0575  0.6967
  190POPC  H14R21927   2.827   3.986   9.945  1.3746 -2.5168 -1.1261
  190POPC  H14S21928   3.002   3.941   9.945 -1.1013 -1.2602  1.0497
  190POPC  C21521929   2.957   4.106   9.819 -0.4236 -0.4084 -0.5360
  190POPC  H15R21930   3.056   4.156   9.816 -0.2623 -0.7700 -2.1465
  190POPC  H15S21931   2.885   4.191   9.818  1.0770  0.9135  0.3689
  190POPC  C21621932   2.955   4.014   9.696  0.4736 -0.0956 -0.0635
  190POPC  H16R21933   2.858   3.960   9.699 -0.5304  1.6206 -0.3139
  190POPC  H16S21934   3.037   3.942   9.720 -0.4821 -1.3939 -0.6135
  190POPC  C21721935   2.976   4.087   9.562 -0.4933  0.5573  0.0162
  190POPC  H17R21936   3.058   4.033   9.510  1.1634  2.4687  0.5139
  190POPC  H17S21937   3.023   4.187   9.572  1.0100 -0.1495  0.2688
  190POPC  C21821938   2.855   4.085   9.475 -0.2360  0.5259 -0.4683
  190POPC  H18R21939   2.812   3.986   9.448 -0.9509  0.8524 -0.5739
  190POPC  H18S21940   2.879   4.131   9.377 -0.6642  2.5090  0.2995
  190POPC  H18T21941   2.770   4.145   9.517 -1.3821 -0.6920 -0.9745
  190POPC   C3321942   3.339   4.394  10.413  0.4937 -0.3502  1.2420
  190POPC   H3X21943   3.233   4.413  10.383  0.1875 -3.7238 -0.2690
  190POPC   H3Y21944   3.347   4.292  10.455  0.3708 -1.1269 -0.5309
  190POPC   C3421945   3.432   4.399  10.291 -0.6025  0.0437 -1.0639
  190POPC   H4X21946   3.530   4.353  10.316 -0.2135  0.1273 -2.3653
  190POPC   H4Y21947   3.454   4.502  10.257  1.4433 -0.3160 -0.9318
  190POPC   C3521948   3.366   4.311  10.183  0.3117  0.2225 -0.6755
  190POPC   H5X21949   3.260   4.346  10.181  0.1575 -0.2575 -1.1077
  190POPC   H5Y21950   3.372   4.203  10.208 -0.8067 -0.0576 -1.5332
  190POPC   C3621951   3.418   4.342  10.041 -0.1643 -0.2693  0.1626
  190POPC   H6X21952   3.526   4.318  10.034  0.2466  0.8749  1.8684
  190POPC   H6Y21953   3.406   4.452  10.027 -0.2050 -0.4287 -1.1583
  190POPC   C3721954   3.347   4.281   9.922  0.4012  0.6400  0.2270
  190POPC   H7X21955   3.244   4.322   9.931  1.0481  2.5746 -0.6652
  190POPC   H7Y21956   3.343   4.170   9.934 -0.2709  0.5191 -0.9558
  190POPC   C3821957   3.421   4.313   9.792  0.3233  0.4582  0.0859
  190POPC   H8X21958   3.519   4.263   9.780 -0.7421 -2.1537  1.4212
  190POPC   H8Y21959   3.441   4.422   9.800  1.0192  0.2780  0.8646
  190POPC   C3921960   3.337   4.273   9.672 -0.0189 -0.3420  0.2112
  190POPC   H9X21961   3.233   4.312   9.670 -0.3450 -1.1519  0.7118
  190POPC   H9Y21962   3.320   4.163   9.676  3.9839 -1.1405 -0.1369
  190POPC  C31021963   3.405   4.304   9.539 -0.1696  0.3851 -0.2579
  190POPC  H10X21964   3.490   4.233   9.540 -0.3548  0.0491  2.8977
  190POPC  H10Y21965   3.455   4.403   9.538  1.7095 -0.5041  0.9214
  190POPC  C31121966   3.314   4.285   9.414  0.1795 -0.6084 -0.1524
  190POPC  H11X21967   3.221   4.346   9.401 -0.6202 -1.8982 -0.6312
  190POPC  H11Y21968   3.281   4.179   9.417  2.1060 -1.2263  2.1555
  190POPC  C31221969   3.388   4.303   9.271  0.5866 -0.0013 -0.4369
  190POPC  H12X21970   3.457   4.216   9.270 -2.6809 -2.9448  2.2871
  190POPC  H12Y21971   3.439   4.400   9.287 -1.9129  1.1847  1.0604
  190POPC  C31321972   3.308   4.293   9.143 -0.4180 -0.2300  0.2914
  190POPC  H13X21973   3.376   4.323   9.061  0.3767 -0.5092  0.8389
  190POPC  H13Y21974   3.211   4.347   9.148  0.4176  1.3542 -0.0684
  190POPC  C31421975   3.259   4.151   9.097  0.6883  0.2825  0.1218
  190POPC  H14X21976   3.163   4.136   9.151 -0.8854  1.3549 -2.2207
  190POPC  H14Y21977   3.351   4.089   9.098  0.8053  0.4243 -0.9086
  190POPC  C31521978   3.213   4.145   8.952 -0.5997 -0.2711  0.4269
  190POPC  H15X21979   3.296   4.177   8.884 -1.2707  0.5077 -0.0435
  190POPC  H15Y21980   3.138   4.226   8.947 -1.2218 -0.8436  0.2417
  190POPC  C31621981   3.140   4.018   8.902  0.3022 -0.0524  0.2426
  190POPC  H16X21982   3.048   3.987   8.955  0.3242 -1.8475 -0.6818
  190POPC  H16Y21983   3.208   3.931   8.888 -0.8071 -0.6034 -2.4799
  190POPC  H16Z21984   3.101   4.027   8.798 -1.2053 -1.9903  0.5890
  191POPC     N21985   2.948   5.772   6.291  0.0666 -0.6859 -0.1529
  191POPC   C1221986   3.048   5.886   6.308  0.4948  0.5917  0.2392
  191POPC  H12A21987   3.122   5.889   6.230 -0.2665  0.8055 -0.5028
  191POPC  H12B21988   3.108   5.871   6.397 -0.6387  0.5593  1.0256
  191POPC   C1321989   2.846   5.796   6.397 -0.2264  0.6005 -0.3204
  191POPC  H13A21990   2.797   5.890   6.378  1.6848  1.7056 -0.1066
  191POPC  H13B21991   2.771   5.719   6.394 -1.0476  1.4036 -2.0122
  191POPC  H13C21992   2.898   5.786   6.491  0.4444 -0.3716 -0.7822
  191POPC   C1421993   2.888   5.776   6.153  0.4931 -0.4032 -0.8694
  191POPC  H14A21994   2.836   5.870   6.142  0.3057 -0.1716  1.4733
  191POPC  H14B21995   2.970   5.770   6.084  3.1775 -1.5950  2.1872
  191POPC  H14C21996   2.828   5.689   6.129 -1.4802  1.0408 -1.4380
  191POPC   C1521997   3.016   5.638   6.317  0.3734 -0.0532  0.2508
  191POPC  H15A21998   3.094   5.619   6.245  0.2833  0.7002 -0.0565
  191POPC  H15B21999   2.942   5.560   6.319 -0.1283  0.4357  0.8124
  191POPC  H15C22000   3.072   5.634   6.410 -1.0507 -1.8169  1.0899
  191POPC   C1122001   2.994   6.027   6.326  0.0074 -0.0807 -0.0268
  191POPC  H11A22002   3.082   6.095   6.320  0.9874 -1.2403  0.5094
  191POPC  H11B22003   2.946   6.040   6.426 -0.2944 -1.6943  0.0684
  191POPC     P22004   2.797   6.168   6.223 -0.1593 -0.2029  0.0608
  191POPC   O1322005   2.659   6.110   6.235  0.2916 -0.1387 -0.1579
  191POPC   O1422006   2.815   6.275   6.121 -0.1463 -0.6726 -0.5717
  191POPC   O1222007   2.903   6.057   6.215  0.2416  0.4592 -0.2796
  191POPC   O1122008   2.835   6.239   6.362 -0.5173 -0.3984  0.1641
  191POPC    C122009   2.749   6.320   6.436  0.0372 -0.0633 -0.6433
  191POPC    HA22010   2.644   6.323   6.399 -0.5777  2.0936  1.0330
  191POPC    HB22011   2.786   6.425   6.435 -0.0210  0.0522  2.0388
  191POPC    C222012   2.720   6.269   6.582  0.3307  0.3234  0.9644
  191POPC    HS22013   2.626   6.320   6.615 -1.8965 -3.5092  1.1212
  191POPC   O2122014   2.829   6.280   6.676  0.2146  0.2334  0.4712
  191POPC   C2122015   2.864   6.399   6.701  0.0679  0.4036  0.4950
  191POPC   O2222016   2.796   6.499   6.684  0.9433 -0.0661  0.3072
  191POPC   C2222017   3.010   6.393   6.757 -0.2176  0.5649  0.2451
  191POPC   H2R22018   3.064   6.482   6.718 -0.3751 -0.2972 -2.0635
  191POPC   H2S22019   3.053   6.307   6.703 -0.1635 -0.0463  1.2298
  191POPC    C322020   2.672   6.120   6.579 -0.0578  0.0602  0.7876
  191POPC    HX22021   2.762   6.055   6.583 -0.3808 -0.7763 -2.5332
  191POPC    HY22022   2.623   6.100   6.481  1.0286 -2.9204  0.7354
  191POPC   O3122023   2.583   6.088   6.687  0.4848  0.0239 -0.4228
  191POPC   C3122024   2.562   5.957   6.710 -0.1287 -0.1443 -0.1871
  191POPC   O3222025   2.635   5.874   6.664 -0.0250  0.5297 -0.4498
  191POPC   C3222026   2.448   5.935   6.816 -0.0152 -0.2010 -0.0733
  191POPC   H2X22027   2.382   5.866   6.759 -0.9376  1.1701 -0.7243
  191POPC   H2Y22028   2.405   6.037   6.827  2.2603  0.7265  0.9448
  191POPC   C2322029   3.019   6.379   6.908  0.4336  0.0528  0.0513
  191POPC   H3R22030   3.107   6.314   6.929  0.1070 -0.1422  0.8552
  191POPC   H3S22031   2.930   6.325   6.947 -0.0438 -0.0899 -1.2003
  191POPC   C2422032   3.024   6.507   6.982 -0.0507 -0.6952 -0.6922
  191POPC   H4R22033   2.928   6.558   6.959  0.8037  1.5647  0.3658
  191POPC   H4S22034   3.102   6.574   6.939 -0.5831 -0.0880 -0.7387
  191POPC   C2522035   3.033   6.495   7.131 -0.3642 -0.0457 -0.3506
  191POPC   H5R22036   3.132   6.454   7.164 -0.1282  1.4621  0.9614
  191POPC   H5S22037   2.967   6.419   7.177  1.3747 -0.8541  0.9676
  191POPC   C2622038   3.016   6.634   7.213 -0.2382 -0.1136  0.0211
  191POPC   H6R22039   2.915   6.646   7.169  0.2473 -0.3946 -1.2279
  191POPC   H6S22040   3.083   6.718   7.183 -1.3793  0.2538 -1.6712
  191POPC   C2722041   2.999   6.627   7.366  0.1994 -0.5381  0.4319
  191POPC   H7R22042   2.932   6.540   7.385 -1.1803 -0.0471 -1.7612
  191POPC   H7S22043   2.953   6.717   7.410 -1.9958 -0.7725 -1.2116
  191POPC   C2822044   3.135   6.624   7.434  0.3982  0.5334  0.6778
  191POPC   H8R22045   3.193   6.713   7.402 -0.0516  0.8993  0.8748
  191POPC   H8S22046   3.192   6.536   7.396 -0.9776  0.2522 -0.8736
  191POPC   C2922047   3.118   6.618   7.575 -0.3909  0.2365 -0.4548
  191POPC   H9122048   3.048   6.539   7.608 -0.4122 -0.1638 -1.4274
  191POPC  C21022049   3.177   6.706   7.667  0.1682  0.4741  0.5056
  191POPC  H10122050   3.153   6.694   7.773  0.6708  0.9569  0.6761
  191POPC  C21122051   3.247   6.828   7.621 -0.3091  0.1815 -0.2094
  191POPC  H11R22052   3.186   6.881   7.544  0.3724 -0.4865 -1.2435
  191POPC  H11S22053   3.339   6.796   7.567  1.1772 -0.4029  2.5262
  191POPC  C21222054   3.289   6.919   7.737 -0.3907 -0.0892 -0.9319
  191POPC  H12R22055   3.199   6.960   7.787 -0.8636 -1.7846 -0.3395
  191POPC  H12S22056   3.350   7.004   7.698  2.1123 -1.2207  0.2742
  191POPC  C21322057   3.383   6.860   7.842 -0.1372  0.1552 -0.1495
  191POPC  H13R22058   3.454   6.812   7.771  1.1184  2.8972 -0.8472
  191POPC  H13S22059   3.344   6.763   7.881  4.4100 -1.4433  1.1164
  191POPC  C21422060   3.454   6.951   7.932  0.7376 -0.1136 -0.0932
  191POPC  H14R22061   3.385   6.982   8.014  0.0605 -0.2122 -0.6125
  191POPC  H14S22062   3.495   7.043   7.885 -0.0541 -0.2186 -1.0369
  191POPC  C21522063   3.580   6.888   7.994  0.3230 -0.7671  0.8012
  191POPC  H15R22064   3.651   6.872   7.910 -0.6062 -2.5975  0.2852
  191POPC  H15S22065   3.551   6.784   8.022  0.5451 -1.7181 -2.0952
  191POPC  C21622066   3.643   6.967   8.105  0.0071 -1.1079 -0.6568
  191POPC  H16R22067   3.578   6.969   8.195 -0.1501 -2.1830 -0.7414
  191POPC  H16S22068   3.650   7.074   8.076 -2.4096 -0.3299  1.3293
  191POPC  C21722069   3.785   6.912   8.123 -0.2367 -0.2553 -0.1874
  191POPC  H17R22070   3.854   6.956   8.048  1.9995 -0.9269  1.3809
  191POPC  H17S22071   3.773   6.803   8.110  1.8671 -0.6275  0.6316
  191POPC  C21822072   3.850   6.960   8.252  0.5751 -0.2406 -0.3436
  191POPC  H18R22073   3.829   7.069   8.260  2.9800  0.6038 -3.3971
  191POPC  H18S22074   3.958   6.937   8.265  0.6591  1.3188  2.1924
  191POPC  H18T22075   3.794   6.918   8.338  0.4204 -0.6648 -0.6439
  191POPC   C3322076   2.495   5.860   6.946  0.3941 -0.0912 -0.1772
  191POPC   H3X22077   2.594   5.905   6.969 -0.4079  1.5332  0.3351
  191POPC   H3Y22078   2.512   5.755   6.915  3.0651  0.7861 -1.9342
  191POPC   C3422079   2.396   5.859   7.065 -0.5616  0.1510  0.0093
  191POPC   H4X22080   2.293   5.847   7.025 -1.0399  3.1805  0.1114
  191POPC   H4Y22081   2.397   5.950   7.128  3.2420 -0.9463  1.8537
  191POPC   C3522082   2.425   5.743   7.171  0.6290  0.7602 -0.8721
  191POPC   H5X22083   2.519   5.769   7.223  1.0498 -0.3831 -1.0358
  191POPC   H5Y22084   2.446   5.651   7.113  1.0322  0.4987 -0.3147
  191POPC   C3622085   2.308   5.739   7.270 -0.1981 -0.3512  1.4138
  191POPC   H6X22086   2.227   5.682   7.221  0.4940  0.2645 -0.5739
  191POPC   H6Y22087   2.268   5.843   7.277 -0.4018 -0.4795  2.2427
  191POPC   C3722088   2.337   5.680   7.402 -0.7137  0.1970 -0.3584
  191POPC   H7X22089   2.372   5.575   7.391 -0.5777  0.4445 -3.2374
  191POPC   H7Y22090   2.232   5.668   7.435 -0.9829 -1.5956 -1.6823
  191POPC   C3822091   2.434   5.756   7.483  0.0164  0.3858 -0.4195
  191POPC   H8X22092   2.414   5.866   7.484  0.1825  0.5191  3.1394
  191POPC   H8Y22093   2.534   5.746   7.437  1.5651 -1.0978  2.9032
  191POPC   C3922094   2.456   5.703   7.623 -0.9569 -0.5101 -0.4019
  191POPC   H9X22095   2.530   5.621   7.625  1.8646  1.8902  1.2427
  191POPC   H9Y22096   2.361   5.674   7.672 -1.5349 -0.2740 -1.3458
  191POPC  C31022097   2.526   5.802   7.721 -0.3814  0.0232  0.2929
  191POPC  H10X22098   2.463   5.893   7.731  2.3091  1.9048  1.5683
  191POPC  H10Y22099   2.624   5.828   7.675 -0.8933  0.2857 -0.6868
  191POPC  C31122100   2.553   5.747   7.856  0.4444  0.1971  0.1853
  191POPC  H11X22101   2.635   5.806   7.901  0.9285  0.3120 -0.8150
  191POPC  H11Y22102   2.598   5.646   7.847  0.5205  0.1675  0.9033
  191POPC  C31222103   2.433   5.754   7.951 -0.0478  0.4409  0.1248
  191POPC  H12X22104   2.344   5.698   7.914 -0.4183  0.5388  0.8412
  191POPC  H12Y22105   2.409   5.862   7.958 -0.1858  0.4105  0.1257
  191POPC  C31322106   2.462   5.698   8.087  0.3818  0.7951 -0.1410
  191POPC  H13X22107   2.571   5.678   8.099  0.1013 -0.6997  0.1430
  191POPC  H13Y22108   2.404   5.604   8.099 -0.1380  1.0457 -0.6245
  191POPC  C31422109   2.418   5.793   8.203 -1.5620  0.5438  0.0041
  191POPC  H14X22110   2.317   5.838   8.201 -1.3440  1.1996  1.8541
  191POPC  H14Y22111   2.486   5.881   8.196 -1.2821  0.3551  0.2923
  191POPC  C31522112   2.434   5.719   8.341  0.1486  0.5040 -0.8360
  191POPC  H15X22113   2.527   5.659   8.332  0.1584  0.5217 -0.8523
  191POPC  H15Y22114   2.345   5.653   8.353  2.6725 -2.8985  0.4193
  191POPC  C31622115   2.445   5.812   8.460  0.0190 -1.1291  0.3358
  191POPC  H16X22116   2.551   5.845   8.460 -0.5576  0.8022  0.1132
  191POPC  H16Y22117   2.413   5.774   8.560  1.9980  2.4270  2.5180
  191POPC  H16Z22118   2.385   5.902   8.438  0.4523 -0.6519  1.0500
  192POPC     N22119   2.576   0.962   5.894  0.1701 -0.3164  1.0305
  192POPC   C1222120   2.588   0.988   6.042 -0.0340  0.6953 -0.2468
  192POPC  H12A22121   2.687   0.966   6.078 -0.6198 -2.3423 -0.2193
  192POPC  H12B22122   2.518   0.921   6.090  0.1989  1.3514  1.0552
  192POPC   C1322123   2.579   0.811   5.875 -0.1387  0.3595 -0.1328
  192POPC  H13A22124   2.587   0.777   5.772  0.3510  0.8603 -0.2653
  192POPC  H13B22125   2.671   0.777   5.920 -0.2275  0.5176  0.1719
  192POPC  H13C22126   2.496   0.766   5.928  0.4167 -2.6302 -1.5558
  192POPC   C1422127   2.442   1.007   5.830  0.6218 -0.0994 -0.5630
  192POPC  H14A22128   2.366   1.000   5.906 -0.1288  1.3240 -1.1452
  192POPC  H14B22129   2.462   1.111   5.810  1.2859  0.9330  4.1925
  192POPC  H14C22130   2.436   0.946   5.741  1.7353 -0.2768 -0.5241
  192POPC   C1522131   2.695   1.025   5.825  0.1580  0.2544  0.3192
  192POPC  H15A22132   2.702   1.130   5.851 -2.6901  0.3599  0.9826
  192POPC  H15B22133   2.692   1.001   5.720  3.2757 -2.1830  0.6547
  192POPC  H15C22134   2.780   0.964   5.852 -1.1583 -0.8301  2.2365
  192POPC   C1122135   2.538   1.127   6.087  0.1713 -0.6171 -0.6640
  192POPC  H11A22136   2.519   1.142   6.196 -0.1119 -0.1351 -0.7816
  192POPC  H11B22137   2.437   1.146   6.047  0.3809  0.4998 -0.6803
  192POPC     P22138   2.765   1.253   6.119 -0.0848  0.1454 -0.3795
  192POPC   O1322139   2.839   1.356   6.036 -0.0208  0.4908  0.2218
  192POPC   O1422140   2.840   1.127   6.149 -0.3461  0.6665  0.3946
  192POPC   O1222141   2.632   1.220   6.043 -0.3172 -0.5883  0.0368
  192POPC   O1122142   2.717   1.329   6.253 -0.0421  0.0180 -0.7297
  192POPC    C122143   2.618   1.431   6.242 -0.2185  0.4224 -0.0451
  192POPC    HA22144   2.518   1.386   6.262 -0.1523  1.2965  2.6871
  192POPC    HB22145   2.609   1.471   6.139  0.3491 -1.1010 -0.7126
  192POPC    C222146   2.646   1.544   6.349  0.3407  1.0045 -0.4242
  192POPC    HS22147   2.732   1.600   6.306  0.3559 -0.0745 -1.8814
  192POPC   O2122148   2.681   1.487   6.479  0.6909 -0.0017 -0.4320
  192POPC   C2122149   2.760   1.565   6.561  0.0529  0.7563  0.1198
  192POPC   O2222150   2.797   1.679   6.544  0.7480  0.7673  1.1350
  192POPC   C2222151   2.799   1.481   6.684  0.1487 -0.2062  0.0805
  192POPC   H2R22152   2.845   1.390   6.640  0.7202  1.2061 -2.4241
  192POPC   H2S22153   2.704   1.443   6.727  1.1083  0.5834  3.1815
  192POPC    C322154   2.510   1.617   6.357 -0.3616 -0.0186  0.4007
  192POPC    HX22155   2.481   1.636   6.251  0.9917  3.5645  0.5438
  192POPC    HY22156   2.508   1.716   6.408  1.2557  0.3633 -0.2339
  192POPC   O3122157   2.404   1.528   6.404 -0.5532 -0.0051 -0.1165
  192POPC   C3122158   2.364   1.530   6.522  0.3878 -0.0711 -0.0026
  192POPC   O3222159   2.405   1.606   6.611 -0.6159 -0.1136 -0.5275
  192POPC   C3222160   2.256   1.420   6.543  0.5214  0.2669  0.0942
  192POPC   H2X22161   2.293   1.327   6.497 -0.9401 -0.0503 -0.4988
  192POPC   H2Y22162   2.158   1.442   6.495 -0.4195 -0.0379  1.7878
  192POPC   C2322163   2.892   1.550   6.782 -0.1684  0.0163 -0.1095
  192POPC   H3R22164   2.880   1.659   6.794  3.0578  0.2604  2.4758
  192POPC   H3S22165   2.995   1.548   6.740 -1.0702 -0.1249 -2.4860
  192POPC   C2422166   2.876   1.485   6.917 -1.0177  0.2471 -1.3492
  192POPC   H4R22167   2.942   1.397   6.926  0.3119  1.4073  1.5568
  192POPC   H4S22168   2.774   1.442   6.924 -0.1326 -1.6769  1.5242
  192POPC   C2522169   2.918   1.586   7.037 -0.0663 -0.0964 -0.0150
  192POPC   H5R22170   2.870   1.685   7.029 -0.3300 -0.2066  0.2008
  192POPC   H5S22171   3.026   1.612   7.043 -0.0502 -0.3945  5.0278
  192POPC   C2622172   2.886   1.516   7.174  0.4407  0.4917 -0.1743
  192POPC   H6R22173   2.921   1.411   7.180  0.4979  0.5825  1.4394
  192POPC   H6S22174   2.776   1.528   7.178  0.5089  1.0475  0.1196
  192POPC   C2722175   2.956   1.593   7.284 -0.8675  0.3052  0.1859
  192POPC   H7R22176   2.914   1.695   7.292 -0.9935  0.4859 -2.1779
  192POPC   H7S22177   3.057   1.628   7.255 -1.9681  1.6002 -2.3542
  192POPC   C2822178   2.945   1.532   7.432 -0.3111  0.0139  0.2704
  192POPC   H8R22179   3.017   1.448   7.422 -0.3260 -0.0093  0.3582
  192POPC   H8S22180   2.850   1.478   7.450 -0.0489 -1.0548 -1.3505
  192POPC   C2922181   2.985   1.640   7.532  0.2222  0.0549  0.2017
  192POPC   H9122182   3.046   1.718   7.485 -1.8768  1.1955 -0.7621
  192POPC  C21022183   2.941   1.656   7.664 -1.0622 -1.2204  0.1010
  192POPC  H10122184   2.972   1.752   7.710  0.1814 -1.0996 -0.9542
  192POPC  C21122185   2.854   1.567   7.748 -0.1829 -0.6279 -1.3457
  192POPC  H11R22186   2.828   1.478   7.688 -0.4607 -2.6775  1.5948
  192POPC  H11S22187   2.759   1.622   7.764  0.3388  0.0783 -0.5678
  192POPC  C21222188   2.921   1.543   7.883 -0.1794  0.1233  0.2850
  192POPC  H12R22189   3.027   1.513   7.868 -0.9084 -1.7614 -1.6270
  192POPC  H12S22190   2.869   1.454   7.925 -1.7463 -0.5457 -2.7964
  192POPC  C21322191   2.919   1.656   7.979 -0.1514  0.1404 -0.1766
  192POPC  H13R22192   2.814   1.690   7.988 -0.4750 -0.9897  0.4390
  192POPC  H13S22193   2.980   1.746   7.955 -0.3629  0.7952  1.5793
  192POPC  C21422194   2.973   1.618   8.116 -0.0781  0.6178  1.1413
  192POPC  H14R22195   2.994   1.718   8.158  0.7341  1.6351 -1.4854
  192POPC  H14S22196   3.069   1.563   8.104  0.3422  0.8565  3.0815
  192POPC  C21522197   2.866   1.542   8.195  0.7311 -0.3150  0.4382
  192POPC  H15R22198   2.833   1.445   8.151  0.6901 -1.3720  2.6365
  192POPC  H15S22199   2.775   1.604   8.207  2.1700  2.0356 -0.1396
  192POPC  C21622200   2.918   1.496   8.338  0.0822 -0.5678  0.0367
  192POPC  H16R22201   2.840   1.428   8.378 -0.2225  0.3891  1.1053
  192POPC  H16S22202   2.926   1.582   8.407 -1.4379  0.2594 -0.7583
  192POPC  C21722203   3.050   1.419   8.333  0.9053 -0.0161  0.1967
  192POPC  H17R22204   3.120   1.487   8.280  1.4650  0.6825  1.7733
  192POPC  H17S22205   3.036   1.329   8.269 -1.5875 -0.7816  1.6736
  192POPC  C21822206   3.105   1.361   8.458  0.4271 -0.4686 -0.1060
  192POPC  H18R22207   3.118   1.444   8.531  0.8618  0.6475 -1.4066
  192POPC  H18S22208   3.204   1.324   8.426 -1.2080 -1.2467 -5.0484
  192POPC  H18T22209   3.049   1.276   8.502  1.7178  0.0693  2.8318
  192POPC   C3322210   2.239   1.395   6.695 -0.2018  1.2472 -0.9224
  192POPC   H3X22211   2.213   1.490   6.747 -2.0942 -0.9083  2.4732
  192POPC   H3Y22212   2.323   1.337   6.737 -1.4653 -0.1114 -0.1592
  192POPC   C3422213   2.115   1.305   6.717  0.0962 -0.0519 -0.0566
  192POPC   H4X22214   2.126   1.213   6.656  1.2205 -0.8026  1.2115
  192POPC   H4Y22215   2.022   1.357   6.685 -1.2499 -1.0682  1.9933
  192POPC   C3522216   2.112   1.260   6.861 -0.5653 -0.4842 -0.3953
  192POPC   H5X22217   2.205   1.201   6.879 -1.8890 -1.9262  2.2229
  192POPC   H5Y22218   2.027   1.189   6.867 -0.4010 -0.6097  0.6333
  192POPC   C3622219   2.089   1.379   6.957 -0.1087 -0.0643  0.0729
  192POPC   H6X22220   1.983   1.411   6.948  0.4324  1.6445 -0.6515
  192POPC   H6Y22221   2.151   1.469   6.938  2.2304 -1.8242 -1.1070
  192POPC   C3722222   2.105   1.340   7.108 -0.6741 -0.0876 -0.0249
  192POPC   H7X22223   2.209   1.307   7.127 -1.7763 -4.0510 -0.0242
  192POPC   H7Y22224   2.055   1.241   7.111 -0.0433 -0.3790  1.1608
  192POPC   C3822225   2.043   1.428   7.214  0.5919 -0.8061  0.0407
  192POPC   H8X22226   1.934   1.436   7.198  1.0116  0.9274 -2.6714
  192POPC   H8Y22227   2.074   1.534   7.197  0.4982 -0.6886  0.5722
  192POPC   C3922228   2.077   1.377   7.356 -0.2179 -0.2208 -0.4808
  192POPC   H9X22229   2.187   1.381   7.371 -0.4989  2.4987  1.5432
  192POPC   H9Y22230   2.024   1.282   7.379 -0.8654  0.6924  2.1300
  192POPC  C31022231   2.019   1.475   7.467 -0.0547 -0.1123  0.3416
  192POPC  H10X22232   1.915   1.507   7.444 -0.6363  0.1468  3.0054
  192POPC  H10Y22233   2.089   1.562   7.466  0.9094 -0.8556  1.4245
  192POPC  C31122234   2.030   1.403   7.604 -0.0838  0.1656 -0.8213
  192POPC  H11X22235   2.128   1.349   7.601  1.1076  2.1928 -0.0095
  192POPC  H11Y22236   1.950   1.326   7.609  1.6293 -1.7645 -1.7275
  192POPC  C31222237   2.018   1.489   7.726  0.1574  0.3234 -0.0047
  192POPC  H12X22238   1.985   1.591   7.695 -0.7582  0.7065  2.0630
  192POPC  H12Y22239   2.114   1.503   7.780  0.1278 -1.3528  0.5306
  192POPC  C31322240   1.921   1.433   7.826  0.2893 -0.1543  0.0639
  192POPC  H13X22241   1.963   1.341   7.871  0.0430  0.1773  0.9987
  192POPC  H13Y22242   1.825   1.407   7.776 -0.1998 -0.7492  1.2564
  192POPC  C31422243   1.895   1.534   7.936  0.5130  0.6164  0.3808
  192POPC  H14X22244   1.833   1.472   8.003 -2.3075  1.4347 -1.3277
  192POPC  H14Y22245   1.836   1.624   7.909 -0.7299  0.4258  2.3156
  192POPC  C31522246   2.019   1.598   8.002  1.1138  0.0913 -0.2185
  192POPC  H15X22247   2.072   1.663   7.929 -0.4816  1.3776 -0.2804
  192POPC  H15Y22248   2.092   1.518   8.029  0.9114 -0.2773 -0.7448
  192POPC  C31622249   1.994   1.673   8.123  0.0708 -0.5941 -1.1122
  192POPC  H16X22250   1.952   1.614   8.208  0.1846 -0.8627 -1.2437
  192POPC  H16Y22251   1.917   1.750   8.099 -0.7507 -1.9512 -3.0972
  192POPC  H16Z22252   2.086   1.727   8.153 -0.6878 -0.0671  0.4363
  193SOD    SOD22253   0.544   0.291   1.177 -0.1503 -0.3208  0.0013
  194SOD    SOD22254   4.147   4.524  10.979 -0.7126 -0.5105 -0.0866
  195SOD    SOD22255   5.783   4.671  16.754 -0.3522  0.1749  0.4007
  196SOD    SOD22256   1.310   2.177   5.726 -0.2598  0.1752 -0.0220
  197SOD    SOD22257   0.446   0.504  10.838  0.1699  0.0030 -0.1075
  198SOD    SOD22258   5.661   3.426  13.926  0.0417 -0.3954  0.1962
  199SOD    SOD22259   5.539   0.548   6.421 -0.3305  0.2124 -0.6201
  200SOD    SOD22260   6.789   3.465  10.773  0.1551 -0.3541 -0.1012
  201SOD    SOD22261   3.868   5.167   1.538 -0.1442  0.3520 -0.4597
  202SOD    SOD22262   2.314   1.019  14.119  0.5232 -0.1043  0.0087
  203SOD    SOD22263   4.733   4.379   2.666  0.6570  0.2701  0.1960
  204SOD    SOD22264   1.736   5.372   5.312  0.2379 -0.1398 -0.1355
  205SOD    SOD22265   2.637   3.930   2.190 -0.5983  0.1290  0.3101
  206SOD    SOD22266   5.758   2.863  15.964 -0.2410  0.1234 -0.0277
  207SOD    SOD22267   2.958   2.467   3.050 -0.2381 -0.5086  0.0179
  208SOD    SOD22268   6.264   4.994   3.555  0.5569  0.2651 -0.3288
  209SOD    SOD22269   4.185   0.617  13.765  0.2324 -0.0557 -0.1696
  210SOD    SOD22270   3.617   1.999  15.982 -0.4255  0.2579  0.4609
  211SOD    SOD22271   0.569   2.879  16.662  0.0083 -0.0102 -0.1543
  212SOD    SOD22272   2.205   0.096  12.778  0.1739  0.1240  0.0119
  213SOD    SOD22273   1.608   5.920   0.983  0.6820 -0.3908 -0.1746
  214SOD    SOD22274   6.035   1.058   5.768 -0.4087 -0.0539 -0.2519
  215SOD    SOD22275   6.379   2.427   0.421 -0.0332  0.1579  0.4030
  216SOD    SOD22276   6.017   1.726   4.141 -0.0015 -0.2120  0.0853
  217SOD    SOD22277   3.224   4.866   5.864  0.1143  0.1193  0.2546
  218SOD    SOD22278   3.371   2.853   4.736  0.2248 -0.1976 -0.2444
  219SOD    SOD22279   5.607   4.340  11.143 -0.0807  0.4275 -0.3592
  220SOD    SOD22280   5.782   5.304   0.909 -0.2009  0.2400 -0.4370
  221SOD    SOD22281   0.486   5.693   1.482  0.2406  0.1794  0.3458
  222SOD    SOD22282   2.994   3.535   3.747  0.4410  0.1126  0.2735
  223SOD    SOD22283   0.716   3.672  16.445  0.1318  0.2831 -0.5369
  224SOD    SOD22284   0.792   0.236   5.020 -0.0101 -0.2571 -0.0543
  225SOD    SOD22285   5.259   4.117   6.472  0.2281  0.0013  0.3884
  226SOD    SOD22286   6.021   1.908  12.020 -0.0175 -0.6225 -0.0616
  227SOD    SOD22287   3.683   2.422  16.772 -0.0620 -0.2622  0.1362
  228SOD    SOD22288   0.472   2.205   0.665 -0.1133  0.5487 -0.3698
  229SOD    SOD22289   1.404   5.939  11.399  0.3376  0.0350  0.2687
  230SOD    SOD22290   2.120   6.505  15.253  0.6948 -0.6500  0.6382
  231SOD    SOD22291   4.867   1.264  13.710 -0.1136 -0.4939 -0.1115
  232SOD    SOD22292   3.330   4.725  15.630 -0.1455 -0.1506 -0.3921
  233SOD    SOD22293   1.508   2.528  16.832  0.1934 -0.2691  0.0371
  234SOD    SOD22294   1.758   3.161  13.385 -0.0936 -0.0432 -0.0905
  235SOD    SOD22295   4.428   1.002  15.986  0.0669 -0.3141  0.1218
  236SOD    SOD22296   6.596   1.233   2.215 -0.2997  0.2358  0.2933
  237SOD    SOD22297   6.081   6.667  10.619 -1.2258 -0.6280 -0.2078
  238SOD    SOD22298   5.156   6.028  12.021 -0.3545 -0.3140 -0.0408
  239SOD    SOD22299   0.617   5.235  14.716 -0.0504 -0.3284 -0.1506
  240SOD    SOD22300   0.465   3.135  13.188  0.1420  0.1187  0.0116
  241SOD    SOD22301   3.682   3.123  12.357 -0.3011 -0.0260  0.0296
  242SOD    SOD22302   1.559   4.445  14.132 -0.3147 -0.3184 -0.0568
  243SOD    SOD22303   2.261   0.535   5.034 -0.0836  0.1017 -0.2552
  244SOD    SOD22304   6.172   2.407  12.978 -0.1787  0.3719  0.1273
  245SOD    SOD22305   1.894   2.608  10.899 -0.1083 -0.2564 -0.0405
  246SOD    SOD22306   2.933   0.294   4.645 -0.4963  0.4752  0.5043
  247SOD    SOD22307   4.026   0.135  17.026  0.0143 -0.0212  0.2073
  248SOD    SOD22308   4.265   4.669   4.916 -0.0187 -0.2736 -0.5474
  249SOD    SOD22309   5.405   5.797   5.646 -0.2317 -0.4271 -0.5166
  250SOD    SOD22310   0.940   5.460   6.604 -0.3639  0.5039  0.1044
  251SOD    SOD22311   0.154   3.361   6.477  0.1074 -1.0860 -0.3935
  252SOD    SOD22312   6.411   5.704   4.289  0.1576  0.2148  0.3570
  253SOD    SOD22313   2.141   3.147  10.797 -0.3077 -0.1728 -0.9785
  254SOD    SOD22314   2.174   6.735  10.627  0.1129 -0.0760  0.2450
  255SOD    SOD22315   0.232   1.479  12.238 -0.2724  0.2571 -0.7062
  256SOD    SOD22316   2.861   1.625   1.391 -0.4549 -0.0740  0.3507
  257SOD    SOD22317   1.391   2.775  11.420  0.0668  0.0975 -0.1719
  258SOD    SOD22318   5.915   5.180  15.205 -0.3474 -0.4299 -0.2112
  259SOD    SOD22319   4.903   2.301   0.405 -0.4211  0.1232  0.1517
  260SOD    SOD22320   0.386   6.540   5.791 -0.0844  0.1025  0.0153
  261SOD    SOD22321   4.582   6.389   3.792 -0.0667 -0.4647  0.4364
  262SOD    SOD22322   6.451   0.145   6.643 -0.1209 -0.0348  0.1568
  263SOD    SOD22323   3.753   0.142  10.767  0.0291 -0.2266 -0.1564
  264SOD    SOD22324   4.209   5.956   5.198  0.2399  0.1478 -0.5881
  265SOD    SOD22325   6.607   6.598  15.244  0.5270  0.3117 -0.3525
  266SOD    SOD22326   2.746   0.428  15.358 -0.4092  0.2278  0.4831
  267SOD    SOD22327   1.713   4.530  10.680 -0.2751  0.2484 -0.2064
  268SOD    SOD22328   4.133   4.081  14.115  0.2786  0.1494 -0.4593
  269SOD    SOD22329   1.611   2.712  15.471 -0.4372  0.0003  0.0807
  270CLA    CLA22330   0.154   6.587   5.235  0.3247  0.4293  0.3712
  271CLA    CLA22331   5.342   5.225   0.718  0.2863  0.0440 -0.5016
  272CLA    CLA22332   6.447   3.971  15.664  0.0368 -0.3222 -0.3979
  273CLA    CLA22333   6.548   2.572   1.948 -0.1104 -0.4041  0.1956
  274CLA    CLA22334   3.490   0.341   4.046  0.0793 -0.1101  0.3639
  275CLA    CLA22335   0.505   4.195  15.012  0.1666 -0.0105  0.0782
  276CLA    CLA22336   5.130   1.618  16.580 -0.0492  0.1823  0.0795
  277CLA    CLA22337   4.465   2.306  13.461  0.1739  0.0696 -0.2100
  278CLA    CLA22338   6.707   6.599   2.519  0.2726 -0.1380  0.1996
  279CLA    CLA22339   4.026   2.939   0.032  0.2953  0.4984 -0.3134
  280CLA    CLA22340   4.014   2.030  17.167  0.1105 -0.4523  0.3851
  281CLA    CLA22341   1.767   3.677  14.169 -0.2037 -0.0968  0.4487
  282CLA    CLA22342   5.242   0.226   1.743  0.0646  0.0758 -0.2868
  283CLA    CLA22343   0.891   6.364   2.594 -0.1276 -0.0735 -0.5720
  284CLA    CLA22344   4.044   5.798   3.771 -0.0956 -0.3123  0.4530
  285CLA    CLA22345   0.220   0.650  15.973 -0.5376 -0.5671  0.3930
  286CLA    CLA22346   1.151   6.300  13.691  0.0689  0.1077 -0.3610
  287CLA    CLA22347   4.522   1.821  13.616 -0.2520 -0.0534  0.3829
  288CLA    CLA22348   1.928   5.476   0.343 -0.2079 -0.1896 -0.0161
  289CLA    CLA22349   1.467   1.371  12.485  0.0863  0.1207  0.0039
  290CLA    CLA22350   3.587   6.653  15.875  0.1735  0.0546 -0.5078
  291CLA    CLA22351   0.127   2.179  15.965  0.1087 -0.0300  0.3808
  292CLA    CLA22352   0.688   0.241  14.518  0.3735 -0.2807  0.2040
  293CLA    CLA22353   5.751   1.868   0.811  0.0896  0.0290 -0.3930
  294CLA    CLA22354   4.461   5.578  17.076 -0.4402 -0.0794 -0.0197
  295CLA    CLA22355   4.607   5.731  11.807 -0.0617 -0.1698 -0.2898
  296CLA    CLA22356   5.181   3.192   2.570 -0.0241 -0.2358  0.1722
  297CLA    CLA22357   0.306   2.785  11.786 -0.1427 -0.2115  0.0511
  298CLA    CLA22358   5.811   1.892   3.696 -0.3907 -0.0597  0.0819
  299CLA    CLA22359   0.371   3.315  16.598  0.1242  0.0216  0.1501
  300CLA    CLA22360   1.361   1.027  14.986  0.1899  0.3370  0.2269
  301CLA    CLA22361   1.157   1.889   3.953 -0.6188 -0.0817  0.6849
  302CLA    CLA22362   4.947   5.817   5.711 -0.1045 -0.3430  0.3071
  303CLA    CLA22363   4.655   5.371  10.899  0.6407  0.0274 -0.0613
  304CLA    CLA22364   0.073   1.919   1.685  0.2955 -0.1965 -0.0181
  305CLA    CLA22365   4.962   5.729   5.268 -0.0897 -0.3806 -0.2392
  306CLA    CLA22366   4.074   0.469  15.684 -0.0726 -0.1856  0.3585
  307CLA    CLA22367   5.713   3.892   3.338  0.0611 -0.1172  0.0277
  308CLA    CLA22368   1.276   3.699  16.303 -0.1245 -0.4092 -0.4973
  309CLA    CLA22369   3.502   1.365   1.171 -0.2550  0.1110  0.2108
  310CLA    CLA22370   3.105   4.448   1.521  0.1738  0.2379  0.2038
  311CLA    CLA22371   1.935   3.264  14.661 -0.2557 -0.1179 -0.4096
  312CLA    CLA22372   3.605   3.966   3.669  0.0988 -0.0624  0.2178
  313CLA    CLA22373   0.027   0.388  13.246 -0.1239 -0.5534 -0.2351
  314CLA    CLA22374   0.047   1.425   5.205 -0.3210 -0.0007 -0.0450
  315CLA    CLA22375   0.444   4.987  16.843  0.1043 -0.3234 -0.1667
  316CLA    CLA22376   6.689   5.399  14.653  0.1058  0.5526 -0.3407
  317CLA    CLA22377   2.022   2.908  13.077  0.3306  0.4446 -0.1445
  318CLA    CLA22378   2.674   6.426  14.469 -0.0107 -0.0769 -0.0457
  319CLA    CLA22379   6.073   2.428   0.092  0.0364  0.0074  0.0113
  320CLA    CLA22380   3.010   6.292  17.116 -0.1530 -0.1526 -0.0526
  321CLA    CLA22381   0.968   4.302  16.424 -0.1484 -0.0129 -0.3255
  322CLA    CLA22382   1.415   1.754  15.235  0.4085 -0.1778 -0.2213
  323TIP3   OH222383   0.988   6.005  13.646 -0.2476  0.7335  0.4140
  323TIP3    H122384   1.003   6.093  13.680 -1.5980  1.0563  0.2186
  323TIP3    H222385   0.989   6.016  13.551  0.0918  0.4425  0.3823
  324TIP3   OH222386   5.815   0.385   5.453 -0.2753  0.2260 -0.3404
  324TIP3    H122387   5.724   0.359   5.440 -0.3021  0.5219 -0.7711
  324TIP3    H222388   5.814   0.442   5.529 -0.1504 -1.3834  0.9392
  325TIP3   OH222389   0.791   1.994   2.527 -0.3052 -0.1992 -0.8569
  325TIP3    H122390   0.837   2.042   2.596 -2.3375 -0.6529  0.9388
  325TIP3    H222391   0.824   1.904   2.535 -0.3302 -0.1909 -0.6439
  326TIP3   OH222392   5.955   5.387   4.672 -0.6133 -0.3015 -0.2255
  326TIP3    H122393   5.935   5.300   4.708  0.9850 -0.1016  1.2883
  326TIP3    H222394   6.009   5.428   4.739  0.3831  1.1006 -1.8273
  327TIP3   OH222395   6.012   4.104  16.771 -0.4283 -0.3322 -0.0571
  327TIP3    H122396   5.916   4.095  16.774 -0.3270 -3.5124 -1.8601
  327TIP3    H222397   6.044   4.024  16.813  1.4031 -0.0888 -0.9157
  328TIP3   OH222398   0.441   4.945  12.339  0.2568 -0.7623 -0.2655
  328TIP3    H122399   0.526   4.937  12.383 -0.3120 -1.6742  0.7284
  328TIP3    H222400   0.389   4.998  12.399  0.1307 -0.1575 -0.8993
  329TIP3   OH222401   5.541   4.827  11.125  0.0086  0.4169  0.5048
  329TIP3    H122402   5.625   4.872  11.130  0.9683 -1.2217 -0.1020
  329TIP3    H222403   5.477   4.896  11.110  1.1879  1.7357  1.3724
  330TIP3   OH222404   4.418   4.245  14.420  0.4018  0.4898  0.1455
  330TIP3    H122405   4.444   4.283  14.504  0.4072 -0.9365  0.8088
  330TIP3    H222406   4.332   4.284  14.402  0.1996  0.4739  1.0288
  331TIP3   OH222407   1.290   3.632  14.266  0.3222  0.0084 -0.1624
  331TIP3    H122408   1.208   3.592  14.235 -0.1693  0.6958  0.2213
  331TIP3    H222409   1.341   3.647  14.186  0.5208 -1.3538 -0.3222
  332TIP3   OH222410   6.555   4.768   2.318 -0.0211  0.6386 -0.0606
  332TIP3    H122411   6.632   4.716   2.342 -0.1784  0.9973  1.3124
  332TIP3    H222412   6.560   4.845   2.374 -1.1451  0.8891 -0.2825
  333TIP3   OH222413   2.642   2.267  12.732 -0.0046  0.0425 -0.4582
  333TIP3    H122414   2.626   2.342  12.675 -1.5189 -0.4942 -0.8053
  333TIP3    H222415   2.729   2.282  12.769 -0.5485  2.3111  0.0339
  334TIP3   OH222416   2.004   0.676  13.141  0.2513  0.9650 -0.0371
  334TIP3    H122417   1.963   0.757  13.110 -1.7555  0.3961  0.9546
  334TIP3    H222418   1.931   0.619  13.162  1.6188 -1.1817 -0.7833
  335TIP3   OH222419   1.277   5.300   2.749  0.0493  0.0890 -0.2872
  335TIP3    H122420   1.303   5.276   2.660  2.9897 -0.6160  0.6522
  335TIP3    H222421   1.287   5.395   2.752  1.9467 -0.0752 -0.2052
  336TIP3   OH222422   4.281   3.990   0.889  0.4456  0.0692  0.6157
  336TIP3    H122423   4.306   3.970   0.979  0.1859 -0.7761  0.5060
  336TIP3    H222424   4.274   3.905   0.846  0.8667  0.4786 -0.2913
  337TIP3   OH222425   1.188   5.965   4.969 -0.9272 -0.1845  0.0523
  337TIP3    H122426   1.161   5.984   5.059  0.9116  0.8097  0.4567
  337TIP3    H222427   1.280   5.940   4.977 -1.3904 -2.6295 -1.3036
  338TIP3   OH222428   1.909   4.156  16.078  0.1721 -0.0275 -0.1566
  338TIP3    H122429   1.847   4.219  16.114  1.1311  0.3938  0.8224
  338TIP3    H222430   1.884   4.072  16.116 -0.9763 -0.2361 -1.2944
  339TIP3   OH222431   1.972   3.563   4.421  0.2746  0.5570  0.0483
  339TIP3    H122432   2.027   3.564   4.499 -1.5473  2.4868  1.3837
  339TIP3    H222433   1.933   3.475   4.420  3.3392 -0.9489 -1.0466
  340TIP3   OH222434   3.231   0.195   4.135 -0.4229 -0.0811  0.2269
  340TIP3    H122435   3.319   0.218   4.104  0.5722 -0.7229  2.3937
  340TIP3    H222436   3.207   0.266   4.195 -0.3005 -1.1024  1.5388
  341TIP3   OH222437   0.856   2.390  15.827  0.0847 -0.1384 -0.0172
  341TIP3    H122438   0.927   2.454  15.820  0.1750 -0.2626 -0.2664
  341TIP3    H222439   0.809   2.414  15.907 -0.3413  0.7048 -0.5082
  342TIP3   OH222440   4.211   1.528  16.382 -0.7019  0.2568 -0.2155
  342TIP3    H122441   4.122   1.502  16.406 -0.9324  0.8233 -0.4543
  342TIP3    H222442   4.259   1.445  16.379 -1.2079 -0.0525 -0.0548
  343TIP3   OH222443   4.556   0.799   5.314  0.3149  0.2446 -0.7316
  343TIP3    H122444   4.584   0.880   5.357 -0.6420  1.4496 -2.2682
  343TIP3    H222445   4.533   0.741   5.387 -1.5296  2.2964  0.4692
  344TIP3   OH222446   2.948   2.717  15.525  0.2506  0.2216  0.0122
  344TIP3    H122447   2.905   2.632  15.536  0.1248  0.1875 -0.6973
  344TIP3    H222448   2.882   2.772  15.483  1.2669 -0.2083 -2.2905
  345TIP3   OH222449   1.541   0.568   2.111 -0.3622  0.0884 -0.2847
  345TIP3    H122450   1.518   0.661   2.119  2.0152  0.6745  0.4837
  345TIP3    H222451   1.503   0.542   2.027 -0.6528  1.8946 -0.7751
  346TIP3   OH222452   2.554   1.321  10.948 -0.7814  0.5159 -0.3189
  346TIP3    H122453   2.602   1.399  10.921 -1.6690  0.8633 -0.9513
  346TIP3    H222454   2.579   1.254  10.884  1.6764 -0.4042  1.4776
  347TIP3   OH222455   1.668   0.703  12.007 -0.8468  0.2881 -0.2731
  347TIP3    H122456   1.747   0.650  12.002 -0.1656  1.3136 -0.9106
  347TIP3    H222457   1.672   0.744  12.094 -3.1246 -3.2090  1.7251
  348TIP3   OH222458   6.204   2.677  11.773 -0.6566  0.0810 -0.1873
  348TIP3    H122459   6.206   2.581  11.776 -0.8752  0.0942  0.7663
  348TIP3    H222460   6.148   2.697  11.698  0.8286 -0.5101 -1.5024
  349TIP3   OH222461   2.353   5.828  14.987 -0.1441 -0.1836  0.2200
  349TIP3    H122462   2.342   5.734  15.005  0.1227  0.1296  2.3175
  349TIP3    H222463   2.446   5.837  14.965 -0.2619 -0.4589 -0.4067
  350TIP3   OH222464   0.679   5.942  16.860 -0.2884 -0.5814 -0.0124
  350TIP3    H122465   0.753   5.889  16.890 -0.6433 -0.6659  0.7232
  350TIP3    H222466   0.683   5.936  16.764  1.3064  0.3217 -0.0225
  351TIP3   OH222467   5.359   1.629  15.959 -0.0826  1.2991 -0.3805
  351TIP3    H122468   5.331   1.538  15.958  0.7886  1.0143  0.2412
  351TIP3    H222469   5.292   1.675  15.909  0.1657  0.1302 -1.8411
  352TIP3   OH222470   4.845   3.922   5.447  0.2132  0.4495 -0.2799
  352TIP3    H122471   4.802   3.877   5.375  0.9286 -0.9005  0.1017
  352TIP3    H222472   4.800   4.006   5.454 -1.0174 -0.1194 -1.1620
  353TIP3   OH222473   4.760   2.684  16.627 -0.1765 -0.7825 -0.4156
  353TIP3    H122474   4.825   2.668  16.695 -0.4629 -0.4657 -0.0662
  353TIP3    H222475   4.696   2.614  16.637 -0.5490 -0.3847  0.0475
  354TIP3   OH222476   1.073   5.501  14.597  0.1307  0.0632 -0.8309
  354TIP3    H122477   1.147   5.495  14.536 -0.8734 -1.5485 -1.9529
  354TIP3    H222478   1.051   5.410  14.617  0.1329  0.5555  1.6188
  355TIP3   OH222479   2.719   1.853   0.038  0.4399 -0.5666  0.2917
  355TIP3    H122480   2.764   1.813   0.113  0.4684  0.4644  0.8347
  355TIP3    H222481   2.715   1.946   0.059 -1.0673 -0.4963 -0.2181
  356TIP3   OH222482   1.249   6.635  15.930 -0.3396  0.3528  0.9485
  356TIP3    H122483   1.262   6.730  15.941  0.5603  0.2601  0.7197
  356TIP3    H222484   1.335   6.602  15.904  0.0145 -0.8765  3.3694
  357TIP3   OH222485   1.201   3.477   1.636 -0.1996  0.1912  0.8050
  357TIP3    H122486   1.131   3.488   1.572 -0.3849  0.2881  1.0219
  357TIP3    H222487   1.190   3.551   1.696  0.1003  0.2168  0.8283
  358TIP3   OH222488   5.690   4.588   0.257  0.1691  0.4435  0.0362
  358TIP3    H122489   5.697   4.654   0.189 -0.4537  1.0998  0.5958
  358TIP3    H222490   5.712   4.635   0.338  1.2316 -0.3971  0.2590
  359TIP3   OH222491   4.881   2.577   1.040 -0.1162  0.1900  1.0357
  359TIP3    H122492   4.968   2.539   1.054  0.1670  0.2815 -0.3026
  359TIP3    H222493   4.876   2.648   1.104  0.3210 -0.5410  1.9092
  360TIP3   OH222494   0.436   4.584  13.533 -0.0340  0.3126  0.2088
  360TIP3    H122495   0.409   4.495  13.512  1.0606 -0.2891  1.1980
  360TIP3    H222496   0.410   4.636  13.457 -1.1495 -0.7498 -0.1638
  361TIP3   OH222497   3.462   1.460  16.547 -0.2373 -0.0520 -0.2225
  361TIP3    H122498   3.414   1.393  16.498  1.7806 -1.8117  0.0662
  361TIP3    H222499   3.461   1.429  16.637 -1.5246  1.7388  0.4387
  362TIP3   OH222500   3.025   4.590   1.075  0.3350 -0.3182  0.1192
  362TIP3    H122501   3.035   4.669   1.022 -0.5550  0.3389  0.9023
  362TIP3    H222502   3.108   4.544   1.065 -0.0387 -0.5614 -2.3615
  363TIP3   OH222503   3.808   4.829  15.230 -0.1811 -0.9317 -0.5310
  363TIP3    H122504   3.856   4.825  15.313  0.2585 -2.2012 -0.8218
  363TIP3    H222505   3.848   4.761  15.176 -0.8843 -0.5494 -1.5666
  364TIP3   OH222506   5.047   4.933  10.506  0.7122  0.5159 -0.0715
  364TIP3    H122507   5.126   4.883  10.485  0.1656 -1.4106  2.0755
  364TIP3    H222508   5.065   4.972  10.591  0.2226  2.0987 -0.6635
  365TIP3   OH222509   6.148   5.238  16.953  0.0684  0.1257 -0.5587
  365TIP3    H122510   6.186   5.254  17.040  0.8362  1.8594 -1.1589
  365TIP3    H222511   6.061   5.204  16.971  1.0994 -1.9848  0.8784
  366TIP3   OH222512   1.818   5.733   4.898 -0.2041  0.0931 -0.1303
  366TIP3    H122513   1.872   5.790   4.952  0.8780  0.8809 -1.9646
  366TIP3    H222514   1.833   5.763   4.808 -0.2138 -2.5665 -1.1115
  367TIP3   OH222515   4.826   2.677  11.527 -0.0330  0.3441  0.5396
  367TIP3    H122516   4.897   2.721  11.573  1.5618 -1.5080  0.0187
  367TIP3    H222517   4.845   2.584  11.537 -1.9396 -0.2052 -0.3503
  368TIP3   OH222518   4.137   4.657   3.249 -0.3658  0.4211  0.1862
  368TIP3    H122519   4.160   4.742   3.286  2.8879 -0.3883  0.3312
  368TIP3    H222520   4.093   4.678   3.167 -1.3005  2.2213  1.0873
  369TIP3   OH222521   5.299   1.183   1.074  0.4849  0.0489 -0.3284
  369TIP3    H122522   5.346   1.265   1.055 -0.6888  0.5884 -0.9676
  369TIP3    H222523   5.369   1.119   1.087  1.4581  1.2501  0.7465
  370TIP3   OH222524   3.474   5.237  14.003  0.5283  0.5285 -0.0893
  370TIP3    H122525   3.527   5.292  14.059  0.6105  0.2355  0.1258
  370TIP3    H222526   3.479   5.150  14.043  0.7399  0.2748 -0.6514
  371TIP3   OH222527   1.557   3.843   4.712 -0.5528  0.5880 -0.0610
  371TIP3    H122528   1.516   3.787   4.646  0.7974  0.6487 -0.9993
  371TIP3    H222529   1.573   3.925   4.667  1.9915  0.0589 -0.2615
  372TIP3   OH222530   2.207   2.344   3.642  0.1299  0.4226 -0.0061
  372TIP3    H122531   2.302   2.354   3.652  0.1841 -0.0480 -0.0291
  372TIP3    H222532   2.197   2.275   3.576 -0.2270  0.2531  0.2243
  373TIP3   OH222533   5.893   0.176  11.600 -0.0582  0.5022  0.3893
  373TIP3    H122534   5.923   0.086  11.610 -0.8344  0.3342  1.3718
  373TIP3    H222535   5.887   0.210  11.690 -2.1350  0.7159  0.2276
  374TIP3   OH222536   4.714   3.641  16.712 -0.3584 -0.3525 -0.9174
  374TIP3    H122537   4.637   3.630  16.656  0.3242 -0.5701 -1.8147
  374TIP3    H222538   4.702   3.577  16.782 -1.0598 -0.2840 -0.9639
  375TIP3   OH222539   1.683   5.005   3.070  0.6375 -0.4225  0.1999
  375TIP3    H122540   1.656   5.080   3.017 -1.0368 -1.0794  0.0641
  375TIP3    H222541   1.731   4.949   3.009  0.4030 -0.2546 -0.1470
  376TIP3   OH222542   2.080   3.417  14.403  0.1101  0.5988 -0.7262
  376TIP3    H122543   2.042   3.382  14.483  0.8996  0.3892 -0.4370
  376TIP3    H222544   2.056   3.353  14.335  1.8728 -0.7551 -0.1335
  377TIP3   OH222545   3.306   5.606   5.857 -0.1988 -0.5709  0.0087
  377TIP3    H122546   3.376   5.570   5.802  0.3940  0.5227  0.0047
  377TIP3    H222547   3.227   5.559   5.830  0.6434 -2.3656  0.5285
  378TIP3   OH222548   5.498   4.385  14.084  0.5490  0.2651  0.5758
  378TIP3    H122549   5.588   4.352  14.087  1.4083  2.2213 -0.8817
  378TIP3    H222550   5.487   4.413  13.993 -1.5283  0.1500  0.7589
  379TIP3   OH222551   1.595   6.658   4.719 -0.0001  0.3274 -0.3835
  379TIP3    H122552   1.649   6.737   4.711  0.6614 -0.1408 -0.5916
  379TIP3    H222553   1.527   6.682   4.783  0.2926  1.0095 -0.3196
  380TIP3   OH222554   6.071   1.202  14.660 -0.1613  0.4706 -0.1002
  380TIP3    H122555   6.034   1.141  14.596  1.8306 -1.2942  0.3378
  380TIP3    H222556   6.103   1.276  14.607  1.7201 -1.0814 -1.2444
  381TIP3   OH222557   3.498   0.461  13.880  0.1930 -0.2648  0.3471
  381TIP3    H122558   3.531   0.434  13.795 -1.1996 -0.0837 -0.2711
  381TIP3    H222559   3.577   0.470  13.934  1.0781 -0.5927 -0.8427
  382TIP3   OH222560   0.114   2.573   0.040 -0.5651  0.1197 -0.3202
  382TIP3    H122561   0.049   2.609   0.101 -1.8160 -1.2961 -0.7253
  382TIP3    H222562   0.112   2.633  -0.034 -4.2967 -1.7163 -2.0060
  383TIP3   OH222563   6.304   2.991   1.529 -0.5396 -0.1720 -0.3929
  383TIP3    H122564   6.391   2.997   1.489 -1.0425 -0.0293 -1.5140
  383TIP3    H222565   6.274   3.082   1.535 -0.4026 -0.1802  0.4756
  384TIP3   OH222566   3.090   1.676   2.792 -0.2248 -0.3297  0.4644
  384TIP3    H122567   3.165   1.618   2.781  1.2898  1.7813 -1.0476
  384TIP3    H222568   3.112   1.731   2.866 -0.3813  0.1424  0.1646
  385TIP3   OH222569   6.748   3.155  14.092 -0.7599  0.0756  0.0026
  385TIP3    H122570   6.743   3.148  13.997  0.6953  1.6159 -0.2309
  385TIP3    H222571   6.665   3.119  14.123 -1.7436  0.5615 -1.9030
  386TIP3   OH222572   1.668   4.100  16.429 -0.5582  0.3624  0.4617
  386TIP3    H122573   1.642   4.120  16.339  4.1389  0.1696 -1.1765
  386TIP3    H222574   1.742   4.157  16.447  1.8128 -2.9298  2.3090
  387TIP3   OH222575   2.258   5.489  12.579 -0.0417  0.0258 -0.4604
  387TIP3    H122576   2.276   5.487  12.485 -1.3106  0.0433 -0.7173
  387TIP3    H222577   2.322   5.551  12.614  0.0829  0.4518 -1.3999
  388TIP3   OH222578   3.743   1.183  12.735  0.1218  0.4632  0.0553
  388TIP3    H122579   3.664   1.140  12.703  0.6131 -0.2935 -0.1674
  388TIP3    H222580   3.712   1.245  12.801 -0.4018 -2.5370  2.9217
  389TIP3   OH222581   3.184   5.681  12.092  0.4622 -0.0599  0.1802
  389TIP3    H122582   3.103   5.732  12.098  0.0400 -0.7974  0.8530
  389TIP3    H222583   3.175   5.630  12.012  0.8878  0.8807 -0.5014
  390TIP3   OH222584   6.490   2.627   4.263  0.1973 -0.3223  0.0474
  390TIP3    H122585   6.498   2.709   4.312 -0.4458 -0.7229  0.8618
  390TIP3    H222586   6.580   2.597   4.250  0.3952 -0.0210  0.6831
  391TIP3   OH222587   4.553   6.583   6.248  0.3100  0.2441  0.5302
  391TIP3    H122588   4.611   6.659   6.243 -0.7319  1.1890  2.0779
  391TIP3    H222589   4.465   6.621   6.248 -0.3031 -1.0957 -0.7034
  392TIP3   OH222590   0.514   0.626   1.467 -0.0484  0.2889  0.1735
  392TIP3    H122591   0.562   0.567   1.525  1.5700 -2.1533 -3.3697
  392TIP3    H222592   0.563   0.708   1.472  1.9850 -0.8407 -0.0750
  393TIP3   OH222593   0.681   5.741  13.409 -0.1631  0.1546  1.4619
  393TIP3    H122594   0.709   5.739  13.501 -1.3290  0.7215  1.8560
  393TIP3    H222595   0.755   5.704  13.361  0.7974  0.5754  2.5470
  394TIP3   OH222596   1.204   3.332  13.476 -0.0833 -0.0405  0.2645
  394TIP3    H122597   1.252   3.381  13.410 -0.3565  0.6526  0.5695
  394TIP3    H222598   1.167   3.257  13.429 -2.0601  1.5456 -0.8520
  395TIP3   OH222599   2.187   4.547   4.757 -0.0442 -0.1447  0.6209
  395TIP3    H122600   2.180   4.452   4.765  0.1170 -0.0183  3.1566
  395TIP3    H222601   2.151   4.566   4.671  1.4486 -2.6229 -0.6885
  396TIP3   OH222602   5.113   3.003   0.404 -0.7053  0.2759  0.0313
  396TIP3    H122603   5.118   3.095   0.379 -1.0409  0.0187 -0.9964
  396TIP3    H222604   5.019   2.982   0.399 -0.5156 -0.4129 -0.8352
  397TIP3   OH222605   2.467   4.020   4.714  0.6860  0.0615  0.0287
  397TIP3    H122606   2.464   4.002   4.620  1.7061  1.0197 -0.2059
  397TIP3    H222607   2.447   4.113   4.722  2.4621  0.4345  0.5662
  398TIP3   OH222608   6.450   1.932   3.807 -0.4902  0.2046  0.7372
  398TIP3    H122609   6.358   1.942   3.781 -0.4428 -2.7298 -1.0737
  398TIP3    H222610   6.498   1.980   3.740 -0.6597  1.0969  1.2440
  399TIP3   OH222611   5.361   2.932  13.962  0.4725  0.3694 -0.1552
  399TIP3    H122612   5.278   2.899  13.997  0.3641  1.7060  0.9088
  399TIP3    H222613   5.347   2.934  13.867  0.2166 -1.8330 -0.2227
  400TIP3   OH222614   2.248   1.854  10.599 -0.7502 -0.3527  0.5028
  400TIP3    H122615   2.277   1.764  10.583 -0.3169 -0.2192  0.5020
  400TIP3    H222616   2.288   1.877  10.683 -1.1606 -0.2846  0.6811
  401TIP3   OH222617   2.466   6.034  11.244  0.2646  0.0221 -0.6699
  401TIP3    H122618   2.514   6.117  11.241  0.4483 -0.0792 -0.5341
  401TIP3    H222619   2.464   6.005  11.152 -0.3748  0.5001 -0.8173
  402TIP3   OH222620   5.671   2.617   6.452 -0.8282 -0.6352  0.1833
  402TIP3    H122621   5.601   2.680   6.436  0.1635  0.2045 -0.9653
  402TIP3    H222622   5.744   2.646   6.397  0.3360 -1.6564  1.1154
  403TIP3   OH222623   3.152   3.662  11.533 -0.2728 -0.0472 -0.3231
  403TIP3    H122624   3.131   3.719  11.607  0.9910  0.0536 -0.0285
  403TIP3    H222625   3.167   3.576  11.572  1.0129  0.1407 -0.3700
  404TIP3   OH222626   6.386   0.448   6.332 -0.6273 -0.1469 -0.1418
  404TIP3    H122627   6.436   0.487   6.403 -1.5241  1.0959 -0.1647
  404TIP3    H222628   6.421   0.488   6.252 -0.6989 -0.3472 -0.2765
  405TIP3   OH222629   4.292   6.557   5.364 -0.0091  0.3274  0.5481
  405TIP3    H122630   4.292   6.467   5.330 -0.6057 -0.4731  2.5272
  405TIP3    H222631   4.200   6.576   5.381  0.2773  0.5956  1.8845
  406TIP3   OH222632   0.798   0.409  13.259  0.3466  0.1009  0.1312
  406TIP3    H122633   0.817   0.477  13.324  0.8580  0.3788 -0.3031
  406TIP3    H222634   0.803   0.453  13.175 -1.4306 -0.0054 -0.0667
  407TIP3   OH222635   1.272   0.180   6.281 -0.2626 -0.3959  0.3870
  407TIP3    H122636   1.247   0.154   6.369 -2.3140  0.2164  0.0370
  407TIP3    H222637   1.303   0.098   6.240  0.1240 -0.7976  1.4465
  408TIP3   OH222638   0.516   0.324  11.858  0.4741  0.0677 -1.2128
  408TIP3    H122639   0.420   0.316  11.867  0.4511  0.3261 -1.2348
  408TIP3    H222640   0.543   0.239  11.824  0.4441 -0.5994  0.3732
  409TIP3   OH222641   5.927   4.438   4.483  0.2294  0.2471  0.2130
  409TIP3    H122642   5.965   4.366   4.432  1.5699  0.2003  1.2112
  409TIP3    H222643   5.857   4.397   4.533  0.2220 -0.1213 -0.0946
  410TIP3   OH222644   6.613   2.488  16.014  0.0765 -0.4623  0.6247
  410TIP3    H122645   6.547   2.476  16.082 -2.1245 -1.4735 -1.5671
  410TIP3    H222646   6.690   2.441  16.047 -1.5043 -2.4608  1.6479
  411TIP3   OH222647   6.566   5.881  15.574  0.0226 -0.4516  0.0525
  411TIP3    H122648   6.602   5.849  15.491  0.3881 -0.9611  0.3997
  411TIP3    H222649   6.624   5.845  15.641  0.9501  1.5898  0.4467
  412TIP3   OH222650   2.502   0.417  12.015  0.3169 -0.0196  0.1102
  412TIP3    H122651   2.483   0.364  11.937  0.4985  0.8335 -0.5312
  412TIP3    H222652   2.481   0.359  12.088 -0.0767 -0.7684 -0.5653
  413TIP3   OH222653   0.015   0.797   2.253  0.0264  0.2537 -0.0421
  413TIP3    H122654  -0.068   0.845   2.245 -0.5698 -1.0428 -2.4428
  413TIP3    H222655   0.006   0.723   2.194  2.3871 -0.7296  0.7173
  414TIP3   OH222656   3.550   3.745   3.866  0.3552  0.3006 -0.0682
  414TIP3    H122657   3.535   3.823   3.812 -1.5396 -0.2782 -0.4876
  414TIP3    H222658   3.603   3.688   3.811  1.2463  1.0325  0.0071
  415TIP3   OH222659   4.856   4.331   3.044  0.2021 -0.4166 -0.0321
  415TIP3    H122660   4.822   4.301   3.128  0.0696  0.2269  0.1508
  415TIP3    H222661   4.890   4.252   3.002 -2.3122 -1.2891 -0.6218
  416TIP3   OH222662   2.586   0.191  13.319 -0.0848 -0.1016  0.1233
  416TIP3    H122663   2.578   0.273  13.368 -1.5633 -0.5318  0.6529
  416TIP3    H222664   2.557   0.212  13.231 -0.7128 -0.0991  0.3251
  417TIP3   OH222665   0.119   2.747   4.476  0.4815 -0.5771  0.2884
  417TIP3    H122666   0.147   2.838   4.473 -1.0826 -0.0752  0.0513
  417TIP3    H222667   0.121   2.718   4.384  1.5595 -0.9876  0.4275
  418TIP3   OH222668   3.542   3.858  15.417  0.0442  0.3024 -0.1637
  418TIP3    H122669   3.469   3.797  15.407  1.2770 -1.0710 -1.2943
  418TIP3    H222670   3.537   3.913  15.339  1.0128 -0.7357 -0.9921
  419TIP3   OH222671   6.083   0.001   4.617  0.2697  0.0357 -0.1777
  419TIP3    H122672   6.123   0.076   4.661  0.7763  0.7309 -1.7272
  419TIP3    H222673   6.125  -0.076   4.656  3.0724  0.7281 -1.5925
  420TIP3   OH222674   5.939   2.897  11.244 -0.3201 -0.1486 -0.3347
  420TIP3    H122675   6.023   2.908  11.288 -0.5107  0.6712 -0.1654
  420TIP3    H222676   5.911   2.808  11.268  0.4636 -0.4033 -0.3441
  421TIP3   OH222677   3.288   5.138   2.563  0.0410  0.0558  0.1658
  421TIP3    H122678   3.231   5.159   2.637 -0.1885 -1.3001  0.4044
  421TIP3    H222679   3.319   5.223   2.532 -1.3044  0.7656  0.6692
  422TIP3   OH222680   2.690   1.098  11.457 -0.2554  0.2568 -0.6305
  422TIP3    H122681   2.620   1.044  11.420 -2.5665  2.5213  0.1156
  422TIP3    H222682   2.702   1.065  11.546 -1.9217  1.1229 -0.0436
  423TIP3   OH222683   6.126   6.162   5.246  0.7173 -0.3938 -0.4543
  423TIP3    H122684   6.175   6.244   5.240 -1.3240  0.9487  0.2437
  423TIP3    H222685   6.045   6.186   5.290  0.5285 -3.0342  0.7909
  424TIP3   OH222686   5.446   4.883  11.426 -0.3447  0.3202  0.5508
  424TIP3    H122687   5.515   4.818  11.445 -0.4509  0.2872  0.8347
  424TIP3    H222688   5.457   4.903  11.334  0.1019  0.3762  0.6145
  425TIP3   OH222689   4.735   0.423  16.498  0.0910 -0.0763  0.1120
  425TIP3    H122690   4.824   0.442  16.469  0.3487 -1.3106  0.0529
  425TIP3    H222691   4.680   0.441  16.421  0.4920 -0.9359 -0.3921
  426TIP3   OH222692   2.850   4.118   3.361  0.2694  0.0893  0.3656
  426TIP3    H122693   2.795   4.067   3.421  0.6716  0.1946  0.8246
  426TIP3    H222694   2.922   4.151   3.415  1.3426 -0.8759 -0.4158
  427TIP3   OH222695   1.402   0.785  14.604 -0.7581  0.1455  0.3606
  427TIP3    H122696   1.323   0.795  14.551 -1.1105 -0.9786  0.6463
  427TIP3    H222697   1.474   0.788  14.542 -1.1689 -1.3099 -0.2344
  428TIP3   OH222698   4.676   1.119   1.668  0.4550  0.5212 -0.6501
  428TIP3    H122699   4.751   1.163   1.626  0.6095  1.6174  0.6995
  428TIP3    H222700   4.635   1.188   1.720 -0.2770 -0.5794  0.2538
  429TIP3   OH222701   5.489   4.098   2.939 -0.2665  0.3891 -0.1782
  429TIP3    H122702   5.497   4.192   2.926  0.2241  0.2451 -1.0105
  429TIP3    H222703   5.575   4.070   2.968 -0.3207  0.1545 -0.2407
  430TIP3   OH222704   5.062   6.232  15.950  0.0356 -0.1616 -0.1812
  430TIP3    H122705   5.146   6.213  15.906 -0.4266 -0.5598 -0.9149
  430TIP3    H222706   5.086   6.246  16.042  0.9760  0.2788 -0.4765
  431TIP3   OH222707   4.925   0.828   0.149 -0.3633 -0.2303 -0.0537
  431TIP3    H122708   4.898   0.854   0.237  0.2948 -0.1275  0.1223
  431TIP3    H222709   5.019   0.811   0.157  0.5726  3.2579 -1.4903
  432TIP3   OH222710   4.912   3.761   5.678 -0.1508 -0.8490  0.3097
  432TIP3    H122711   4.839   3.753   5.739  0.4542  0.2176  1.2074
  432TIP3    H222712   4.874   3.801   5.600 -0.3306  0.7876  1.2008
  433TIP3   OH222713   3.603   6.369   5.229  0.5525 -0.6091  0.7461
  433TIP3    H122714   3.529   6.404   5.280 -0.1728  0.4535 -0.9459
  433TIP3    H222715   3.568   6.289   5.189  0.2224 -0.0388 -0.1577
  434TIP3   OH222716   5.497   1.475   3.887  0.6051  0.2990  0.1959
  434TIP3    H122717   5.534   1.546   3.940  0.7658 -0.3146  0.9142
  434TIP3    H222718   5.432   1.434   3.944 -2.1022  2.0307 -1.3716
  435TIP3   OH222719   0.664   2.967  16.858  0.2512  0.0511 -0.6966
  435TIP3    H122720   0.599   2.936  16.922 -0.1247  1.6105 -0.2728
  435TIP3    H222721   0.747   2.931  16.889 -0.2812 -1.2575 -0.7489
  436TIP3   OH222722   3.158   5.420   0.110  0.0024 -0.5034 -0.5591
  436TIP3    H122723   3.153   5.362   0.034 -1.4026  0.4020 -1.1962
  436TIP3    H222724   3.252   5.431   0.126  0.3127 -0.9657 -1.9644
  437TIP3   OH222725   2.371   4.146  16.600 -0.5520 -0.0060  0.4719
  437TIP3    H122726   2.314   4.220  16.624 -0.4709  0.2665 -0.1581
  437TIP3    H222727   2.380   4.153  16.505  1.1782  0.4312  0.6275
  438TIP3   OH222728   3.924   0.898   2.344 -0.6973 -0.2465 -0.6365
  438TIP3    H122729   3.887   0.881   2.257 -0.4470  0.2398 -0.8449
  438TIP3    H222730   4.017   0.913   2.327 -0.4600 -1.1293 -0.1611
  439TIP3   OH222731   1.195   3.620   2.346  0.3045  0.4598  0.5250
  439TIP3    H122732   1.159   3.707   2.328  1.0655  0.8310  0.7228
  439TIP3    H222733   1.268   3.612   2.285 -0.7800 -0.7505 -0.6670
  440TIP3   OH222734   2.598   4.349  16.820  0.1957 -0.3264 -0.7110
  440TIP3    H122735   2.573   4.428  16.773 -0.2557  0.3794  0.6690
  440TIP3    H222736   2.693   4.356  16.831  0.0059  0.7166  0.5447
  441TIP3   OH222737   2.400   6.645   0.139  0.3140 -0.0357  0.1779
  441TIP3    H122738   2.459   6.623   0.211  0.4949  0.4022  0.1623
  441TIP3    H222739   2.368   6.560   0.108  0.1021 -0.2192  0.8796
  442TIP3   OH222740   0.994   2.576  15.034  0.0485  0.2229  0.3795
  442TIP3    H122741   1.084   2.553  15.058 -0.0980 -1.0059 -0.1628
  442TIP3    H222742   0.940   2.536  15.102 -0.1506 -0.0860  0.0433
  443TIP3   OH222743   2.339   3.548  15.663 -0.3389 -0.5717  0.3842
  443TIP3    H122744   2.350   3.584  15.575 -1.3175 -3.7240 -1.1810
  443TIP3    H222745   2.428   3.541  15.698  0.1226  0.0478 -0.6308
  444TIP3   OH222746   1.314   4.327  12.991 -0.7507  0.2085  0.2434
  444TIP3    H122747   1.355   4.331  12.905  0.3415 -0.3597  0.7078
  444TIP3    H222748   1.375   4.275  13.044 -0.9231  1.3349  1.6045
  445TIP3   OH222749   5.737   5.785   2.631  0.4091 -0.0562 -0.3221
  445TIP3    H122750   5.761   5.721   2.563  0.5458 -0.4709  0.1115
  445TIP3    H222751   5.811   5.784   2.691  0.1229  0.0363  0.0311
  446TIP3   OH222752   3.466   3.044   1.237  0.6295 -0.1093 -0.8282
  446TIP3    H122753   3.448   3.107   1.167 -1.4374  1.1482  0.7177
  446TIP3    H222754   3.384   2.995   1.246  0.7606 -0.0784  0.8404
  447TIP3   OH222755   2.201   2.665   4.915 -0.8376 -0.3100 -0.1787
  447TIP3    H122756   2.199   2.668   4.819 -0.6333 -0.6007 -0.1937
  447TIP3    H222757   2.289   2.635   4.936 -0.5187  0.7982  0.1362
  448TIP3   OH222758   1.257   2.746  14.009 -0.0460 -0.5164 -0.5715
  448TIP3    H122759   1.319   2.700  14.066  0.3029 -0.5115 -0.9450
  448TIP3    H222760   1.173   2.704  14.027 -0.2445  0.4882  1.0768
  449TIP3   OH222761   5.859   2.757   1.240 -0.8329  0.1293  0.3023
  449TIP3    H122762   5.945   2.785   1.209 -0.5927 -0.9271 -0.0024
  449TIP3    H222763   5.874   2.674   1.284 -1.5986  0.2678  0.8491
  450TIP3   OH222764   5.255   3.586   4.157  0.1778  0.4481 -0.3062
  450TIP3    H122765   5.169   3.614   4.125  0.6963  2.2470 -0.2659
  450TIP3    H222766   5.237   3.538   4.237 -0.7431  1.7861  0.3140
  451TIP3   OH222767   6.746   1.666  13.103  0.2506 -0.4653 -0.4796
  451TIP3    H122768   6.677   1.600  13.104 -0.0537 -0.1674  0.9893
  451TIP3    H222769   6.796   1.649  13.182  0.9189  0.2964 -0.7229
  452TIP3   OH222770   5.711   0.468  14.085 -0.3643 -0.2437  0.2526
  452TIP3    H122771   5.638   0.529  14.070  0.3307  0.3379 -0.9130
  452TIP3    H222772   5.781   0.499  14.028  0.2962 -1.6654  0.2304
  453TIP3   OH222773   4.818   3.418  11.114  0.3159  0.1497 -0.0396
  453TIP3    H122774   4.814   3.514  11.108 -0.0405  0.1968  0.8583
  453TIP3    H222775   4.819   3.389  11.023  0.4349  1.0048 -0.3242
  454TIP3   OH222776   6.198   0.619   0.580  0.3219  0.6644  0.0950
  454TIP3    H122777   6.272   0.560   0.570  1.9985  2.7649 -0.8720
  454TIP3    H222778   6.225   0.699   0.534 -2.5961  1.5086 -0.3919
  455TIP3   OH222779   1.176   0.716   3.595 -0.0257  0.4179 -0.4571
  455TIP3    H122780   1.217   0.655   3.534 -1.7203  0.7879 -2.0518
  455TIP3    H222781   1.193   0.802   3.557 -2.9307  0.5440 -1.7115
  456TIP3   OH222782   6.185   5.759  11.836  0.0207 -0.2621  0.0328
  456TIP3    H122783   6.276   5.771  11.864  0.1031 -1.8351  0.5157
  456TIP3    H222784   6.182   5.798  11.748  0.9000  0.6792  0.3939
  457TIP3   OH222785   5.695   5.976   1.446 -0.6099 -0.0934 -0.2372
  457TIP3    H122786   5.729   6.065   1.459  4.3647 -1.6008 -0.9338
  457TIP3    H222787   5.710   5.933   1.530 -3.0072 -0.4025  0.0970
  458TIP3   OH222788   1.499   5.833   6.562 -0.3110  0.3921 -0.2249
  458TIP3    H122789   1.474   5.827   6.470  1.1231 -1.3359 -0.5661
  458TIP3    H222790   1.590   5.863   6.560  0.0492 -0.5803  0.5561
  459TIP3   OH222791   2.594   2.779  14.678 -0.4948  0.2147 -0.2533
  459TIP3    H122792   2.583   2.684  14.675  2.1818 -0.1957  0.8833
  459TIP3    H222793   2.672   2.796  14.627 -1.1242  1.8896 -0.7172
  460TIP3   OH222794   6.088   3.462  15.340  0.0753 -0.2173  0.2787
  460TIP3    H122795   6.165   3.518  15.353  1.9495 -2.9421  2.1572
  460TIP3    H222796   6.089   3.442  15.246 -0.0955  2.0129 -0.2500
  461TIP3   OH222797   3.467   4.409  15.166 -0.2963 -0.2458 -0.3844
  461TIP3    H122798   3.439   4.359  15.243 -1.6448 -1.4621 -1.5876
  461TIP3    H222799   3.427   4.495  15.178 -2.0961 -1.0030 -0.5743
  462TIP3   OH222800   3.196   6.404   5.184 -0.4007 -0.0437 -0.0453
  462TIP3    H122801   3.180   6.316   5.220  2.8025 -0.5549  0.3958
  462TIP3    H222802   3.134   6.460   5.230 -0.2031 -1.5634  2.2320
  463TIP3   OH222803   1.294   1.477   5.534 -0.2826 -0.1649 -0.1215
  463TIP3    H122804   1.260   1.520   5.456 -3.4429  1.7494  2.0885
  463TIP3    H222805   1.348   1.544   5.577 -0.5505 -0.3605  0.5326
  464TIP3   OH222806   6.557   0.751  13.160  0.7773 -0.5107 -0.3719
  464TIP3    H122807   6.591   0.763  13.249  0.6985  1.3370 -0.5662
  464TIP3    H222808   6.491   0.682  13.169 -0.1408  0.5248  1.2375
  465TIP3   OH222809   4.296   2.670   0.540  0.1044 -0.5524 -0.5985
  465TIP3    H122810   4.205   2.699   0.542  0.2419  0.0269  2.1055
  465TIP3    H222811   4.291   2.575   0.540 -0.7411 -0.7033  3.5675
  466TIP3   OH222812   0.041   5.008  13.515  0.5385  0.4364  0.5022
  466TIP3    H122813   0.048   5.099  13.486  1.9525  0.5405  1.0686
  466TIP3    H222814   0.034   4.957  13.434  1.7967  0.9135  0.0717
  467TIP3   OH222815   3.345   4.895  16.321 -0.2736  0.0788 -0.4002
  467TIP3    H122816   3.342   4.825  16.256  1.5449  0.1265 -0.5844
  467TIP3    H222817   3.436   4.926  16.320 -1.4378  4.0728 -2.0257
  468TIP3   OH222818   0.008   4.739   4.696  0.2341 -0.1136  0.2450
  468TIP3    H122819   0.001   4.834   4.693  1.4785  0.0840  1.9828
  468TIP3    H222820   0.050   4.721   4.780  0.4655 -2.1783 -0.2638
  469TIP3   OH222821   5.097   0.076  16.088  0.2809  0.4324  0.0255
  469TIP3    H122822   5.077   0.128  16.166 -1.2514 -1.2898  0.8646
  469TIP3    H222823   5.174   0.118  16.050  2.0447  0.4740  3.3029
  470TIP3   OH222824   3.395   5.752   2.227 -0.1122 -0.3933  0.2280
  470TIP3    H122825   3.403   5.684   2.294 -0.5400  2.2387  3.2090
  470TIP3    H222826   3.485   5.768   2.198  0.0950 -1.4902  0.2305
  471TIP3   OH222827   3.612   6.533   5.002 -0.3427 -0.1024 -0.5490
  471TIP3    H122828   3.616   6.461   5.064  1.1004 -0.8054 -1.4173
  471TIP3    H222829   3.560   6.499   4.929  0.8886 -0.5160 -1.2505
  472TIP3   OH222830   0.855   0.333   2.352 -0.2541 -0.2644  0.3251
  472TIP3    H122831   0.774   0.373   2.384 -0.8588 -1.4644  0.3617
  472TIP3    H222832   0.874   0.263   2.414  2.1235  1.4116  1.6487
  473TIP3   OH222833   3.926   2.505   3.007 -0.3835  0.4411  0.0624
  473TIP3    H122834   3.962   2.513   2.918  0.8000 -1.1142  0.3567
  473TIP3    H222835   3.904   2.594   3.032  1.9006  1.3070 -0.7491
  474TIP3   OH222836   1.955   0.174  14.325  0.1160  0.0380 -0.4126
  474TIP3    H122837   1.958   0.129  14.241 -0.6247  0.6934 -0.8004
  474TIP3    H222838   1.902   0.116  14.380  0.1632 -0.1377 -0.5491
  475TIP3   OH222839   3.533   6.088  12.973 -0.4690  0.5423  0.3640
  475TIP3    H122840   3.495   6.001  12.961 -2.5869  1.3615  0.6639
  475TIP3    H222841   3.626   6.077  12.953 -0.5803 -1.8806  0.9073
  476TIP3   OH222842   4.424   4.922   4.579 -0.9907  0.0449  0.2966
  476TIP3    H122843   4.476   4.841   4.573 -1.5839 -0.4281  1.2328
  476TIP3    H222844   4.448   4.972   4.501 -1.3306 -1.4710 -0.8280
  477TIP3   OH222845   0.126   3.683  11.411 -0.1589  0.3038  0.2088
  477TIP3    H122846   0.169   3.669  11.327 -1.5642 -1.3852 -0.2865
  477TIP3    H222847   0.182   3.747  11.456  1.1335  0.5315 -1.6029
  478TIP3   OH222848   0.286   5.704   0.774 -0.5664  0.3278 -0.1323
  478TIP3    H122849   0.372   5.671   0.749  0.4182  1.7966  1.1143
  478TIP3    H222850   0.245   5.632   0.820  0.8683  0.2513  1.1027
  479TIP3   OH222851   2.949   5.068  13.160  0.0103  0.2294  0.0176
  479TIP3    H122852   2.912   5.033  13.241 -0.0610  1.4206  0.5056
  479TIP3    H222853   2.942   4.995  13.098 -0.9312 -0.3471  0.7719
  480TIP3   OH222854   3.059   4.189   3.511  0.4021 -0.0541  0.2381
  480TIP3    H122855   3.135   4.149   3.553  0.3146  0.7202  1.1768
  480TIP3    H222856   3.063   4.281   3.536 -1.1485 -0.0961  0.8049
  481TIP3   OH222857   2.545   2.469   3.002  0.0637 -0.2937  0.0080
  481TIP3    H122858   2.526   2.561   2.989 -0.8196 -0.5726 -0.7961
  481TIP3    H222859   2.485   2.441   3.071 -1.0494 -0.6955 -1.0912
  482TIP3   OH222860   4.072   5.470   2.295  0.2043  0.0075 -0.1584
  482TIP3    H122861   3.990   5.518   2.302  0.7673  0.9256  0.3293
  482TIP3    H222862   4.115   5.507   2.218  0.7728  0.5120  0.3896
  483TIP3   OH222863   2.320   3.603  10.743 -0.5119  0.2121 -0.3899
  483TIP3    H122864   2.252   3.662  10.711  0.1410  2.1682  1.6319
  483TIP3    H222865   2.310   3.601  10.838  1.7361 -0.0654 -0.0863
  484TIP3   OH222866   4.439   2.509   2.520 -0.2476  0.1819 -0.0927
  484TIP3    H122867   4.346   2.516   2.501 -0.2112 -0.2352 -0.4401
  484TIP3    H222868   4.461   2.418   2.500  0.1402  0.1590  0.4123
  485TIP3   OH222869   4.236   2.848   0.997 -0.0105  0.7090  0.0608
  485TIP3    H122870   4.230   2.899   1.078  1.9742  0.6545  0.2913
  485TIP3    H222871   4.230   2.913   0.927 -0.7565  0.8622  0.2524
  486TIP3   OH222872   0.488   0.790   2.003  0.3946  0.1586 -0.5791
  486TIP3    H122873   0.398   0.817   2.026 -0.1111 -0.1522 -2.0814
  486TIP3    H222874   0.543   0.830   2.071 -0.7314  1.5943 -0.4633
  487TIP3   OH222875   6.024   1.616   4.629  0.4261  0.4037 -0.5403
  487TIP3    H122876   6.112   1.645   4.651 -0.2667  2.3434 -0.0851
  487TIP3    H222877   6.023   1.523   4.648  1.9245  0.6610  0.9482
  488TIP3   OH222878   0.115   6.322  11.852 -0.1000  0.6152 -0.1505
  488TIP3    H122879   0.088   6.370  11.773  0.6277  0.9173 -0.2317
  488TIP3    H222880   0.067   6.240  11.849 -0.5953  0.9161 -0.5531
  489TIP3   OH222881   2.372   0.096   1.601 -0.3144  0.0446  0.7917
  489TIP3    H122882   2.411   0.132   1.522  0.1242 -0.0714  0.9528
  489TIP3    H222883   2.285   0.136   1.605 -0.6719 -0.6259 -0.2053
  490TIP3   OH222884   0.213   3.665  11.117 -0.6444 -0.4818 -0.1103
  490TIP3    H122885   0.144   3.713  11.071 -1.4817 -0.2308  1.3489
  490TIP3    H222886   0.295   3.706  11.088 -0.9887 -1.2942 -2.4718
  491TIP3   OH222887   5.004   0.493  16.397  0.1149 -0.7490 -0.3703
  491TIP3    H122888   4.997   0.501  16.302 -0.9321 -1.0851 -0.3269
  491TIP3    H222889   5.088   0.535  16.418  0.2575 -0.4835 -1.4106
  492TIP3   OH222890   4.148   1.783   1.407 -0.2949 -0.1879  0.8455
  492TIP3    H122891   4.082   1.753   1.470  0.7561 -0.1313  2.0144
  492TIP3    H222892   4.168   1.706   1.354  1.4461 -1.3024  2.9909
  493TIP3   OH222893   2.911   5.248   2.051  0.2378 -0.0693  0.5404
  493TIP3    H122894   2.889   5.172   1.997  1.9140  0.8763 -1.6643
  493TIP3    H222895   2.890   5.323   1.996  2.2792  0.9502  1.0508
  494TIP3   OH222896   5.623   0.075   2.961  0.2139 -0.1776  0.8995
  494TIP3    H122897   5.668   0.156   2.938 -1.1110  0.3225  0.0281
  494TIP3    H222898   5.665   0.047   3.043  0.8039  1.2748  1.1165
  495TIP3   OH222899   3.974   1.494  16.524 -0.1252  0.2323 -0.1604
  495TIP3    H122900   3.882   1.488  16.498  0.4552  0.7898 -2.5264
  495TIP3    H222901   3.971   1.528  16.614 -2.2036  1.7290 -0.7321
  496TIP3   OH222902   2.832   4.609  14.386 -0.5176 -0.0677 -0.3969
  496TIP3    H122903   2.867   4.577  14.469 -0.5665 -1.0506 -0.7365
  496TIP3    H222904   2.795   4.694  14.407  1.2903  0.6357  0.1631
  497TIP3   OH222905   4.529   0.479   4.142  0.0067 -0.1371  0.4118
  497TIP3    H122906   4.579   0.554   4.173  1.3597 -1.1955  0.9093
  497TIP3    H222907   4.453   0.517   4.098 -0.1655  1.4769  1.9951
  498TIP3   OH222908   6.568   0.042  16.484 -0.1616  0.4396 -0.1061
  498TIP3    H122909   6.589   0.079  16.570  0.9290 -1.4674  0.5050
  498TIP3    H222910   6.486  -0.006  16.498 -0.3391  0.6867 -0.2995
  499TIP3   OH222911   2.620   5.238  12.481 -0.8976  0.3559 -0.1797
  499TIP3    H122912   2.563   5.281  12.417 -2.1199 -1.4769 -0.4033
  499TIP3    H222913   2.670   5.174  12.430 -0.0411  0.6115  0.3216
  500TIP3   OH222914   1.746   0.392  11.236  0.0638  0.0924  0.3211
  500TIP3    H122915   1.803   0.395  11.313  1.7701  0.3619 -0.8877
  500TIP3    H222916   1.684   0.464  11.249  1.2710  1.0822  0.7664
  501TIP3   OH222917   0.384   4.041   5.005 -0.9278 -0.1482 -0.1678
  501TIP3    H122918   0.361   4.122   4.959 -0.9066  0.2853  0.5668
  501TIP3    H222919   0.403   4.069   5.094  3.2178 -0.2980 -0.7895
  502TIP3   OH222920   6.657   1.278  14.473 -0.6201 -0.6493  0.2221
  502TIP3    H122921   6.721   1.232  14.420 -1.3735 -0.2414 -1.0983
  502TIP3    H222922   6.607   1.330  14.410 -0.7813  0.7889  1.4809
  503TIP3   OH222923   3.469   3.828  16.746 -0.1495 -0.4938  0.2961
  503TIP3    H122924   3.387   3.875  16.732  0.5416  0.2167 -1.6127
  503TIP3    H222925   3.508   3.820  16.659  1.2541 -1.8710  0.9932
  504TIP3   OH222926   3.666   4.645   1.576 -0.0380 -0.1778  0.1920
  504TIP3    H122927   3.573   4.623   1.584  0.0664 -0.6599  0.1010
  504TIP3    H222928   3.705   4.569   1.532  0.7592 -0.8549  1.9745
  505TIP3   OH222929   4.118   0.513   2.139 -0.3312  0.6443  0.1390
  505TIP3    H122930   4.057   0.586   2.128 -0.2813  0.7922  0.7841
  505TIP3    H222931   4.201   0.545   2.103 -0.4313  0.7329 -0.0123
  506TIP3   OH222932   1.018   3.035   0.851 -0.1730  0.1264 -0.2791
  506TIP3    H122933   1.096   3.089   0.838  1.7665 -1.7300  2.4346
  506TIP3    H222934   0.966   3.083   0.916 -0.3537  0.4639 -0.6685
  507TIP3   OH222935   3.204   3.878  16.676  0.1110 -0.2132 -0.3827
  507TIP3    H122936   3.144   3.812  16.641 -2.1019  1.6187 -0.3668
  507TIP3    H222937   3.155   3.918  16.748  1.3551  1.4037 -0.3765
  508TIP3   OH222938   5.975   4.603  12.717 -0.1245 -0.1315 -0.1493
  508TIP3    H122939   5.918   4.527  12.722  0.0607 -0.2330  0.4832
  508TIP3    H222940   5.955   4.642  12.632 -1.1507 -0.1473  0.0740
  509TIP3   OH222941   1.579   5.913  13.180 -0.0268 -0.3711  0.3515
  509TIP3    H122942   1.603   5.821  13.193 -0.9329 -0.7832 -0.6400
  509TIP3    H222943   1.522   5.934  13.254  0.1220 -0.6419  0.5424
  510TIP3   OH222944   1.034   2.067   4.525  0.0914  1.1340 -0.0093
  510TIP3    H122945   0.983   2.106   4.596 -0.0670  2.1694 -0.6724
  510TIP3    H222946   1.074   1.989   4.565 -0.4423  1.3752  1.0521
  511TIP3   OH222947   5.366   1.784  13.927  0.0950 -0.6060 -0.4934
  511TIP3    H122948   5.332   1.710  13.878 -1.1357 -0.8668  0.7008
  511TIP3    H222949   5.289   1.824  13.967  0.8987  0.4636  0.0449
  512TIP3   OH222950   6.589   4.091   3.742  0.1385  0.2233  0.0901
  512TIP3    H122951   6.669   4.131   3.773 -0.1189  0.3357  0.6234
  512TIP3    H222952   6.552   4.154   3.680 -1.2582  1.7695  2.3457
  513TIP3   OH222953   4.109   0.643  14.476 -0.0517  0.2798  0.4141
  513TIP3    H122954   4.095   0.641  14.570 -2.5957  0.3070  0.0901
  513TIP3    H222955   4.154   0.560  14.457  0.7895  0.4244  1.6536
  514TIP3   OH222956   0.885   1.275  14.783 -0.0836  0.1913  0.3635
  514TIP3    H122957   0.810   1.275  14.842 -2.4245  1.1372 -2.3564
  514TIP3    H222958   0.885   1.188  14.743  0.6818 -0.0098  0.7734
  515TIP3   OH222959   3.009   3.978   4.685 -0.3662  0.5293  0.3543
  515TIP3    H122960   3.003   3.884   4.671  1.0704  0.6270 -1.2344
  515TIP3    H222961   2.921   4.011   4.665 -0.6403 -0.3649  0.0447
  516TIP3   OH222962   1.463   4.222  14.070 -0.2176  0.1498 -0.0351
  516TIP3    H122963   1.415   4.150  14.109  3.3773 -2.1989  0.5375
  516TIP3    H222964   1.460   4.206  13.976 -1.3503  0.6462 -0.0990
  517TIP3   OH222965   2.230   5.547   3.469 -0.7258 -0.3331  0.2792
  517TIP3    H122966   2.274   5.632   3.464  1.0800 -1.2647 -0.7671
  517TIP3    H222967   2.277   5.499   3.537  0.3964 -1.5655 -1.2704
  518TIP3   OH222968   5.279   3.415   4.367 -0.0115  0.1665  0.0454
  518TIP3    H122969   5.367   3.390   4.396 -0.1507 -0.9008 -0.3841
  518TIP3    H222970   5.228   3.333   4.373 -1.1292  0.8905  0.8385
  519TIP3   OH222971   0.840   5.147   2.532  0.1636 -0.0287 -0.0400
  519TIP3    H122972   0.830   5.242   2.544  1.5177  0.6024 -3.1003
  519TIP3    H222973   0.910   5.122   2.592 -1.5230  0.4066  2.2868
  520TIP3   OH222974   2.172   3.773  12.953 -0.1089 -0.2617 -0.1016
  520TIP3    H122975   2.150   3.835  12.883  1.4881  0.6605  0.1695
  520TIP3    H222976   2.258   3.801  12.984 -0.6018 -0.8746  1.9864
  521TIP3   OH222977   2.435   4.496   2.783  0.0392 -0.2926  0.3895
  521TIP3    H122978   2.504   4.441   2.821  0.4089  0.5737  1.0040
  521TIP3    H222979   2.355   4.464   2.825  0.0790 -1.1710 -0.1762
  522TIP3   OH222980   0.805   3.257  15.762  0.1354  0.0890  0.0981
  522TIP3    H122981   0.806   3.174  15.714  0.6243  0.2836 -0.2386
  522TIP3    H222982   0.729   3.250  15.821 -0.4538 -0.1763 -0.6679
  523TIP3   OH222983   1.765   3.855   4.169  0.1478 -0.0508  0.0711
  523TIP3    H122984   1.722   3.902   4.240  2.3501 -1.8892  2.8534
  523TIP3    H222985   1.711   3.873   4.092 -2.2914  2.2279  2.1163
  524TIP3   OH222986   5.976   1.112   3.498 -0.2032 -0.1256  0.0873
  524TIP3    H122987   6.051   1.148   3.451 -0.0282 -0.4800  0.0868
  524TIP3    H222988   5.905   1.174   3.482  0.0337  0.1013 -0.0909
  525TIP3   OH222989   1.523   2.062   0.027  0.2868  0.0706 -0.0316
  525TIP3    H122990   1.451   2.119  -0.000 -0.7264 -1.7049 -1.3742
  525TIP3    H222991   1.582   2.118   0.076 -1.0812  2.0331 -0.5190
  526TIP3   OH222992   0.769   6.003   4.519  0.3540 -0.3497  0.7754
  526TIP3    H122993   0.745   5.990   4.611 -0.4838  1.6700  0.8841
  526TIP3    H222994   0.702   6.061   4.485  2.3141  1.4526 -0.2804
  527TIP3   OH222995   4.068   5.184   3.452 -0.3646 -0.2915 -0.5601
  527TIP3    H122996   4.011   5.145   3.385 -1.1296 -1.6473  0.8055
  527TIP3    H222997   4.020   5.262   3.481 -0.3804 -0.1060 -1.0783
  528TIP3   OH222998   4.856   6.607   0.532 -0.2696  0.2655  0.1869
  528TIP3    H122999   4.780   6.637   0.481 -0.2133  0.4678  0.2178
  528TIP3    H223000   4.896   6.688   0.564  0.0237  0.1653  0.0789
  529TIP3   OH223001   2.061   6.004  11.534 -0.3619 -0.3969  0.2532
  529TIP3    H123002   2.124   5.955  11.588  0.3956 -0.4986 -0.6904
  529TIP3    H223003   2.115   6.067  11.486 -1.0865  0.0377 -0.0055
  530TIP3   OH223004   2.615   0.079   3.388 -0.0282  0.2689 -0.4023
  530TIP3    H123005   2.695   0.124   3.364  0.1436  0.6436  0.7980
  530TIP3    H223006   2.583   0.041   3.306  1.2548  0.2852 -0.9362
  531TIP3   OH223007   6.409   2.558   0.634 -0.5361  0.4282  0.3360
  531TIP3    H123008   6.404   2.645   0.675  1.1896  0.4017  0.6625
  531TIP3    H223009   6.328   2.515   0.661 -0.4443  1.1793  1.9513
  532TIP3   OH223010   1.356   0.230  12.353 -0.1217 -0.2297  0.2707
  532TIP3    H123011   1.269   0.265  12.372 -0.1617 -0.1504 -0.0494
  532TIP3    H223012   1.408   0.306  12.330 -0.9482 -0.5802 -3.2883
  533TIP3   OH223013   3.058   4.049  11.696  0.4681 -0.0611 -0.3259
  533TIP3    H123014   2.984   4.102  11.665  1.2372  1.8431  0.8916
  533TIP3    H223015   3.122   4.054  11.626  0.6294  0.8461 -0.1211
  534TIP3   OH223016   6.490   3.516  14.584 -0.1643  0.5858 -0.6479
  534TIP3    H123017   6.479   3.606  14.552  2.1348  1.8432  1.7253
  534TIP3    H223018   6.446   3.515  14.668  1.6979  0.2222  0.3794
  535TIP3   OH223019   6.190   0.732   5.581  0.2119 -0.0493 -0.3937
  535TIP3    H123020   6.178   0.824   5.604 -1.3658 -0.5362  0.9268
  535TIP3    H223021   6.153   0.725   5.493  0.1351  0.5441 -0.4166
  536TIP3   OH223022   0.534   3.503   0.906  0.1279  0.0322  0.5254
  536TIP3    H123023   0.454   3.552   0.884  0.4881  0.8451  0.9650
  536TIP3    H223024   0.593   3.569   0.941  0.7272 -0.6910  0.9071
  537TIP3   OH223025   4.187   0.890  14.533 -0.6642 -0.2014  0.2881
  537TIP3    H123026   4.273   0.883  14.575 -1.3755  0.2587  1.9037
  537TIP3    H223027   4.169   0.801  14.503 -0.0725 -0.5374  0.8753
  538TIP3   OH223028   4.705   4.710   5.707  0.1723  0.0617 -0.3268
  538TIP3    H123029   4.751   4.684   5.786 -0.5965 -1.7764 -0.4479
  538TIP3    H223030   4.620   4.742   5.737  0.3656  0.6077 -0.3371
  539TIP3   OH223031   6.065   3.660  14.627 -0.2154  0.1567  0.6555
  539TIP3    H123032   6.073   3.597  14.698 -2.3368 -1.0200 -0.0395
  539TIP3    H223033   6.009   3.729  14.663  0.8175  0.8981  0.9030
  540TIP3   OH223034   6.534   4.167   1.571 -0.6665  0.0621 -0.3420
  540TIP3    H123035   6.466   4.101   1.559  0.6654 -1.2246 -1.1092
  540TIP3    H223036   6.539   4.212   1.487  0.5192 -0.9526 -0.8408
  541TIP3   OH223037   1.285   3.606  14.784  0.5183  0.5289 -0.2827
  541TIP3    H123038   1.190   3.607  14.776  0.6355  0.3576 -2.5355
  541TIP3    H223039   1.316   3.583  14.696  2.6136 -0.7066  0.7046
  542TIP3   OH223040   0.262   6.708  12.805  0.1405 -0.2043 -0.3325
  542TIP3    H123041   0.191   6.701  12.869  0.2688  1.3512  0.0048
  542TIP3    H223042   0.272   6.619  12.771  1.4340 -1.6040  3.2708
  543TIP3   OH223043   3.530   4.707  13.665 -0.5756  0.8329 -0.5827
  543TIP3    H123044   3.606   4.750  13.625  0.9476  1.0927  2.2441
  543TIP3    H223045   3.566   4.626  13.702 -1.6388  0.9845  0.8474
  544TIP3   OH223046   1.497   6.211  11.890 -0.8218 -0.4485 -0.5274
  544TIP3    H123047   1.499   6.256  11.805 -0.0025 -0.9373 -0.7828
  544TIP3    H223048   1.410   6.230  11.925 -0.5608  1.2379 -0.6765
  545TIP3   OH223049   3.377   4.357  14.882  0.2042  0.2004 -0.3017
  545TIP3    H123050   3.388   4.368  14.976  0.4890  1.9379 -0.5015
  545TIP3    H223051   3.315   4.285  14.873 -0.9103  0.9196  1.2370
  546TIP3   OH223052   6.367   4.909   0.123  0.0639 -0.4414  0.4402
  546TIP3    H123053   6.407   4.972   0.183 -1.4217 -0.6439  1.7019
  546TIP3    H223054   6.323   4.847   0.180 -0.5244 -1.2424 -0.8552
  547TIP3   OH223055   5.780   3.187   1.175 -0.3252 -0.1279 -0.4845
  547TIP3    H123056   5.853   3.139   1.136  0.9238  0.3257  1.1643
  547TIP3    H223057   5.813   3.276   1.186 -0.5683 -0.2267  1.5662
  548TIP3   OH223058   5.851   6.184   5.310  0.0880  0.2962  0.4439
  548TIP3    H123059   5.842   6.230   5.394  0.8265  1.8036 -0.2472
  548TIP3    H223060   5.796   6.234   5.250  1.3362  0.6471 -0.4598
  549TIP3   OH223061   6.663   6.036   6.703 -0.0307 -0.2077 -0.0258
  549TIP3    H123062   6.721   5.960   6.701  1.2062  0.7113 -0.2330
  549TIP3    H223063   6.657   6.064   6.612 -0.8641 -0.3227 -0.0128
  550TIP3   OH223064   3.361   3.460   1.479  0.0206  0.0085 -0.2789
  550TIP3    H123065   3.313   3.400   1.422 -0.5960  0.4001 -0.1782
  550TIP3    H223066   3.296   3.523   1.508  0.0220 -0.9285  1.9144
  551TIP3   OH223067   2.436   1.785  17.161 -0.4182 -0.1971 -0.0513
  551TIP3    H123068   2.394   1.735  17.231 -1.1541 -0.5949 -0.7633
  551TIP3    H223069   2.526   1.799  17.192 -0.5404 -0.9516  0.6711
  552TIP3   OH223070   3.055   6.581   2.838 -0.4272  0.7447 -0.1443
  552TIP3    H123071   3.128   6.524   2.862  0.2389  0.9094 -1.6221
  552TIP3    H223072   2.985   6.558   2.899  1.3136  1.6710  2.3458
  553TIP3   OH223073   5.074   0.202   1.040  0.0436 -0.1403  0.3416
  553TIP3    H123074   5.055   0.285   1.084  1.3784 -0.2803  1.2539
  553TIP3    H223075   5.023   0.137   1.090  0.6876 -0.1429  1.0259
  554TIP3   OH223076   2.209   0.086  13.007  0.9327  0.7014 -1.3237
  554TIP3    H123077   2.131   0.049  13.049  2.6686 -1.4073  0.2847
  554TIP3    H223078   2.236   0.157  13.065  2.1628 -0.8943  0.1672
  555TIP3   OH223079   6.792   3.016   2.017  0.8774  0.7969  0.3954
  555TIP3    H123080   6.834   2.942   2.062 -1.8272  0.2807  2.3236
  555TIP3    H223081   6.744   2.975   1.944  0.5775  0.8283  0.5718
  556TIP3   OH223082   3.281   4.575  11.902  0.1788  0.5538  0.1848
  556TIP3    H123083   3.244   4.652  11.944  1.4780  0.2440  1.9848
  556TIP3    H223084   3.372   4.598  11.885  0.3983 -0.3400  0.1087
  557TIP3   OH223085   1.031   1.424   0.752  0.6189  0.3332  0.5973
  557TIP3    H123086   1.001   1.508   0.718  0.7263  0.2367  0.2681
  557TIP3    H223087   1.101   1.446   0.813  0.5938  0.4875  0.5702
  558TIP3   OH223088   3.796   6.556   5.269 -0.2142 -0.8191  0.0943
  558TIP3    H123089   3.741   6.481   5.245  0.2386 -1.4866  1.0836
  558TIP3    H223090   3.836   6.583   5.187 -0.6688 -1.4270 -0.3415
  559TIP3   OH223091   3.921   6.784   0.285  0.3668  0.3936  0.0718
  559TIP3    H123092   3.837   6.829   0.276  0.9774  1.3825 -0.9457
  559TIP3    H223093   3.912   6.733   0.365 -1.1162  0.6651  0.1152
  560TIP3   OH223094   0.656   5.649  12.262 -0.6164  0.0814  0.1649
  560TIP3    H123095   0.709   5.587  12.212  0.5250  0.0254  1.3958
  560TIP3    H223096   0.566   5.622  12.246 -0.2804 -0.0925 -1.6234
  561TIP3   OH223097   0.108   6.781   0.400 -0.7519  0.0184  0.1646
  561TIP3    H123098   0.053   6.823   0.334 -0.9650 -1.4112 -0.6194
  561TIP3    H223099   0.073   6.692   0.406  0.7024 -0.5460  0.5672
  562TIP3   OH223100   1.054   5.261  12.058 -0.4037 -0.1453 -0.0798
  562TIP3    H123101   1.061   5.173  12.020  0.5520 -1.6466  3.2012
  562TIP3    H223102   1.144   5.292  12.062 -0.4979  0.0519  0.6818
  563TIP3   OH223103   2.267   2.850  14.901  0.2275 -0.4721 -0.6343
  563TIP3    H123104   2.231   2.926  14.857  1.3080 -0.3935 -1.4259
  563TIP3    H223105   2.332   2.815  14.840 -1.0021 -2.7046 -0.7841
  564TIP3   OH223106   6.557   5.589  11.162 -0.1679 -0.1217 -0.3163
  564TIP3    H123107   6.610   5.628  11.093 -2.1746  0.7661 -1.4547
  564TIP3    H223108   6.579   5.639  11.241 -0.4259  1.2778 -1.0990
  565TIP3   OH223109   4.739   6.600   0.264 -0.2111  0.6085 -0.0493
  565TIP3    H123110   4.821   6.612   0.216 -0.8585  0.1400 -1.3343
  565TIP3    H223111   4.676   6.654   0.215 -1.1720 -0.8761 -0.5175
  566TIP3   OH223112   3.041   5.272  13.559  0.3897  0.8415 -0.0612
  566TIP3    H123113   3.080   5.308  13.479 -1.0821  1.1868 -0.6454
  566TIP3    H223114   3.072   5.181  13.562 -0.0134  0.6458 -1.3517
  567TIP3   OH223115   3.653   5.574   3.636 -0.0750  0.0744  0.1651
  567TIP3    H123116   3.727   5.622   3.600 -0.8155  1.9770  1.0583
  567TIP3    H223117   3.579   5.634   3.628 -0.7448 -0.3242  2.6646
  568TIP3   OH223118   1.194   3.321  14.820  0.5087 -0.2453  0.8548
  568TIP3    H123119   1.287   3.301  14.827  0.1222 -1.9694  1.7169
  568TIP3    H223120   1.183   3.355  14.731  2.0604  0.6727  0.9863
  569TIP3   OH223121   2.272   6.014  11.836  0.3597  0.9479 -0.3832
  569TIP3    H123122   2.207   5.947  11.817  0.7532  0.3851  0.1935
  569TIP3    H223123   2.355   5.966  11.841  0.4038  1.1370  1.9060
  570TIP3   OH223124   6.206   1.783   6.007 -0.1118 -0.5896  0.2679
  570TIP3    H123125   6.275   1.775   6.073  1.4876 -1.4765 -1.4098
  570TIP3    H223126   6.230   1.861   5.957  0.9806 -2.0463 -1.6450
  571TIP3   OH223127   6.603   0.344   6.061  0.1515  0.1802  0.3706
  571TIP3    H123128   6.697   0.362   6.059  0.2516 -0.3430  0.0895
  571TIP3    H223129   6.562   0.429   6.077  0.7226  0.2529  1.5786
  572TIP3   OH223130   6.258   6.724  15.578  0.0399 -0.5459  0.2116
  572TIP3    H123131   6.214   6.760  15.655  0.2624 -1.8995  0.9956
  572TIP3    H223132   6.192   6.670  15.535 -0.2958  0.7280 -0.9706
  573TIP3   OH223133   5.421   4.750   3.498  0.9620  0.0550  0.0862
  573TIP3    H123134   5.386   4.666   3.469  2.2869 -0.5272  0.1380
  573TIP3    H223135   5.365   4.815   3.455 -0.6467 -0.8295  0.7502
  574TIP3   OH223136   3.156   2.112   4.398  0.3198 -0.3978 -0.5753
  574TIP3    H123137   3.205   2.191   4.373  0.0700  0.3730  1.1909
  574TIP3    H223138   3.215   2.040   4.378  1.2429  0.3507 -0.6353
  575TIP3   OH223139   4.545   2.584  13.390  0.3703  0.6636  0.2115
  575TIP3    H123140   4.513   2.500  13.422 -0.6942  1.2140  0.6715
  575TIP3    H223141   4.573   2.630  13.469  2.0269  0.3247 -0.1551
  576TIP3   OH223142   0.582   0.272  16.918 -0.0849 -0.3552 -0.1548
  576TIP3    H123143   0.575   0.299  17.010 -0.3908  1.8510 -0.7650
  576TIP3    H223144   0.629   0.189  16.921  0.4073 -0.0645  1.9704
  577TIP3   OH223145   1.775   3.315  13.579  0.2386 -0.0794 -0.4419
  577TIP3    H123146   1.859   3.326  13.623 -0.2236  0.4657  0.3302
  577TIP3    H223147   1.735   3.402  13.580 -0.5866 -0.4442 -0.2675
  578TIP3   OH223148   5.681   1.165   6.093 -0.2593  0.0188  0.0107
  578TIP3    H123149   5.624   1.238   6.070 -0.8858 -1.0208 -1.9681
  578TIP3    H223150   5.747   1.203   6.151 -1.1500  1.9045 -0.1397
  579TIP3   OH223151   2.448   5.947  13.325  0.7595  0.3383  0.6562
  579TIP3    H123152   2.390   6.022  13.334  0.7700  0.1955  2.1999
  579TIP3    H223153   2.528   5.973  13.370  0.5994 -0.7483  1.6030
  580TIP3   OH223154   2.815   4.255  15.540  0.8571 -0.1125 -0.0054
  580TIP3    H123155   2.837   4.320  15.473  2.4585  1.4206  1.8607
  580TIP3    H223156   2.723   4.270  15.560  1.2731  1.8603  0.5993
  581TIP3   OH223157   1.561   3.655  11.437 -0.1731 -0.3164 -0.0790
  581TIP3    H123158   1.603   3.569  11.446 -0.6905 -0.7989 -1.9750
  581TIP3    H223159   1.467   3.637  11.445 -0.2127  0.4479  1.8577
  582TIP3   OH223160   1.666   2.514  15.589  0.3846 -0.4944 -0.2605
  582TIP3    H123161   1.702   2.438  15.543  1.0182 -0.6031  0.3943
  582TIP3    H223162   1.672   2.490  15.682  0.1444  0.1629 -0.0728
  583TIP3   OH223163   0.376   2.158  16.736  0.0817 -0.4734  0.7182
  583TIP3    H123164   0.298   2.107  16.714 -1.4266  1.2908  1.5818
  583TIP3    H223165   0.345   2.249  16.736  2.1691  0.2934  1.0777
  584TIP3   OH223166   2.814   5.938  16.894  0.1588  0.2465 -0.0341
  584TIP3    H123167   2.883   5.893  16.942  0.2461  0.3404 -0.0702
  584TIP3    H223168   2.747   5.871  16.880  0.0926  0.2419  0.2925
  585TIP3   OH223169   3.643   6.028   3.944  0.0571  0.3514  0.6276
  585TIP3    H123170   3.580   6.001   3.878 -0.1010  1.6268  0.2193
  585TIP3    H223171   3.601   6.102   3.988  0.2405 -0.3499  2.0332
  586TIP3   OH223172   2.033   4.734  16.148 -0.3039  0.1690 -0.3513
  586TIP3    H123173   2.043   4.825  16.120 -0.9439  0.5923  0.7420
  586TIP3    H223174   2.003   4.688  16.069  0.9249  0.7055 -1.1617
  587TIP3   OH223175   0.380   2.586   3.899  0.2953 -0.1717  0.1465
  587TIP3    H123176   0.310   2.651   3.904  1.1624  0.7082  1.0432
  587TIP3    H223177   0.370   2.535   3.980  0.9422  0.2174  0.4716
  588TIP3   OH223178   2.002   4.877  13.693 -0.7386  0.2535  0.2543
  588TIP3    H123179   2.084   4.922  13.716 -0.5678 -0.0866  0.3132
  588TIP3    H223180   1.933   4.941  13.713 -0.5136  0.3981  0.5763
  589TIP3   OH223181   4.986   4.928  15.101  0.5087 -0.4231 -0.2646
  589TIP3    H123182   5.001   4.862  15.033  1.4282  0.2735 -0.7565
  589TIP3    H223183   4.920   4.986  15.063 -0.6856 -1.3153  0.3717
  590TIP3   OH223184   2.874   0.338  12.035  0.0136 -0.1720 -0.4061
  590TIP3    H123185   2.809   0.406  12.048 -0.6274 -1.2049  2.4656
  590TIP3    H223186   2.944   0.359  12.097  1.1064 -0.6407 -1.4406
  591TIP3   OH223187   5.050   0.359  16.975  0.0359  0.5206 -0.1481
  591TIP3    H123188   5.072   0.380  16.884 -0.9160  1.4687 -0.1769
  591TIP3    H223189   5.083   0.433  17.025  0.7252 -0.0885  0.3215
  592TIP3   OH223190   0.491   3.022  14.368  0.2346 -0.2665  0.2120
  592TIP3    H123191   0.397   3.039  14.379  0.3408 -0.3561  1.3065
  592TIP3    H223192   0.533   3.074  14.435  0.9847 -0.1606 -0.3323
  593TIP3   OH223193   4.065   0.865  10.657  0.2449  0.4300  0.4589
  593TIP3    H123194   4.034   0.945  10.615 -1.3264 -0.2426  0.2563
  593TIP3    H223195   4.016   0.795  10.614  0.6239 -0.5263  1.5210
  594TIP3   OH223196   5.409   5.970   6.030 -0.6120 -0.6138 -0.4183
  594TIP3    H123197   5.353   5.898   6.058 -1.7309 -0.2232 -1.5580
  594TIP3    H223198   5.356   6.049   6.046  1.2193  0.1809  2.4408
  595TIP3   OH223199   0.441   3.490  14.769  0.0686  0.4134  0.1163
  595TIP3    H123200   0.470   3.580  14.785  0.1079  0.1773  1.5037
  595TIP3    H223201   0.485   3.438  14.837 -0.1705 -0.6171 -0.4942
  596TIP3   OH223202   2.174   0.672   2.708  0.1739  0.4117  0.2065
  596TIP3    H123203   2.262   0.636   2.722 -0.0940 -0.7516 -0.8683
  596TIP3    H223204   2.156   0.723   2.787  0.2829 -2.4676  2.2731
  597TIP3   OH223205   2.385   3.614  14.792 -0.0879 -0.2856 -0.5489
  597TIP3    H123206   2.296   3.582  14.778  0.0299 -0.4951 -0.8158
  597TIP3    H223207   2.441   3.538  14.777  0.2189  0.1347 -1.6029
  598TIP3   OH223208   1.602   1.453  12.820 -0.7734  0.1958 -0.5096
  598TIP3    H123209   1.578   1.545  12.812 -0.6230  0.2073 -0.8062
  598TIP3    H223210   1.603   1.420  12.730 -0.3886  0.0139 -0.4410
  599TIP3   OH223211   0.273   3.358   3.537  0.2324 -0.0206 -0.3748
  599TIP3    H123212   0.224   3.423   3.486  0.5500  1.1691  0.7771
  599TIP3    H223213   0.349   3.406   3.570  0.7386 -1.1194  0.0972
  600TIP3   OH223214   3.153   0.051  12.041  0.6556 -0.0129  0.2587
  600TIP3    H123215   3.100   0.097  11.976 -2.0075 -0.4242  1.9994
  600TIP3    H223216   3.243   0.070  12.015 -0.2428  0.3386 -3.1522
  601TIP3   OH223217   6.253   2.221  12.840 -0.6629 -0.4440 -0.0077
  601TIP3    H123218   6.243   2.159  12.768  0.5218 -0.5313 -0.1235
  601TIP3    H223219   6.320   2.181  12.897  1.1239  1.3088 -0.7718
  602TIP3   OH223220   6.265   0.355  13.161  0.4212 -0.2573 -0.3811
  602TIP3    H123221   6.190   0.398  13.201  0.6226 -1.3468  1.2385
  602TIP3    H223222   6.237   0.337  13.071 -1.1875 -0.4579  0.1352
  603TIP3   OH223223   0.268   6.149  16.095 -1.3077 -0.0310 -0.2954
  603TIP3    H123224   0.283   6.055  16.089 -0.4373  0.0874 -0.1096
  603TIP3    H223225   0.322   6.177  16.170 -0.8960  0.7384 -0.8651
  604TIP3   OH223226   1.315   3.630  10.602  0.8751 -0.2729  0.4812
  604TIP3    H123227   1.309   3.696  10.533  0.5503 -0.6847  0.1099
  604TIP3    H223228   1.278   3.673  10.679  2.3207  0.6041  0.7221
  605TIP3   OH223229   6.711   4.600   3.242  0.4326 -0.2429  0.3628
  605TIP3    H123230   6.790   4.631   3.197 -0.2681 -0.3940 -1.0212
  605TIP3    H223231   6.661   4.554   3.175 -0.8963 -0.0658  1.1854
  606TIP3   OH223232   4.875   5.825   0.982  0.1866  0.2015  0.0417
  606TIP3    H123233   4.959   5.825   1.028  1.1632 -0.5768 -1.6459
  606TIP3    H223234   4.877   5.746   0.928 -2.4873 -0.9088  1.3715
  607TIP3   OH223235   4.392   2.757   6.694 -0.4131  0.1777  0.2183
  607TIP3    H123236   4.485   2.748   6.672 -0.3801 -0.8625  0.7330
  607TIP3    H223237   4.374   2.683   6.751 -1.0098  1.6325  2.0164
  608TIP3   OH223238   5.562   1.263   0.172  0.1557 -0.0556 -0.0333
  608TIP3    H123239   5.639   1.244   0.225 -1.0629 -0.5169  1.6772
  608TIP3    H223240   5.572   1.355   0.147  0.5485  0.3503  1.4763
  609TIP3   OH223241   3.660   0.587   0.406 -0.4918  0.1227  0.1962
  609TIP3    H123242   3.718   0.635   0.465 -2.1963  0.9189  1.3262
  609TIP3    H223243   3.611   0.655   0.360 -2.6287 -0.4423  1.4894
  610TIP3   OH223244   3.831   6.082  12.908 -0.0214  0.0713 -0.8288
  610TIP3    H123245   3.835   6.158  12.966 -2.8809 -1.4356  1.6568
  610TIP3    H223246   3.907   6.029  12.933  0.1136  0.5553 -0.1885
  611TIP3   OH223247   0.900   4.460  12.346  0.0530  0.2748 -0.1025
  611TIP3    H123248   0.926   4.368  12.346 -0.9166 -0.0203  1.0061
  611TIP3    H223249   0.929   4.493  12.431 -0.6214  0.6778 -0.0241
  612TIP3   OH223250   2.182   2.392  11.085 -0.0373 -0.5734 -0.7342
  612TIP3    H123251   2.176   2.307  11.041 -0.7001 -0.5867 -0.6366
  612TIP3    H223252   2.238   2.376  11.161 -1.3933 -1.3310  0.1669
  613TIP3   OH223253   3.205   5.344  15.736 -0.3223  0.3783  0.5585
  613TIP3    H123254   3.179   5.408  15.670  1.2592  0.5923  0.1188
  613TIP3    H223255   3.205   5.393  15.818  0.6690  0.8992  0.2550
  614TIP3   OH223256   6.733   0.488   2.993  0.0671  0.0785  0.5316
  614TIP3    H123257   6.664   0.506   2.930  1.0374  0.6186 -0.4054
  614TIP3    H223258   6.707   0.535   3.072  0.0364  1.4150 -0.2495
  615TIP3   OH223259   5.352   3.418  11.576  0.0741  0.6181 -0.4397
  615TIP3    H123260   5.302   3.352  11.527  1.2853  1.0165 -2.3182
  615TIP3    H223261   5.292   3.492  11.584 -0.5082  0.1475 -0.3539
  616TIP3   OH223262   5.290   1.342  13.966  0.3731  0.0188 -0.0327
  616TIP3    H123263   5.301   1.420  13.912  0.2795 -0.5162 -0.8450
  616TIP3    H223264   5.311   1.370  14.055  1.0278  0.7866 -0.4281
  617TIP3   OH223265   2.810   1.050  12.342  0.4453  0.2856  0.1191
  617TIP3    H123266   2.880   1.051  12.276  1.9188  1.0131  1.6238
  617TIP3    H223267   2.733   1.019  12.294  1.2947  1.3599 -2.0931
  618TIP3   OH223268   3.526   4.032   1.291 -0.0376  0.2817 -0.0795
  618TIP3    H123269   3.590   3.971   1.256 -0.3975 -0.1365 -0.0140
  618TIP3    H223270   3.470   4.055   1.217 -0.0907  0.2988 -0.0342
  619TIP3   OH223271   5.309   6.123  16.669  0.0587 -0.8091  0.0228
  619TIP3    H123272   5.269   6.112  16.583 -0.5981  1.3917 -0.0192
  619TIP3    H223273   5.286   6.212  16.695 -0.3655 -1.6226  2.8097
  620TIP3   OH223274   3.769   4.481  13.288  0.1041  0.2464  0.6360
  620TIP3    H123275   3.780   4.576  13.290 -1.4550  0.4740  0.0514
  620TIP3    H223276   3.750   4.461  13.196  2.3023 -0.9112  0.3638
  621TIP3   OH223277   5.772   1.339   2.609  0.1479 -0.0939  0.9211
  621TIP3    H123278   5.799   1.411   2.665  1.5011  1.0861 -1.1223
  621TIP3    H223279   5.800   1.260   2.655 -1.0669  0.6376  3.0423
  622TIP3   OH223280   5.389   6.653   3.541  0.0189 -0.1723 -0.0987
  622TIP3    H123281   5.463   6.687   3.591 -0.0197  0.8967 -0.7566
  622TIP3    H223282   5.414   6.563   3.519  0.5019 -0.2931  0.8954
  623TIP3   OH223283   3.591   0.200   0.846  0.5824  1.1586 -0.1141
  623TIP3    H123284   3.634   0.233   0.925 -0.6558  0.8891  0.7108
  623TIP3    H223285   3.563   0.112   0.870 -0.1959  1.2356 -0.7110
  624TIP3   OH223286   5.826   2.192  14.417 -0.0350 -0.1634 -0.3186
  624TIP3    H123287   5.863   2.103  14.413 -1.6004 -0.8287 -0.7000
  624TIP3    H223288   5.736   2.182  14.387 -0.8191  1.2525  1.3929
  625TIP3   OH223289   3.265   2.952   2.626  0.2862 -0.5929  0.3275
  625TIP3    H123290   3.231   3.038   2.598 -1.2687 -1.1306  0.4529
  625TIP3    H223291   3.346   2.972   2.673  0.2052  0.7658 -0.0739
  626TIP3   OH223292   6.442   6.262   4.893  0.3884 -0.6292  0.6169
  626TIP3    H123293   6.439   6.261   4.989  1.0878  1.3269  0.7150
  626TIP3    H223294   6.534   6.278   4.873  0.0629  0.0997 -0.3518
  627TIP3   OH223295   0.469   6.313  16.245 -0.8546  0.0508  0.1272
  627TIP3    H123296   0.550   6.342  16.286 -1.2946  0.5993  0.6297
  627TIP3    H223297   0.453   6.376  16.175  1.1443 -2.1963 -2.5819
  628TIP3   OH223298   3.685   3.956   0.874  0.3147  0.3176  0.1113
  628TIP3    H123299   3.759   3.899   0.857 -0.1125 -1.0101  2.3142
  628TIP3    H223300   3.718   4.021   0.935 -0.2521 -0.1607  0.9446
  629TIP3   OH223301   5.754   4.817   5.751 -0.4909 -0.2957  0.4209
  629TIP3    H123302   5.775   4.908   5.728  2.2036 -0.4193  1.9438
  629TIP3    H223303   5.732   4.820   5.844 -1.6283 -1.0710  0.1938
  630TIP3   OH223304   6.728   3.757  15.198  0.2255  0.6313 -0.1970
  630TIP3    H123305   6.667   3.690  15.166 -0.5585  0.7592  0.9433
  630TIP3    H223306   6.676   3.808  15.261  1.0384  1.8168 -0.4455
  631TIP3   OH223307   4.372   2.347  16.402 -0.0452 -0.0211 -0.0303
  631TIP3    H123308   4.463   2.372  16.418  0.2308 -1.8852  1.6532
  631TIP3    H223309   4.376   2.254  16.381 -1.4669  0.1742 -1.3882
  632TIP3   OH223310   3.237   5.657  10.941  0.1671  0.3814 -0.1963
  632TIP3    H123311   3.152   5.614  10.934 -0.5983  1.8167 -0.0482
  632TIP3    H223312   3.285   5.606  11.006 -0.8220 -0.0552  0.1989
  633TIP3   OH223313   5.914   0.043  15.129 -0.0199 -0.5105 -0.3095
  633TIP3    H123314   5.826   0.008  15.116 -0.0728 -0.3532 -0.3788
  633TIP3    H223315   5.960  -0.025  15.177 -0.4379 -0.2444  0.4930
  634TIP3   OH223316   2.960   3.134   2.331 -0.0071  0.1630 -0.0002
  634TIP3    H123317   2.900   3.125   2.405 -0.4611  1.3762 -0.1851
  634TIP3    H223318   3.046   3.148   2.371  0.4203 -2.7015  0.2752
  635TIP3   OH223319   5.904   0.318   1.414 -0.2469  0.5609  0.0629
  635TIP3    H123320   5.911   0.287   1.505 -0.7734  1.8807  0.5722
  635TIP3    H223321   5.987   0.292   1.374  0.1291  0.2458  1.0030
  636TIP3   OH223322   6.478   5.932   4.316 -0.9821  0.5232 -0.6559
  636TIP3    H123323   6.424   5.984   4.257  0.2617  0.0782 -2.2787
  636TIP3    H223324   6.563   5.976   4.316 -0.6767 -0.0514  0.0163
  637TIP3   OH223325   3.400   2.035   1.064 -0.2773 -0.6043 -0.7202
  637TIP3    H123326   3.470   1.979   1.031  0.2859  0.2446 -1.0278
  637TIP3    H223327   3.374   2.088   0.988  0.7779  1.1266  0.0491
  638TIP3   OH223328   4.044   2.183  13.502  0.2200 -0.1737 -0.1476
  638TIP3    H123329   4.121   2.154  13.551  1.4149  0.3581 -1.6321
  638TIP3    H223330   4.067   2.270  13.469 -2.1137  1.2517  1.6576
  639TIP3   OH223331   2.559   2.504  13.987  0.3453 -0.6765  0.3664
  639TIP3    H123332   2.652   2.486  13.975  0.3229 -0.6193  0.1105
  639TIP3    H223333   2.556   2.580  14.045  0.4854  0.5455 -1.1834
  640TIP3   OH223334   4.998   0.860  11.854  0.2496 -0.6260 -0.5245
  640TIP3    H123335   5.014   0.903  11.770 -2.6655  0.2335 -0.7265
  640TIP3    H223336   4.969   0.772  11.831  0.4132 -0.7263 -0.3529
  641TIP3   OH223337   4.581   3.937  11.482 -0.3136 -0.0932 -0.0786
  641TIP3    H123338   4.518   3.876  11.520 -0.7136 -0.4045 -1.2047
  641TIP3    H223339   4.618   3.983  11.557  0.2005 -1.8989  0.8116
  642TIP3   OH223340   4.415   2.757  11.387  0.7238 -0.4431 -0.0879
  642TIP3    H123341   4.480   2.741  11.455  1.0911 -0.9046 -0.5442
  642TIP3    H223342   4.414   2.677  11.335 -0.8640 -0.8265  0.4441
  643TIP3   OH223343   5.862   3.477  15.489  0.5114  0.3995  0.2621
  643TIP3    H123344   5.790   3.526  15.449  0.4800 -0.4498 -0.7848
  643TIP3    H223345   5.934   3.487  15.426  1.6298  1.9929  1.7145
  644TIP3   OH223346   6.190   0.376  12.906 -0.4290 -0.0304  0.2200
  644TIP3    H123347   6.230   0.370  12.819 -0.8115  1.6765 -0.0978
  644TIP3    H223348   6.096   0.374  12.889 -0.5139 -1.0892  0.7292
  645TIP3   OH223349   5.464   1.008   0.283  0.5134 -0.2775 -0.1265
  645TIP3    H123350   5.517   0.949   0.229 -0.3042 -0.7078 -0.4647
  645TIP3    H223351   5.474   1.093   0.242  1.5226 -0.1950  0.2361
  646TIP3   OH223352   3.350   2.604  12.458  0.6531 -0.2363  0.1653
  646TIP3    H123353   3.328   2.515  12.429  1.0987 -0.4512  0.4773
  646TIP3    H223354   3.444   2.602  12.472  0.2212 -0.8465  3.9431
  647TIP3   OH223355   4.517   0.494  12.247  0.3842  0.6683  0.2432
  647TIP3    H123356   4.432   0.537  12.237  0.8436  1.6611  0.4244
  647TIP3    H223357   4.516   0.457  12.335  0.5651  1.6965  0.6926
  648TIP3   OH223358   5.768   0.025   4.128  0.1491 -0.1233 -0.0692
  648TIP3    H123359   5.712  -0.027   4.070  0.9166 -0.4990 -0.4912
  648TIP3    H223360   5.707   0.073   4.184 -0.7348  1.7817 -2.4765
  649TIP3   OH223361   4.477   2.246   2.456  0.4197 -0.1771 -0.0294
  649TIP3    H123362   4.535   2.247   2.379  2.5614  1.3534  1.4953
  649TIP3    H223363   4.474   2.154   2.482  0.2038 -0.6198 -1.5338
  650TIP3   OH223364   4.155   6.130  11.657  0.4809  0.1790 -0.3367
  650TIP3    H123365   4.236   6.148  11.611 -0.0079  0.9375 -0.9108
  650TIP3    H223366   4.174   6.053  11.710  0.9777 -0.8930 -2.0048
  651TIP3   OH223367   6.437   4.278  16.571 -0.3513 -0.6499 -0.0734
  651TIP3    H123368   6.409   4.284  16.479  0.7083 -0.7761 -0.4171
  651TIP3    H223369   6.454   4.369  16.596 -1.9780 -0.4588  0.4515
  652TIP3   OH223370   3.420   4.347  12.517  0.1561 -0.2829  0.2492
  652TIP3    H123371   3.420   4.403  12.439 -2.0107 -1.1604 -0.4406
  652TIP3    H223372   3.493   4.381  12.570 -0.1793  2.2608 -0.7625
  653TIP3   OH223373   5.348   5.128  13.804  0.0613 -0.2002 -0.4624
  653TIP3    H123374   5.433   5.165  13.780  0.0451  1.3034  1.6222
  653TIP3    H223375   5.318   5.085  13.723  2.4036 -0.0868 -1.4835
  654TIP3   OH223376   4.574   2.442   4.510  0.2278  0.1940 -0.0322
  654TIP3    H123377   4.656   2.482   4.540  0.7596 -0.5375 -0.4896
  654TIP3    H223378   4.588   2.348   4.519 -0.8260  0.0677  0.5388
  655TIP3   OH223379   6.376   0.116  15.400  0.0104  0.2533 -0.4316
  655TIP3    H123380   6.450   0.065  15.367 -0.9744 -1.1680 -0.5433
  655TIP3    H223381   6.343   0.065  15.474 -0.6412  1.0589 -0.1511
  656TIP3   OH223382   4.403   1.392   1.967 -0.2923  0.1675 -0.2766
  656TIP3    H123383   4.329   1.339   1.997 -0.8614  1.0776 -0.0198
  656TIP3    H223384   4.414   1.459   2.035  1.8736 -0.9418  0.5498
  657TIP3   OH223385   5.500   2.057  11.567  0.2891  0.2565 -0.6036
  657TIP3    H123386   5.553   2.135  11.552  0.6695 -0.2060 -1.6961
  657TIP3    H223387   5.462   2.036  11.482  1.6409 -1.8158 -0.7695
  658TIP3   OH223388   3.509   0.057  15.653 -0.2248  0.0845  0.0484
  658TIP3    H123389   3.505  -0.015  15.716  0.4211  0.7421  0.8610
  658TIP3    H223390   3.448   0.031  15.583 -1.3735 -0.4175  1.1909
  659TIP3   OH223391   6.763   6.022   4.471  0.0891  0.6511 -0.4457
  659TIP3    H123392   6.810   6.059   4.395 -0.7081  1.2196 -0.6708
  659TIP3    H223393   6.823   6.036   4.544  1.8943 -1.9777 -1.2858
  660TIP3   OH223394   4.094   3.888   4.767 -1.0039  0.0347  0.2447
  660TIP3    H123395   4.054   3.974   4.756 -3.2853 -1.1406 -1.7353
  660TIP3    H223396   4.143   3.872   4.687  0.2887 -0.1360  1.0325
  661TIP3   OH223397   6.493   5.079   1.399 -0.6203  0.0710  0.1026
  661TIP3    H123398   6.544   5.111   1.474 -1.0109  0.8962  0.0252
  661TIP3    H223399   6.418   5.034   1.439 -0.8532  0.5524  0.2130
  662TIP3   OH223400   2.417   6.691  12.971 -0.5676 -0.5332 -0.2410
  662TIP3    H123401   2.448   6.656  13.055 -1.8992  0.8949  0.8930
  662TIP3    H223402   2.377   6.775  12.993 -0.1983  0.2809 -2.4431
  663TIP3   OH223403   4.629   2.794   2.905 -0.2950 -0.2222 -0.2265
  663TIP3    H123404   4.715   2.819   2.871 -0.2680  1.7726  1.1758
  663TIP3    H223405   4.615   2.705   2.871  1.5778  0.0289 -1.8198
  664TIP3   OH223406   5.069   5.108  11.905 -0.6388 -0.2074 -0.0623
  664TIP3    H123407   5.133   5.054  11.952 -1.5795 -1.1916  0.1304
  664TIP3    H223408   5.106   5.116  11.817  0.8484  1.1682  0.6451
  665TIP3   OH223409   0.802   4.208  11.068  0.2906 -0.1274  0.8090
  665TIP3    H123410   0.855   4.129  11.055  0.3647  0.1403 -0.7548
  665TIP3    H223411   0.860   4.280  11.044 -0.8409  0.1462 -1.3357
  666TIP3   OH223412   5.830   0.933   1.161  0.1656  1.1690 -0.4159
  666TIP3    H123413   5.878   0.979   1.092 -0.3809  1.2831 -0.7265
  666TIP3    H223414   5.865   0.969   1.242  1.2046  0.6424 -0.6113
  667TIP3   OH223415   1.014   0.159  12.167 -0.0026 -0.1277  0.0017
  667TIP3    H123416   0.952   0.201  12.227 -0.3534  0.0766 -0.4928
  667TIP3    H223417   1.090   0.216  12.167 -0.2197  0.1666 -0.1645
  668TIP3   OH223418   1.982   3.542  13.732  0.2504  0.3979  0.4217
  668TIP3    H123419   2.069   3.570  13.762  0.9634 -0.6705 -0.5686
  668TIP3    H223420   1.990   3.448  13.719 -1.5801 -0.0254  1.9734
  669TIP3   OH223421   2.122   1.152  13.779 -0.0590  0.4531  0.2028
  669TIP3    H123422   2.128   1.244  13.753  2.8265  0.1517 -0.6301
  669TIP3    H223423   2.107   1.155  13.873  0.3323  1.8056  0.2547
  670TIP3   OH223424   4.680   5.193   5.842 -0.0933  0.2578 -0.0139
  670TIP3    H123425   4.641   5.270   5.882  1.2303  0.4678  0.9267
  670TIP3    H223426   4.640   5.119   5.887 -0.5079  0.4222 -0.1089
  671TIP3   OH223427   5.798   4.657   1.141  0.2032  0.3240 -0.3228
  671TIP3    H123428   5.789   4.608   1.059  3.0443  0.9473 -1.0942
  671TIP3    H223429   5.875   4.711   1.129  2.1978 -1.2450  3.6095
  672TIP3   OH223430   5.981   0.870   1.780 -0.0322 -0.2097 -0.7723
  672TIP3    H123431   6.042   0.807   1.740  0.1173 -0.5566 -0.0191
  672TIP3    H223432   5.951   0.924   1.707  1.4933  0.2283 -1.1085
  673TIP3   OH223433   2.428   1.590  11.417  0.1169 -0.7767  0.2356
  673TIP3    H123434   2.438   1.552  11.330  0.1406 -2.1051  0.7946
  673TIP3    H223435   2.382   1.673  11.402  1.0998 -0.4383 -1.1363
  674TIP3   OH223436   5.354   1.085  11.230  0.2245 -0.3123  0.0480
  674TIP3    H123437   5.268   1.044  11.236 -0.0233 -0.2634 -2.2146
  674TIP3    H223438   5.366   1.127  11.315 -0.1445 -3.7238  1.9680
  675TIP3   OH223439   3.496   3.378  11.079 -0.2522 -0.0238  0.2456
  675TIP3    H123440   3.504   3.307  11.015  0.4382 -0.4837  0.8287
  675TIP3    H223441   3.586   3.393  11.109 -0.5579  0.2274  1.0516
  676TIP3   OH223442   2.038   6.765  10.418 -0.2363 -0.3589 -0.0050
  676TIP3    H123443   2.020   6.678  10.383 -1.0497  0.3685 -1.4895
  676TIP3    H223444   1.998   6.825  10.355 -0.0926  1.0831  1.2178
  677TIP3   OH223445   2.017   5.257  10.263 -0.1206 -0.1551  0.7962
  677TIP3    H123446   1.970   5.335  10.294  0.3264  0.5570 -0.2536
  677TIP3    H223447   2.109   5.274  10.284  0.3426  0.7889 -1.6486
  678TIP3   OH223448   6.425   2.093  17.059 -0.2494 -0.1020  0.6237
  678TIP3    H123449   6.444   2.074  16.967  2.4848  1.4912  0.7511
  678TIP3    H223450   6.457   2.017  17.107 -0.2694 -0.2790  0.3580
  679TIP3   OH223451   3.987   1.361  17.038  0.1548 -0.4658  0.2523
  679TIP3    H123452   4.076   1.358  17.072  0.3846 -0.1118 -0.2858
  679TIP3    H223453   3.951   1.442  17.073  0.1954 -0.3950  0.1338
  680TIP3   OH223454   6.600   5.888  13.332 -0.0389 -0.0493 -0.1207
  680TIP3    H123455   6.671   5.946  13.303 -0.0131 -1.4162 -3.0828
  680TIP3    H223456   6.643   5.825  13.390  1.1690 -0.6422 -1.5893
  681TIP3   OH223457   1.664   5.797   2.495  0.0933  0.3459  0.1532
  681TIP3    H123458   1.706   5.880   2.474 -0.0515  0.4465  0.2625
  681TIP3    H223459   1.571   5.810   2.473 -0.0985  0.5162  1.0285
  682TIP3   OH223460   1.871   6.250  11.889 -0.2835 -0.1411  0.2837
  682TIP3    H123461   1.912   6.312  11.950 -0.3850  1.4690 -1.2204
  682TIP3    H223462   1.935   6.178  11.882  0.1657  0.1037  1.5090
  683TIP3   OH223463   3.394   6.263  15.990  0.0844 -0.4542  0.1873
  683TIP3    H123464   3.436   6.196  16.045  1.3933  0.2677  0.0986
  683TIP3    H223465   3.445   6.342  16.006 -0.0249 -0.0269 -1.4461
  684TIP3   OH223466   1.926   2.744   4.848 -0.0564 -0.1837 -0.1444
  684TIP3    H123467   1.934   2.741   4.752 -0.8967  0.3274 -0.2485
  684TIP3    H223468   1.836   2.714   4.865  0.1769 -0.5201  0.4999
  685TIP3   OH223469   5.977   1.906  13.958  0.0299  0.1918  0.0016
  685TIP3    H123470   5.892   1.862  13.964  0.8715 -1.6596 -0.6810
  685TIP3    H223471   5.981   1.961  14.037 -1.5570 -0.1028  0.3290
  686TIP3   OH223472   0.435   6.621   5.997 -0.0158  0.2444  0.2606
  686TIP3    H123473   0.460   6.705   6.034  1.3406 -1.0305  2.4842
  686TIP3    H223474   0.429   6.562   6.073 -0.4889 -1.7646 -1.2497
  687TIP3   OH223475   2.125   1.514  12.347 -0.4094 -0.5274  0.4471
  687TIP3    H123476   2.128   1.457  12.424 -1.7252 -2.8549 -1.0964
  687TIP3    H223477   2.198   1.484  12.292 -0.4143  0.0731  0.1043
  688TIP3   OH223478   5.614   2.501  16.503 -0.1263 -0.4907  0.5728
  688TIP3    H123479   5.632   2.426  16.447 -1.3191  0.2520 -0.8564
  688TIP3    H223480   5.603   2.463  16.591 -0.6403 -1.9749 -0.1028
  689TIP3   OH223481   6.735   6.731  10.389 -0.0613 -0.8233  0.1968
  689TIP3    H123482   6.686   6.756  10.467  0.7156 -0.5299  0.6037
  689TIP3    H223483   6.751   6.814  10.343 -0.8640 -1.0393 -0.4912
  690TIP3   OH223484   2.461   5.923  16.748 -0.1704  0.7249  0.1410
  690TIP3    H123485   2.472   5.898  16.656  1.2160  2.1338 -0.1138
  690TIP3    H223486   2.509   6.005  16.757  0.1571  0.3590  2.2583
  691TIP3   OH223487   2.707   3.668   1.204  0.2751  0.0820 -0.5424
  691TIP3    H123488   2.684   3.691   1.114 -0.0450  0.8612 -0.2686
  691TIP3    H223489   2.802   3.659   1.203  0.2853  0.2049 -0.9317
  692TIP3   OH223490   1.653   6.315  17.000  0.4673  0.1389 -0.0657
  692TIP3    H123491   1.666   6.343  16.910  1.9304  0.9007  0.3562
  692TIP3    H223492   1.705   6.235  17.009 -1.3295 -1.1260 -0.4409
  693TIP3   OH223493   2.973   2.829   3.782 -0.2356 -0.5781 -0.4995
  693TIP3    H123494   3.040   2.804   3.719  1.0576  0.4747  0.3698
  693TIP3    H223495   3.021   2.881   3.848 -1.5797 -1.2960  1.1230
  694TIP3   OH223496   4.501   4.008  12.223 -0.2290 -0.3655  0.8164
  694TIP3    H123497   4.522   3.983  12.313 -1.2761 -2.0214  0.6464
  694TIP3    H223498   4.451   3.934  12.188  1.5578 -0.5435 -1.6865
  695TIP3   OH223499   6.015   1.061   4.357  0.1935  0.2343 -0.2869
  695TIP3    H123500   6.096   1.013   4.343  2.4698  3.5882  0.0886
  695TIP3    H223501   5.992   1.044   4.448  0.4890 -0.7213 -0.3836
  696TIP3   OH223502   0.075   3.282  10.675 -0.6767  0.0404 -0.0327
  696TIP3    H123503   0.127   3.235  10.610  2.2220  0.7152  1.6628
  696TIP3    H223504   0.057   3.217  10.743 -0.0477  0.3819  0.4669
  697TIP3   OH223505   5.811   6.733   0.638 -0.2278  0.2150  0.6081
  697TIP3    H123506   5.787   6.777   0.557  0.7395 -1.4172 -0.6506
  697TIP3    H223507   5.813   6.640   0.615 -2.0292 -0.5612  3.0750
  698TIP3   OH223508   5.001   2.485  16.537 -0.3395  0.1245 -0.6392
  698TIP3    H123509   4.915   2.511  16.570  0.3504 -1.0616  2.4954
  698TIP3    H223510   5.063   2.525  16.598  1.2137 -0.7704 -1.5703
  699TIP3   OH223511   0.419   4.523  15.024  0.5706  0.4109  0.2310
  699TIP3    H123512   0.367   4.495  15.099 -0.5308  2.0040  0.1009
  699TIP3    H223513   0.467   4.444  14.998 -0.9898 -0.8453  0.9863
  700TIP3   OH223514   1.328   0.956  13.601  0.2063 -0.0458 -0.6578
  700TIP3    H123515   1.377   0.895  13.657  1.1588  1.5050  0.2927
  700TIP3    H223516   1.251   0.906  13.573 -1.3274 -0.4870  3.4904
  701TIP3   OH223517   4.735   3.542  16.155 -0.4135  0.3269  0.5040
  701TIP3    H123518   4.666   3.503  16.102  0.9298  0.6337 -1.6064
  701TIP3    H223519   4.707   3.632  16.168 -0.9881  0.1203  0.7273
  702TIP3   OH223520   3.862   4.955  17.088  0.1880 -0.5213 -0.0593
  702TIP3    H123521   3.835   5.027  17.146 -0.4917  0.0551 -1.0620
  702TIP3    H223522   3.780   4.916  17.058  0.4467  0.3623 -2.0670
  703TIP3   OH223523   4.387   1.874  14.919 -0.5373  0.8261  0.3369
  703TIP3    H123524   4.438   1.804  14.959 -3.0568 -0.2545  1.9328
  703TIP3    H223525   4.404   1.951  14.973  0.9128  1.0706 -0.4034
  704TIP3   OH223526   0.982   5.593   1.698 -0.4900  0.2592 -0.0332
  704TIP3    H123527   0.949   5.510   1.733 -1.5197  0.0182 -1.4471
  704TIP3    H223528   0.976   5.583   1.603  1.6016  1.0971 -0.3004
  705TIP3   OH223529   1.593   3.077  15.846 -0.1846 -0.1388  0.3129
  705TIP3    H123530   1.542   3.050  15.770  0.9440 -0.4426 -0.3695
  705TIP3    H223531   1.668   3.124  15.809 -0.9067  1.9617  1.3702
  706TIP3   OH223532   1.689   3.117   0.731 -0.2188  0.6019  0.1735
  706TIP3    H123533   1.639   3.190   0.696  0.8518  1.2802  0.0074
  706TIP3    H223534   1.624   3.048   0.747 -0.9359  0.7594 -1.8110
  707TIP3   OH223535   3.389   4.984  11.113  0.0099  0.5017 -0.1773
  707TIP3    H123536   3.300   4.988  11.078 -0.1494  1.0082  0.2659
  707TIP3    H223537   3.445   4.980  11.036 -0.3724  0.8329 -0.4768
  708TIP3   OH223538   0.629   1.486  12.548  0.1015  0.1942  0.0469
  708TIP3    H123539   0.701   1.425  12.563  0.1808  0.7880  2.5886
  708TIP3    H223540   0.665   1.571  12.573 -1.1022  0.6925  0.1237
  709TIP3   OH223541   1.682   5.145  12.193  0.0471  0.0326  0.4531
  709TIP3    H123542   1.690   5.076  12.259  0.1613 -0.3443  0.0517
  709TIP3    H223543   1.772   5.177  12.182  0.4553 -1.4503 -1.1361
  710TIP3   OH223544   6.077   5.968   5.686 -0.4981  0.1092  0.1221
  710TIP3    H123545   6.147   6.031   5.668 -0.2395  0.2470  1.4898
  710TIP3    H223546   6.111   5.884   5.657  0.8449 -0.0710  2.0690
  711TIP3   OH223547   4.988   5.936   1.892  0.7775 -0.2589 -0.3296
  711TIP3    H123548   4.977   5.869   1.958  1.2675  0.2725  0.3027
  711TIP3    H223549   5.033   6.007   1.937 -0.8293  1.0244 -0.6160
  712TIP3   OH223550   4.254   1.309  17.145  0.4952 -0.1098  0.6395
  712TIP3    H123551   4.243   1.352  17.229 -2.6140 -0.8374  0.7326
  712TIP3    H223552   4.289   1.376  17.087 -2.6684  2.1926  1.1624
  713TIP3   OH223553   5.628   4.039   5.342 -0.5175  0.0956  0.1320
  713TIP3    H123554   5.614   3.944   5.344 -0.9113  0.1511  0.2534
  713TIP3    H223555   5.589   4.067   5.259  0.5562  0.0165 -0.4161
  714TIP3   OH223556   3.376   2.250  12.581 -0.1697 -0.0994 -0.4667
  714TIP3    H123557   3.460   2.259  12.626 -0.1826  1.7859 -0.7274
  714TIP3    H223558   3.396   2.268  12.489 -0.6105 -1.1767 -0.7867
  715TIP3   OH223559   6.374   3.119   2.621  0.0834  0.3030  0.2572
  715TIP3    H123560   6.306   3.130   2.688 -0.1892 -0.1558  0.0553
  715TIP3    H223561   6.327   3.103   2.540  0.3926  1.6111 -0.2083
  716TIP3   OH223562   4.814   1.469  16.441  0.4995 -0.4550  0.1768
  716TIP3    H123563   4.900   1.510  16.444 -0.3368  1.3635  2.6622
  716TIP3    H223564   4.812   1.413  16.518 -0.3364 -0.9411 -0.1896
  717TIP3   OH223565   6.232   2.897  11.311  0.4708  0.1919 -0.8515
  717TIP3    H123566   6.307   2.957  11.307  0.3346  0.3084 -2.8394
  717TIP3    H223567   6.242   2.851  11.394  1.1593  2.2088  0.2506
  718TIP3   OH223568   4.745   4.515  17.062  0.2287 -0.5699 -0.0429
  718TIP3    H123569   4.756   4.602  17.101  1.1577 -0.2221 -1.0302
  718TIP3    H223570   4.749   4.455  17.137  2.0794  0.0685  0.4268
  719TIP3   OH223571   4.507   4.317   0.123 -0.0117  0.6625  0.4995
  719TIP3    H123572   4.597   4.343   0.103 -0.7097  1.4505 -1.9719
  719TIP3    H223573   4.515   4.258   0.198  2.4432  1.5324  1.0126
  720TIP3   OH223574   2.752   0.579   0.826 -0.0822  1.0664 -0.1838
  720TIP3    H123575   2.663   0.567   0.858  0.7090  0.0393  1.8749
  720TIP3    H223576   2.800   0.613   0.901  1.3288  1.3375 -1.1671
  721TIP3   OH223577   3.879   1.098  17.121 -0.6872  0.1203 -0.1878
  721TIP3    H123578   3.964   1.062  17.144 -1.1727  0.1282  1.7698
  721TIP3    H223579   3.898   1.183  17.083  0.2305 -0.4692 -1.1060
  722TIP3   OH223580   2.106   2.861  13.393  0.4633 -0.2562  0.3379
  722TIP3    H123581   2.096   2.838  13.300  1.2045 -2.3139  0.7280
  722TIP3    H223582   2.035   2.814  13.437 -1.1792  2.3218  0.6566
  723TIP3   OH223583   4.823   2.454  14.751 -0.0919 -0.2957  0.1264
  723TIP3    H123584   4.745   2.477  14.701 -0.3199 -0.4199  0.4217
  723TIP3    H223585   4.886   2.425  14.686 -0.2908 -0.1898 -0.1139
  724TIP3   OH223586   6.236   3.046  15.033  0.0168 -0.5607 -0.7885
  724TIP3    H123587   6.318   3.075  15.071  0.5328 -2.5581 -0.2922
  724TIP3    H223588   6.184   3.015  15.107 -1.4192  1.1048 -1.0248
  725TIP3   OH223589   4.749   3.167   0.734 -1.1022 -0.2001  0.3036
  725TIP3    H123590   4.740   3.075   0.759 -1.6888  0.4424  2.6708
  725TIP3    H223591   4.825   3.169   0.676  0.8394 -1.7905  2.6129
  726TIP3   OH223592   3.040   6.300  13.930  0.3008 -0.3197 -0.2929
  726TIP3    H123593   2.950   6.309  13.899 -0.1134 -0.7871  0.7042
  726TIP3    H223594   3.032   6.309  14.025  1.4880  0.9262 -0.2865
  727TIP3   OH223595   3.686   1.204   5.526 -0.8854  0.1063  0.0942
  727TIP3    H123596   3.664   1.221   5.617  0.1255  0.7167  0.2335
  727TIP3    H223597   3.684   1.109   5.518 -3.9706  0.0828 -0.0280
  728TIP3   OH223598   5.879   2.156   4.786 -0.0748  0.1541  0.5322
  728TIP3    H123599   5.866   2.183   4.877  1.0100 -1.4053  1.2028
  728TIP3    H223600   5.951   2.092   4.790 -0.2911 -0.2772 -1.3680
  729TIP3   OH223601   3.490   0.547  16.100 -0.5185 -0.2030 -0.3318
  729TIP3    H123602   3.527   0.538  16.188  1.4411  1.2291 -0.9353
  729TIP3    H223603   3.461   0.459  16.077 -0.7975 -0.6596  1.6285
  730TIP3   OH223604   5.093   6.531  11.927  0.3619 -0.0406 -0.2211
  730TIP3    H123605   5.046   6.470  11.984  0.2074  1.1661  1.0051
  730TIP3    H223606   5.165   6.479  11.891 -0.0641 -1.0839  0.3731
  731TIP3   OH223607   0.385   5.625   2.796  0.1394  0.0857  0.7535
  731TIP3    H123608   0.431   5.709   2.788 -1.4370  0.9309  0.2204
  731TIP3    H223609   0.452   5.560   2.776  0.9975  1.2959 -0.5213
  732TIP3   OH223610   6.538   5.087   2.446  0.3426 -0.0448  0.9791
  732TIP3    H123611   6.625   5.047   2.438  0.6173  0.5064  1.1739
  732TIP3    H223612   6.537   5.124   2.534  1.6132  3.8298 -0.4167
  733TIP3   OH223613   4.032   3.228   2.824 -0.3268  0.2680 -0.4231
  733TIP3    H123614   4.064   3.214   2.735 -1.9555  1.4238 -1.2456
  733TIP3    H223615   3.977   3.152   2.843  0.2761 -0.1349 -0.2583
  734TIP3   OH223616   5.670   1.311   2.969 -0.4731  0.9373 -0.1618
  734TIP3    H123617   5.617   1.251   2.917 -1.3134  0.7441  0.8877
  734TIP3    H223618   5.753   1.265   2.983 -1.0895  0.0368  0.5836
  735TIP3   OH223619   6.465   4.398   4.765 -0.5407  0.0803 -0.0353
  735TIP3    H123620   6.386   4.378   4.816 -0.4957  0.3944  0.1569
  735TIP3    H223621   6.471   4.493   4.766 -0.9442  0.1337 -1.2363
  736TIP3   OH223622   2.386   1.441   5.638 -0.6988 -0.3145  0.3941
  736TIP3    H123623   2.418   1.399   5.718  1.1081 -2.4516 -1.3230
  736TIP3    H223624   2.460   1.492   5.606 -0.9999 -0.4320 -0.5146
  737TIP3   OH223625   5.492   6.560  15.711 -0.2390 -0.0370 -0.0154
  737TIP3    H123626   5.571   6.548  15.762 -1.2188 -0.3238  1.5073
  737TIP3    H223627   5.515   6.626  15.645  1.1988 -0.0346  0.4662
  738TIP3   OH223628   1.753   1.425  15.221  0.0540 -0.3638 -0.3494
  738TIP3    H123629   1.666   1.440  15.256 -0.0351  0.3928 -0.8606
  738TIP3    H223630   1.743   1.350  15.161 -0.5893  0.6596 -1.5704
  739TIP3   OH223631   0.427   1.724   4.835 -0.1934  0.3491  0.2269
  739TIP3    H123632   0.352   1.761   4.788  0.9538  1.0249 -1.1272
  739TIP3    H223633   0.397   1.719   4.926 -2.0214  0.2175 -0.3293
  740TIP3   OH223634   5.178   5.055  11.653 -0.0774  0.2816 -0.0068
  740TIP3    H123635   5.167   5.079  11.560 -2.3324 -0.3234  0.0457
  740TIP3    H223636   5.251   4.993  11.653 -1.3449 -1.3323 -1.7300
  741TIP3   OH223637   5.797   6.405  10.837 -0.1725 -0.2439  0.3810
  741TIP3    H123638   5.860   6.334  10.824  0.7137  0.7315 -0.9708
  741TIP3    H223639   5.711   6.363  10.830  0.3073 -1.4710  1.4843
  742TIP3   OH223640   3.800   5.979   0.616  0.0585 -0.1727  0.0964
  742TIP3    H123641   3.730   6.012   0.560 -0.2707 -0.1163  0.5350
  742TIP3    H223642   3.767   5.991   0.705  1.9158  2.9052  0.5226
  743TIP3   OH223643   2.414   2.060  10.533  0.1527  0.0322  0.8291
  743TIP3    H123644   2.357   1.987  10.507 -0.7441  0.8268  0.5140
  743TIP3    H223645   2.499   2.039  10.494 -0.4530 -0.1635 -0.4270
  744TIP3   OH223646   4.788   4.319  12.688 -0.0588 -0.0322 -0.4665
  744TIP3    H123647   4.738   4.244  12.655 -0.1728 -0.5903  0.8959
  744TIP3    H223648   4.724   4.370  12.738  0.1429  0.7000 -0.9363
  745TIP3   OH223649   2.568   4.449  13.610  0.1626  0.1622 -0.6239
  745TIP3    H123650   2.557   4.531  13.561 -0.6879  0.9031  0.7544
  745TIP3    H223651   2.638   4.468  13.673 -0.1903 -0.1034 -0.1515
  746TIP3   OH223652   1.399   5.442   4.238 -0.5232 -0.4182  0.7853
  746TIP3    H123653   1.334   5.407   4.300 -1.4303 -2.5361 -1.2124
  746TIP3    H223654   1.397   5.381   4.164  2.5206  0.4241 -0.1545
  747TIP3   OH223655   2.867   1.218   0.527 -0.3425  0.3583 -0.0892
  747TIP3    H123656   2.941   1.180   0.481 -1.1449  0.2111 -1.3082
  747TIP3    H223657   2.905   1.258   0.606  0.9425 -0.1248 -0.4415
  748TIP3   OH223658   2.882   0.696  12.973 -0.0751 -0.0951  0.4057
  748TIP3    H123659   2.882   0.618  12.918  0.7002 -0.1487  0.4771
  748TIP3    H223660   2.962   0.690  13.025 -0.7047  0.0395  1.4256
  749TIP3   OH223661   0.106   5.615   5.531 -0.5916  0.0918  0.4731
  749TIP3    H123662   0.047   5.541   5.549 -0.2281 -0.5893 -1.0159
  749TIP3    H223663   0.057   5.669   5.469 -0.0791  0.0657  0.0405
  750TIP3   OH223664   3.914   2.827  13.195  0.3808 -0.5969  0.6542
  750TIP3    H123665   3.875   2.740  13.187  1.9245 -1.3256  0.5119
  750TIP3    H223666   3.969   2.835  13.117 -0.9963  1.2115 -0.1853
  751TIP3   OH223667   5.724   2.870   5.954 -0.0475  0.3818  0.6072
  751TIP3    H123668   5.688   2.949   5.995  0.0792  1.0492 -0.5418
  751TIP3    H223669   5.668   2.854   5.879  1.1383  0.5675 -0.3501
  752TIP3   OH223670   0.083   3.997  15.159  0.0163  0.2691  0.3838
  752TIP3    H123671   0.036   3.915  15.147 -1.6809  1.1409  0.7042
  752TIP3    H223672   0.130   3.986  15.241 -0.9197 -0.0995  0.8913
  753TIP3   OH223673   1.098   1.136   1.552  0.4481 -0.1992  0.2193
  753TIP3    H123674   1.099   1.044   1.526 -1.4056 -0.7285  1.8093
  753TIP3    H223675   1.173   1.145   1.610  0.4940 -0.7668  0.2557
  754TIP3   OH223676   0.559   4.061   4.714 -0.7500  0.1362 -0.5537
  754TIP3    H123677   0.587   4.015   4.793  0.0009  1.6485  0.1053
  754TIP3    H223678   0.465   4.076   4.726 -0.2831  2.2351  1.1254
  755TIP3   OH223679   2.558   4.078   5.243  0.0140 -0.4632 -0.0502
  755TIP3    H123680   2.591   4.162   5.213 -0.4818 -0.1154  0.3670
  755TIP3    H223681   2.560   4.022   5.166  1.7432 -0.5131 -0.0073
  756TIP3   OH223682   1.679   0.945   2.125  0.0715  0.1543 -0.1191
  756TIP3    H123683   1.751   0.949   2.188  0.3855  1.7773 -0.5500
  756TIP3    H223684   1.687   1.025   2.073 -2.0324  0.3848 -0.1960
  757TIP3   OH223685   2.112   3.720  15.217  0.3235  0.0775 -0.5811
  757TIP3    H123686   2.027   3.730  15.260  0.6752 -1.3726  0.5265
  757TIP3    H223687   2.106   3.635  15.173  1.3297 -0.2020 -0.1929
  758TIP3   OH223688   4.524   0.032  17.001 -0.1681  0.3087  0.8013
  758TIP3    H123689   4.458   0.023  16.933 -0.4578 -2.3919  1.3178
  758TIP3    H223690   4.607   0.041  16.954 -0.2908 -2.0961  0.0077
  759TIP3   OH223691   2.417   5.057  15.460  0.3052 -0.0200  0.0551
  759TIP3    H123692   2.360   5.023  15.391  1.6212 -2.5965  0.1195
  759TIP3    H223693   2.400   4.999  15.535  1.1252  0.8061  0.9037
  760TIP3   OH223694   2.761   0.444   4.620 -0.2855  0.0486  0.4704
  760TIP3    H123695   2.788   0.523   4.572  0.1930  0.6245  1.6508
  760TIP3    H223696   2.671   0.462   4.648 -0.0498  0.3451  1.0572
  761TIP3   OH223697   4.269   6.172   3.058 -0.2449 -0.0432  0.1779
  761TIP3    H123698   4.206   6.219   3.113 -0.9205 -0.0335 -0.5876
  761TIP3    H223699   4.252   6.205   2.970 -0.3439 -1.3208 -0.2920
  762TIP3   OH223700   2.225   6.274  16.020 -0.0471 -0.6681  1.0636
  762TIP3    H123701   2.247   6.312  16.105  1.3098  0.6400  0.1833
  762TIP3    H223702   2.160   6.334  15.983  2.6583  1.4419 -0.6550
  763TIP3   OH223703   1.503   4.710   0.888 -0.0227  0.0419 -0.4355
  763TIP3    H123704   1.576   4.695   0.829 -0.3863  0.2863 -0.9566
  763TIP3    H223705   1.431   4.739   0.831 -0.5559 -0.2937  0.0516
  764TIP3   OH223706   1.173   0.636   4.318 -0.2791 -0.3702  0.1920
  764TIP3    H123707   1.239   0.634   4.388  0.4793  0.6098 -0.4624
  764TIP3    H223708   1.161   0.545   4.294  1.0164 -0.5676  0.1975
  765TIP3   OH223709   6.635   5.647   4.619  0.1194  0.6152  0.3391
  765TIP3    H123710   6.675   5.563   4.644 -1.5263  0.0870  1.3710
  765TIP3    H223711   6.620   5.640   4.525  0.7487  0.0913  0.2731
  766TIP3   OH223712   0.375   2.990   6.467  0.2040  0.4017 -0.1245
  766TIP3    H123713   0.429   3.058   6.429  2.2060 -0.6592  0.6631
  766TIP3    H223714   0.421   2.908   6.446 -0.1917 -0.4219  1.9700
  767TIP3   OH223715   0.214   4.412  11.907  0.0282 -0.1450 -0.4615
  767TIP3    H123716   0.262   4.494  11.895  0.4332 -0.3259 -0.1361
  767TIP3    H223717   0.229   4.363  11.826 -0.1152  0.0532 -0.6073
  768TIP3   OH223718   2.603   3.114   0.492 -0.1725  0.2091 -0.1807
  768TIP3    H123719   2.518   3.091   0.456 -0.8844  0.5796  1.2183
  768TIP3    H223720   2.650   3.155   0.419 -0.8108 -0.8855 -1.2344
  769TIP3   OH223721   1.102   3.676  13.091  0.2768  0.4254  0.1690
  769TIP3    H123722   1.088   3.767  13.117 -1.0923  0.1457  0.4890
  769TIP3    H223723   1.092   3.678  12.995 -1.7375  0.3389  0.3194
  770TIP3   OH223724   2.696   0.724   2.914 -0.0893 -0.0914  0.1421
  770TIP3    H123725   2.743   0.669   2.851 -0.2699  1.4118 -1.3953
  770TIP3    H223726   2.762   0.786   2.944 -0.1803 -0.3673  0.9135
  771TIP3   OH223727   3.004   1.521   3.738  0.1704  0.1344  0.1149
  771TIP3    H123728   2.967   1.609   3.744  0.8507  0.4746 -0.4546
  771TIP3    H223729   2.971   1.486   3.655  1.5114  0.6604 -0.6879
  772TIP3   OH223730   4.366   0.894   6.454  0.5056  0.1090 -0.6754
  772TIP3    H123731   4.366   0.988   6.440 -1.5867  0.0489 -1.3570
  772TIP3    H223732   4.459   0.871   6.465  1.1059  2.1099 -1.2651
  773TIP3   OH223733   2.485   4.685   4.527  0.2594 -0.1244 -0.4645
  773TIP3    H123734   2.449   4.671   4.615  1.0656 -1.1232 -0.2767
  773TIP3    H223735   2.447   4.615   4.474  0.9265 -0.4269 -0.5563
  774TIP3   OH223736   4.351   0.941   5.084  0.1099  0.1991  0.6095
  774TIP3    H123737   4.359   1.034   5.107  2.1854 -0.2814  2.1239
  774TIP3    H223738   4.381   0.894   5.161  0.8555 -1.7135 -0.7577
  775TIP3   OH223739   3.189   5.946   4.553 -0.4666  0.3321 -0.5331
  775TIP3    H123740   3.283   5.951   4.568 -0.1194 -1.8128 -1.6451
  775TIP3    H223741   3.164   6.035   4.528  0.8962  1.3459  1.4292
  776TIP3   OH223742   5.026   5.893   2.304  0.3055  0.0296 -0.1583
  776TIP3    H123743   5.119   5.911   2.317  0.1794 -0.3685  1.6204
  776TIP3    H223744   4.983   5.976   2.325  0.1619 -0.3357  1.0997
  777TIP3   OH223745   1.498   2.441  11.130  0.0531 -0.0049 -0.0978
  777TIP3    H123746   1.550   2.385  11.072 -0.3541  0.4770 -0.9593
  777TIP3    H223747   1.491   2.524  11.082 -2.1015 -0.2827 -0.3648
  778TIP3   OH223748   0.827   4.271   4.480  0.6301  0.5575 -0.3770
  778TIP3    H123749   0.872   4.253   4.562 -0.9532 -0.0760  0.3955
  778TIP3    H223750   0.872   4.218   4.415 -0.1530 -1.5944  0.7333
  779TIP3   OH223751   6.010   3.545   6.378  0.1731 -0.2013 -0.4518
  779TIP3    H123752   5.973   3.631   6.400  2.6053  1.0355 -0.8773
  779TIP3    H223753   5.989   3.532   6.286  0.7553  0.4675 -0.6807
  780TIP3   OH223754   2.240   2.650  12.133  0.0884 -0.0862 -0.2030
  780TIP3    H123755   2.191   2.732  12.122 -0.4006 -0.2495  0.6925
  780TIP3    H223756   2.317   2.675  12.184 -0.2712 -0.2557  0.4266
  781TIP3   OH223757   4.604   0.819   0.796  0.1345 -0.1995  0.7574
  781TIP3    H123758   4.697   0.820   0.821  0.1409 -0.7027  0.7605
  781TIP3    H223759   4.559   0.861   0.869  0.3879  0.2984  0.6342
  782TIP3   OH223760   5.895   0.553   1.275 -0.2081 -0.2423  0.1986
  782TIP3    H123761   5.852   0.617   1.332  0.1525 -0.4386  0.7057
  782TIP3    H223762   5.896   0.472   1.327 -0.7076 -0.6777 -0.4525
  783TIP3   OH223763   2.031   4.830   5.605 -0.5451  0.5631  0.1314
  783TIP3    H123764   2.113   4.800   5.566  0.6072  1.1652  1.9612
  783TIP3    H223765   1.963   4.784   5.556  0.8413  0.3943 -1.7466
  784TIP3   OH223766   5.211   0.375  11.988 -0.3015 -0.1261 -0.0272
  784TIP3    H123767   5.281   0.315  11.964 -0.4027 -0.2353 -0.0493
  784TIP3    H223768   5.208   0.439  11.917 -1.7780 -1.4577 -1.2218
  785TIP3   OH223769   5.408   0.417  15.802  0.3948 -0.1377 -0.0268
  785TIP3    H123770   5.436   0.338  15.755 -1.1814  0.5793 -2.3936
  785TIP3    H223771   5.477   0.481  15.786 -0.4387  0.3151 -2.1254
  786TIP3   OH223772   0.165   2.545   0.577  0.0123 -0.5397 -0.2105
  786TIP3    H123773   0.147   2.607   0.507  0.0724  0.4751  0.6515
  786TIP3    H223774   0.112   2.575   0.650  0.4227 -1.2185  0.3822
  787TIP3   OH223775   0.220   3.444   1.600  0.0687  0.3112  0.4618
  787TIP3    H123776   0.153   3.441   1.668 -0.9999  0.3827 -0.5568
  787TIP3    H223777   0.273   3.366   1.616 -0.4411  0.0849  1.1000
  788TIP3   OH223778   3.208   2.166   3.788 -0.1483 -0.0677 -0.1462
  788TIP3    H123779   3.117   2.151   3.810 -0.2860 -2.5616 -2.0221
  788TIP3    H223780   3.227   2.105   3.717  2.6828  1.1576 -0.6207
  789TIP3   OH223781   2.971   5.394  13.919 -0.1408  0.1686  0.8150
  789TIP3    H123782   2.942   5.473  13.964 -0.7203  0.6981 -0.4469
  789TIP3    H223783   2.912   5.386  13.844  0.5635 -0.8924  0.3501
  790TIP3   OH223784   5.463   4.092   4.259 -0.2255  0.0854  0.2997
  790TIP3    H123785   5.436   4.109   4.349 -0.7179  1.1668 -0.0270
  790TIP3    H223786   5.472   3.997   4.254  0.7643  0.0680  1.7385
  791TIP3   OH223787   4.271   4.092  16.601  0.1884  0.0040  0.0007
  791TIP3    H123788   4.311   4.067  16.684 -0.1675 -0.0148  0.1673
  791TIP3    H223789   4.256   4.009  16.555 -2.1280 -0.2533  1.0699
  792TIP3   OH223790   0.526   1.882   2.623  0.7104  0.0050  0.0858
  792TIP3    H123791   0.492   1.835   2.699 -0.3353  0.2982 -0.1896
  792TIP3    H223792   0.589   1.944   2.659 -0.6497  0.9807  0.8549
  793TIP3   OH223793   4.955   2.149  16.117 -0.2548 -0.0819 -0.1219
  793TIP3    H123794   4.895   2.081  16.148  0.7509 -1.5818 -1.2809
  793TIP3    H223795   4.929   2.228  16.164 -1.7274 -1.1761  0.9939
  794TIP3   OH223796   3.102   4.782   3.203 -0.8112 -0.0540  0.3258
  794TIP3    H123797   3.051   4.799   3.123 -1.7894 -0.9059  0.7425
  794TIP3    H223798   3.160   4.857   3.211 -1.2419  0.4191 -0.7724
  795TIP3   OH223799   5.596   6.203  16.480 -0.0329  0.8013  0.3189
  795TIP3    H123800   5.561   6.248  16.557 -1.1749  1.2973 -0.4717
  795TIP3    H223801   5.643   6.271  16.432  1.3869  0.3206  0.9445
  796TIP3   OH223802   6.704   2.099   2.140 -0.2858  0.3004  0.2511
  796TIP3    H123803   6.784   2.106   2.087  0.6792  1.9541  1.8184
  796TIP3    H223804   6.675   2.189   2.152 -2.5136 -0.2764 -0.3776
  797TIP3   OH223805   2.001   2.821  14.748  0.2183  0.0613 -0.2613
  797TIP3    H123806   1.928   2.759  14.740  1.1496 -1.2308  0.7713
  797TIP3    H223807   1.981   2.871  14.828 -0.3271  0.8342 -0.8691
  798TIP3   OH223808   1.130   1.531  14.912 -0.5260 -0.4086 -0.4006
  798TIP3    H123809   1.082   1.536  14.829  1.7953 -0.9052 -1.8659
  798TIP3    H223810   1.089   1.458  14.958 -1.7690 -0.2243 -1.1732
  799TIP3   OH223811   5.070   3.307   1.954  0.6480 -0.3507 -0.3870
  799TIP3    H123812   5.068   3.303   2.050 -0.2460  1.0150 -0.3138
  799TIP3    H223813   5.163   3.305   1.932  0.8510 -2.4919  0.3651
  800TIP3   OH223814   5.925   0.586  12.716  0.4467 -0.0787  0.0309
  800TIP3    H123815   5.930   0.550  12.628 -0.5175  0.8843 -0.4276
  800TIP3    H223816   6.017   0.602  12.740  0.6684  0.6805 -1.2315
  801TIP3   OH223817   6.233   5.991   2.398 -0.2453  0.3495 -0.0456
  801TIP3    H123818   6.201   6.081   2.405 -0.9074  0.1985 -0.9899
  801TIP3    H223819   6.328   5.999   2.402 -0.2621  1.1861 -0.9791
  802TIP3   OH223820   5.354   4.663  14.107 -0.2179 -0.1873  0.2284
  802TIP3    H123821   5.307   4.678  14.025 -0.8959 -2.1862  0.1786
  802TIP3    H223822   5.303   4.709  14.173 -0.3594  0.4193 -0.2953
  803TIP3   OH223823   2.119   6.150  16.577  0.1272  0.0190 -0.3320
  803TIP3    H123824   2.199   6.167  16.528  1.0196 -0.0034  1.0721
  803TIP3    H223825   2.149   6.120  16.662 -1.3476  1.4622  0.7581
  804TIP3   OH223826   1.325   5.000  16.243 -0.0183  0.2048  0.6900
  804TIP3    H123827   1.418   4.998  16.219  0.0565  1.5905  0.8122
  804TIP3    H223828   1.323   4.971  16.334  0.4965  1.7794  1.2203
  805TIP3   OH223829   3.227   1.096   1.151 -1.1073 -0.0041  0.0176
  805TIP3    H123830   3.158   1.135   1.097 -1.4830 -0.2036  0.3430
  805TIP3    H223831   3.309   1.122   1.109 -1.2987  1.9802  0.7601
  806TIP3   OH223832   4.417   4.493  16.974 -0.1994 -0.2218 -0.1289
  806TIP3    H123833   4.390   4.456  16.890  1.2396 -1.2303 -0.1756
  806TIP3    H223834   4.512   4.485  16.975  0.0206  1.7941  0.6909
  807TIP3   OH223835   5.755   3.004   2.199  0.0740 -0.7564 -0.0832
  807TIP3    H123836   5.818   3.010   2.271 -0.9454  0.1119  0.7658
  807TIP3    H223837   5.673   2.979   2.241 -0.3114 -1.2010 -1.0793
  808TIP3   OH223838   4.601   6.548  11.703  0.6231 -0.2946  0.2904
  808TIP3    H123839   4.524   6.493  11.713  0.3645 -0.3343 -1.5095
  808TIP3    H223840   4.569   6.637  11.717  0.3522 -0.3599  0.1042
  809TIP3   OH223841   0.519   6.652   2.659 -0.1973 -0.0716  0.6057
  809TIP3    H123842   0.571   6.712   2.712 -0.9329 -0.0235  1.2824
  809TIP3    H223843   0.451   6.619   2.718 -1.8209  0.9378 -0.6220
  810TIP3   OH223844   3.151   3.924  12.384 -0.0837 -0.4221 -0.0019
  810TIP3    H123845   3.199   3.847  12.353  0.0895 -0.2887 -0.0689
  810TIP3    H223846   3.196   3.998  12.343  0.1405 -0.2437  0.5549
  811TIP3   OH223847   6.005   5.884   2.736 -0.1298  0.2499  0.0453
  811TIP3    H123848   6.076   5.948   2.733 -0.2601  0.3577 -0.9115
  811TIP3    H223849   5.981   5.870   2.645 -0.4711 -0.7596  0.2760
  812TIP3   OH223850   6.312   5.541  16.539  0.0362 -0.3653  0.5218
  812TIP3    H123851   6.356   5.459  16.517 -1.3120 -1.3070  1.1520
  812TIP3    H223852   6.220   5.516  16.550 -0.3118  1.1357  1.3075
  813TIP3   OH223853   3.894   3.130   0.899 -0.0756 -0.3083  0.5985
  813TIP3    H123854   3.936   3.159   0.818  1.0234 -1.2449  0.8127
  813TIP3    H223855   3.804   3.160   0.891 -0.4360 -1.7738 -1.7154
  814TIP3   OH223856   0.934   4.904  15.244  0.3217  0.1036  0.4939
  814TIP3    H123857   0.871   4.890  15.173  0.8363  1.5477 -0.2964
  814TIP3    H223858   0.884   4.888  15.323 -0.8757  0.5239 -0.1422
  815TIP3   OH223859   5.882   6.678  16.627  0.2137 -0.4837  0.4346
  815TIP3    H123860   5.903   6.766  16.657 -0.1983  0.0886 -0.8942
  815TIP3    H223861   5.897   6.623  16.704 -1.5881  0.9969  1.9518
  816TIP3   OH223862   1.731   1.562   4.285  0.2871 -0.1263 -0.1977
  816TIP3    H123863   1.763   1.528   4.369 -4.2371  0.7302  2.1444
  816TIP3    H223864   1.716   1.484   4.232  2.3921 -0.7377 -0.0093
  817TIP3   OH223865   1.672   3.833  15.917  0.1792  0.1868  0.0294
  817TIP3    H123866   1.751   3.780  15.906  0.0141 -0.5093  1.9030
  817TIP3    H223867   1.607   3.791  15.861  0.6518 -0.2772 -0.1799
  818TIP3   OH223868   5.654   0.058  12.763 -0.3047  0.1185 -0.8501
  818TIP3    H123869   5.617  -0.021  12.802 -2.3617  0.8013 -1.2659
  818TIP3    H223870   5.718   0.089  12.827  0.7270 -1.9583 -0.7857
  819TIP3   OH223871   0.051   6.298  16.215 -0.0444 -0.1970 -0.1029
  819TIP3    H123872   0.078   6.246  16.140 -0.1536 -1.2180  0.5545
  819TIP3    H223873  -0.025   6.252  16.250  1.1738 -0.8736  1.8063
  820TIP3   OH223874   2.397   6.160   6.346  0.5656 -0.3880  0.4972
  820TIP3    H123875   2.328   6.198   6.292  0.9169  2.6142  1.9503
  820TIP3    H223876   2.478   6.194   6.309  1.1197 -1.7859  0.3719
  821TIP3   OH223877   6.558   0.099   4.098  0.0644  0.2251 -0.2213
  821TIP3    H123878   6.523   0.045   4.028 -1.5504  0.2191  0.5324
  821TIP3    H223879   6.480   0.138   4.140  1.0738  1.7484  0.3493
  822TIP3   OH223880   0.734   2.242   2.367  0.1283 -0.0193 -0.1026
  822TIP3    H123881   0.699   2.210   2.284  0.2895 -0.6718  0.0669
  822TIP3    H223882   0.740   2.163   2.421  1.8190  0.0720 -0.1125
  823TIP3   OH223883   4.148   1.041  17.145 -0.3888 -0.0872  0.4435
  823TIP3    H123884   4.202   1.109  17.184 -0.7820  0.4230  0.1076
  823TIP3    H223885   4.170   1.043  17.052  0.4082 -1.1685  0.5938
  824TIP3   OH223886   4.695   5.632  11.273 -0.0613  0.1559 -0.5306
  824TIP3    H123887   4.684   5.583  11.354  0.4076  0.7516 -0.0900
  824TIP3    H223888   4.643   5.585  11.209  0.9385 -1.3376 -0.3033
  825TIP3   OH223889   3.377   0.780   3.182 -0.0635  0.6410 -0.2068
  825TIP3    H123890   3.356   0.787   3.089 -1.2837 -0.1576 -0.0095
  825TIP3    H223891   3.360   0.688   3.204 -2.0819  1.3061  1.3167
  826TIP3   OH223892   2.235   1.612  17.089 -0.5992 -0.6501  0.0597
  826TIP3    H123893   2.315   1.663  17.080 -0.6994 -0.7039 -1.4743
  826TIP3    H223894   2.200   1.636  17.175 -0.2692  1.3183 -0.3113
  827TIP3   OH223895   4.288   4.925  14.744 -0.2093 -0.0107  0.1484
  827TIP3    H123896   4.340   4.933  14.664 -0.6258  1.4924  0.0034
  827TIP3    H223897   4.340   4.868  14.801 -0.3349 -1.9024 -1.5147
  828TIP3   OH223898   6.284   6.160   0.495 -0.3138 -0.8239  0.6006
  828TIP3    H123899   6.209   6.134   0.548  0.4315 -1.3861  1.4064
  828TIP3    H223900   6.261   6.134   0.406 -1.6875  0.3586  0.5772
  829TIP3   OH223901   0.723   1.121  15.306 -0.2328 -0.0928  0.1246
  829TIP3    H123902   0.655   1.187  15.324  0.7492  1.0283 -0.1599
  829TIP3    H223903   0.781   1.126  15.382  0.8330  0.6680 -0.7121
  830TIP3   OH223904   4.173   3.310  14.489 -0.3128 -0.3865 -0.4336
  830TIP3    H123905   4.152   3.389  14.538  1.3328  0.4722 -1.0222
  830TIP3    H223906   4.142   3.326  14.400 -4.5450 -2.4832  0.4122
  831TIP3   OH223907   4.858   6.534   5.284  0.0376  0.5885  0.6694
  831TIP3    H123908   4.826   6.594   5.216  0.0021  1.2493  1.2562
  831TIP3    H223909   4.801   6.551   5.359 -0.6393 -0.9232  0.5302
  832TIP3   OH223910   1.626   0.115  10.810  0.1101  0.0165  0.2211
  832TIP3    H123911   1.706   0.164  10.793  0.4524 -0.9307 -1.1534
  832TIP3    H223912   1.562   0.151  10.747 -0.4339  0.4981  1.0363
  833TIP3   OH223913   6.176   0.728  11.864 -0.4593 -0.6386 -0.4846
  833TIP3    H123914   6.195   0.639  11.835  0.2992  0.1407 -2.5885
  833TIP3    H223915   6.262   0.769  11.872 -0.8525  0.3315 -1.0753
  834TIP3   OH223916   1.984   5.265  14.353 -0.4866 -0.7461 -0.5164
  834TIP3    H123917   1.985   5.230  14.442  0.2383 -1.5766 -0.8359
  834TIP3    H223918   2.073   5.295  14.339  0.0377 -2.6727 -1.7224
  835TIP3   OH223919   5.865   1.459  13.918 -0.1834  0.2930 -0.7006
  835TIP3    H123920   5.771   1.451  13.900 -0.3656  0.5767  0.0785
  835TIP3    H223921   5.891   1.370  13.943 -0.5047  0.4378  0.2073
  836TIP3   OH223922   0.072   6.201  12.377 -0.0333 -0.1756  0.2279
  836TIP3    H123923  -0.022   6.218  12.377 -0.0215  0.1325 -1.4197
  836TIP3    H223924   0.106   6.254  12.448 -0.7675  2.0750 -1.0028
  837TIP3   OH223925   4.077   0.310  16.298 -0.3801  0.1439  0.4454
  837TIP3    H123926   4.153   0.309  16.240 -0.6367 -1.5113  0.0815
  837TIP3    H223927   4.005   0.280  16.243 -1.0390  0.4396  1.1273
  838TIP3   OH223928   2.235   4.008  13.149 -0.2767 -0.7911 -0.1148
  838TIP3    H123929   2.219   4.070  13.220 -0.4235  0.3784 -1.1395
  838TIP3    H223930   2.323   4.030  13.117 -0.2597 -1.2319 -0.3874
  839TIP3   OH223931   4.531   3.356  13.592 -0.2115 -0.1979  0.1328
  839TIP3    H123932   4.473   3.390  13.524  1.0901  2.0757  0.0756
  839TIP3    H223933   4.479   3.289  13.636 -2.1922  0.4341 -1.1137
  840TIP3   OH223934   5.828   5.271  15.931 -0.0232 -0.0220  0.2623
  840TIP3    H123935   5.774   5.306  15.860 -0.0474 -1.7322 -0.6030
  840TIP3    H223936   5.794   5.313  16.010 -0.7345  1.0684 -0.6011
  841TIP3   OH223937   5.117   5.855   4.001 -0.4342 -0.1497  0.5149
  841TIP3    H123938   5.170   5.871   3.923 -2.2129 -0.8550 -0.9140
  841TIP3    H223939   5.130   5.932   4.055  2.7339 -0.6748  0.7078
  842TIP3   OH223940   0.657   4.025   1.803 -0.1739 -0.3877  0.6150
  842TIP3    H123941   0.633   4.095   1.742  1.2275 -0.3710  0.0369
  842TIP3    H223942   0.683   4.071   1.883  3.1800  0.0750 -0.5382
  843TIP3   OH223943   2.907   4.870  14.934 -0.3424  0.0604  0.1065
  843TIP3    H123944   2.931   4.839  14.847 -1.4700 -2.3098  0.5501
  843TIP3    H223945   2.939   4.960  14.937  0.3848 -0.0226 -2.4651
  844TIP3   OH223946   2.873   5.685   0.495  0.2082 -0.4655 -0.1130
  844TIP3    H123947   2.845   5.596   0.473 -2.0763 -0.3476  1.8612
  844TIP3    H223948   2.913   5.677   0.582 -0.9463  0.5006  0.5576
  845TIP3   OH223949   0.303   1.741   4.285  0.1032 -0.0187 -0.0948
  845TIP3    H123950   0.359   1.766   4.359 -1.2444  0.8034  0.7014
  845TIP3    H223951   0.281   1.824   4.243 -1.4277 -0.1976  0.3069
  846TIP3   OH223952   3.554   2.816   3.304 -0.4152 -0.0403 -0.4430
  846TIP3    H123953   3.636   2.861   3.283 -0.9500  1.5206  0.6158
  846TIP3    H223954   3.536   2.841   3.395  0.3468 -4.1860  1.0261
  847TIP3   OH223955   4.812   5.785  16.462 -0.1402  0.0068  0.2807
  847TIP3    H123956   4.841   5.757  16.548  1.9299 -2.9190 -1.1958
  847TIP3    H223957   4.859   5.866  16.445 -1.5673  1.3493  2.2964
  848TIP3   OH223958   2.502   6.378  15.621  0.2670 -0.2326  0.1430
  848TIP3    H123959   2.517   6.289  15.654  0.3258 -1.0478 -1.9196
  848TIP3    H223960   2.500   6.368  15.525 -1.3031  1.7452 -0.0946
  849TIP3   OH223961   4.305   4.624   0.411 -0.3422  0.4946 -0.0723
  849TIP3    H123962   4.377   4.685   0.393  0.1675 -0.2335 -0.5565
  849TIP3    H223963   4.273   4.599   0.324 -0.2897 -0.2168  0.1036
  850TIP3   OH223964   0.310   2.143  15.575  0.4773  0.5580  0.4140
  850TIP3    H123965   0.272   2.060  15.603  1.5475 -0.3177 -0.6037
  850TIP3    H223966   0.389   2.118  15.528 -0.0957  2.0473 -1.4659
  851TIP3   OH223967   2.476   4.242  10.495  0.1167  0.2551  0.2443
  851TIP3    H123968   2.474   4.148  10.512  0.5748  0.3280  0.7218
  851TIP3    H223969   2.544   4.276  10.554  3.4618  0.2131 -3.1887
  852TIP3   OH223970   4.948   0.195  12.740  0.3576  1.2947  0.8921
  852TIP3    H123971   4.911   0.186  12.828 -1.7293  1.5997  0.1228
  852TIP3    H223972   5.042   0.186  12.752  0.0340 -0.0988  2.9590
  853TIP3   OH223973   1.085   4.634  14.818 -0.5463 -0.0127 -0.4597
  853TIP3    H123974   1.034   4.556  14.838 -1.9534  1.7476  3.9662
  853TIP3    H223975   1.019   4.704  14.810  0.8167  1.2066 -1.5864
  854TIP3   OH223976   1.799   1.078  16.476 -0.4972 -0.5152 -0.2747
  854TIP3    H123977   1.723   1.094  16.420  0.5472  2.9248 -0.9632
  854TIP3    H223978   1.769   1.097  16.564 -0.7358 -0.3573 -0.3888
  855TIP3   OH223979   5.011   2.765   3.150 -0.1076 -0.2706  0.1789
  855TIP3    H123980   4.918   2.760   3.171 -0.0557  0.0528  0.5042
  855TIP3    H223981   5.014   2.764   3.054 -0.3402 -1.7996  0.1674
  856TIP3   OH223982   5.930   2.329   5.429  0.0141 -0.1454 -0.6997
  856TIP3    H123983   5.910   2.367   5.515 -0.2325 -1.3736 -0.1994
  856TIP3    H223984   5.859   2.361   5.372 -1.1297 -1.1519  0.1039
  857TIP3   OH223985   3.186   2.283  14.329  0.3403 -0.1574  0.0076
  857TIP3    H123986   3.141   2.307  14.248 -1.3704 -1.1506  0.6070
  857TIP3    H223987   3.116   2.249  14.386  2.0059 -3.0151  0.5289
  858TIP3   OH223988   2.058   4.480   0.008  0.4702  0.1467  0.2174
  858TIP3    H123989   2.069   4.423  -0.068  0.5844  0.0558  0.3007
  858TIP3    H223990   2.053   4.420   0.082 -2.4346  0.0587  0.0365
  859TIP3   OH223991   2.826   5.051   1.886  0.2703  0.0478 -0.1763
  859TIP3    H123992   2.741   5.038   1.928 -0.4121  0.3075 -1.4325
  859TIP3    H223993   2.871   4.967   1.899 -0.3841 -0.2798  0.0455
  860TIP3   OH223994   5.696   2.161  11.226 -0.2557 -0.1182 -0.0353
  860TIP3    H123995   5.721   2.159  11.134 -1.2045 -0.5916 -0.3028
  860TIP3    H223996   5.654   2.247  11.237  2.6989  1.3607  0.7982
  861TIP3   OH223997   3.290   5.170   4.156 -0.0358 -0.0913  0.1984
  861TIP3    H123998   3.267   5.103   4.221 -0.7663 -0.3687 -0.3365
  861TIP3    H223999   3.361   5.220   4.197  0.5642 -1.2261  0.5878
  862TIP3   OH224000   6.151   5.887   4.740  0.6999 -0.0424 -0.2860
  862TIP3    H124001   6.146   5.980   4.762 -1.1179  0.0897 -1.0393
  862TIP3    H224002   6.215   5.851   4.800  0.7669  1.5297  0.6373
  863TIP3   OH224003   5.424   5.847  13.895 -0.2425 -0.2652  0.0873
  863TIP3    H124004   5.504   5.899  13.892 -0.7426  0.6750  1.5381
  863TIP3    H224005   5.449   5.761  13.861  1.3611  0.0283  0.4361
  864TIP3   OH224006   2.404   1.124   1.250  0.0155 -0.2513  0.0011
  864TIP3    H124007   2.383   1.131   1.157 -1.8812 -1.6322  0.2700
  864TIP3    H224008   2.457   1.045   1.258  0.0613 -0.2096  0.1220
  865TIP3   OH224009   6.223   6.262   2.455  0.1688 -0.3469 -0.5757
  865TIP3    H124010   6.304   6.312   2.447 -0.4836  1.1138  1.2566
  865TIP3    H224011   6.169   6.312   2.516 -1.1522 -2.5346  0.1797
  866TIP3   OH224012   2.329   5.424  11.432  0.6357  0.3542  0.3146
  866TIP3    H124013   2.415   5.399  11.467  0.7549  0.3498  0.0248
  866TIP3    H224014   2.350   5.477  11.355  0.3896 -0.9089 -0.6584
  867TIP3   OH224015   1.449   4.346  12.755 -0.2256  0.0944 -0.0130
  867TIP3    H124016   1.418   4.420  12.702 -0.1368 -1.4816 -2.4045
  867TIP3    H224017   1.543   4.341  12.737 -0.1316 -0.2987  0.5555
  868TIP3   OH224018   3.580   2.943   3.568 -0.3790 -0.0502  0.2590
  868TIP3    H124019   3.659   2.965   3.618 -0.9063  0.7583  0.7615
  868TIP3    H224020   3.547   2.863   3.609  0.0127 -0.2243  0.2394
  869TIP3   OH224021   6.310   1.061   5.814  0.0165  0.1567  0.0155
  869TIP3    H124022   6.399   1.071   5.849 -0.5161  1.6768  1.0284
  869TIP3    H224023   6.323   1.031   5.724  1.5442  0.0807  0.2344
  870TIP3   OH224024   3.871   5.155   0.090  0.3116  0.9588 -0.0894
  870TIP3    H124025   3.851   5.132   0.181 -0.2520  0.2951 -0.3772
  870TIP3    H224026   3.966   5.168   0.089  0.5335 -0.4637  0.2904
  871TIP3   OH224027   5.156   3.705   5.495  0.6505  0.1780 -0.4436
  871TIP3    H124028   5.088   3.708   5.562  1.0661  0.1554 -0.0141
  871TIP3    H224029   5.236   3.730   5.542  1.0959 -0.6783 -0.7358
  872TIP3   OH224030   2.354   2.163  15.825  0.4482 -0.4301  0.0415
  872TIP3    H124031   2.357   2.141  15.732 -0.3451  2.0720 -0.6481
  872TIP3    H224032   2.442   2.193  15.846  0.2315  0.5224 -0.3520
  873TIP3   OH224033   5.009   1.754  13.917  0.2544 -0.2358 -0.6445
  873TIP3    H124034   4.943   1.819  13.943  0.0739  0.1684 -2.0252
  873TIP3    H224035   5.018   1.766  13.823  0.6883 -1.8088 -0.8306
  874TIP3   OH224036   2.767   4.683  13.595 -0.2846 -0.5714 -0.0611
  874TIP3    H124037   2.826   4.608  13.595 -1.9617 -2.0095  1.8248
  874TIP3    H224038   2.798   4.739  13.666 -0.0826 -0.3691 -0.3068
  875TIP3   OH224039   3.240   0.639  15.157 -0.1719 -0.5630 -0.0227
  875TIP3    H124040   3.211   0.632  15.066  0.2674 -2.1724 -0.0727
  875TIP3    H224041   3.334   0.623  15.154  0.1122  0.8516  0.5721
  876TIP3   OH224042   1.084   6.558  13.472 -0.6829  0.1093 -0.0390
  876TIP3    H124043   1.122   6.635  13.515 -2.5100  1.0751 -0.0863
  876TIP3    H224044   1.076   6.494  13.543 -0.9555  0.6552  0.4353
  877TIP3   OH224045   2.811   3.307  15.281 -0.1100  0.2859 -0.2388
  877TIP3    H124046   2.879   3.302  15.214  0.0046  0.1430 -0.1132
  877TIP3    H224047   2.735   3.264  15.242 -0.0742  0.2908 -0.3143
  878TIP3   OH224048   1.901   6.199  10.805  0.4851 -0.1679 -0.1259
  878TIP3    H124049   1.941   6.274  10.850  0.8191  0.2640 -1.1283
  878TIP3    H224050   1.839   6.239  10.744  1.3141 -0.6613 -1.3031
  879TIP3   OH224051   0.154   2.975  13.275  0.2384  0.8826 -0.3509
  879TIP3    H124052   0.236   2.955  13.319  0.9689 -0.8203 -2.3512
  879TIP3    H224053   0.170   3.058  13.230  1.4020 -0.0936 -1.8338
  880TIP3   OH224054   0.345   1.453   4.310 -0.3499  0.1028 -0.1858
  880TIP3    H124055   0.438   1.445   4.328  0.2180 -1.6282 -3.1827
  880TIP3    H224056   0.329   1.547   4.306  1.6478  0.4497 -1.2173
  881TIP3   OH224057   3.327   4.443  14.607  0.3480  0.4367 -0.1805
  881TIP3    H124058   3.315   4.400  14.692 -0.4831  0.8919 -0.0497
  881TIP3    H224059   3.299   4.377  14.543 -0.3224  0.5456 -0.0135
  882TIP3   OH224060   0.014   4.582   0.428  0.3666  0.2876  0.3260
  882TIP3    H124061   0.059   4.499   0.412  0.8971  0.4187  1.0788
  882TIP3    H224062  -0.079   4.560   0.423  0.4888 -0.5503  1.4144
  883TIP3   OH224063   3.035   1.291  13.437 -0.4781 -0.3657 -0.5937
  883TIP3    H124064   3.043   1.385  13.450 -0.8948 -0.3298 -0.5888
  883TIP3    H224065   3.027   1.280  13.342 -0.1968 -0.4166 -0.6135
  884TIP3   OH224066   5.739   2.335  14.916  0.1386 -0.6113  0.3451
  884TIP3    H124067   5.685   2.375  14.847  0.4897  2.8531  1.8716
  884TIP3    H224068   5.687   2.261  14.946 -2.4759  0.8356 -0.2187
  885TIP3   OH224069   6.508   4.984   4.803 -0.6197 -0.1304  0.4009
  885TIP3    H124070   6.439   4.919   4.815 -1.0272  0.5404  2.1196
  885TIP3    H224071   6.463   5.060   4.767 -0.6747  0.0979  0.9397
  886TIP3   OH224072   2.910   5.345  17.097 -0.5789 -0.2612  0.0966
  886TIP3    H124073   2.826   5.364  17.139 -0.7968 -0.1909 -0.3721
  886TIP3    H224074   2.890   5.274  17.036 -0.6523  0.8720 -1.2325
  887TIP3   OH224075   0.644   2.179  13.904  0.4239 -0.4553  0.7163
  887TIP3    H124076   0.589   2.166  13.981 -0.2770  0.6728  0.4271
  887TIP3    H224077   0.714   2.114  13.913 -1.0141 -2.0320  1.0276
  888TIP3   OH224078   4.938   5.793  12.432  0.1017 -0.5409 -0.3776
  888TIP3    H124079   4.916   5.880  12.464  1.2199  0.4151 -2.0717
  888TIP3    H224080   5.029   5.779  12.459 -0.0786 -1.1988 -0.0912
  889TIP3   OH224081   0.723   5.183   4.982  0.6438 -0.3044 -0.2594
  889TIP3    H124082   0.634   5.172   4.947  0.5364  3.2681 -1.5816
  889TIP3    H224083   0.717   5.156   5.073 -1.4688 -1.3026 -0.6370
  890TIP3   OH224084   0.973   0.445  14.216  0.1996  0.1946 -0.2014
  890TIP3    H124085   0.961   0.435  14.311 -0.3396  2.4696  0.0219
  890TIP3    H224086   0.959   0.357  14.181 -1.2186 -0.4033  1.6807
  891TIP3   OH224087   4.489   3.478   4.051 -0.9654  0.2617  0.0152
  891TIP3    H124088   4.461   3.390   4.024  0.6828 -0.2262 -0.1796
  891TIP3    H224089   4.426   3.536   4.007  0.5457 -0.5791 -3.7112
  892TIP3   OH224090   5.609   4.686  11.487  0.1577  0.4569  0.2387
  892TIP3    H124091   5.694   4.700  11.444  0.9256  0.0363  1.5747
  892TIP3    H224092   5.629   4.683  11.580 -1.1647 -0.7992  0.5231
  893TIP3   OH224093   0.438   6.046   3.563 -0.1867 -0.1883 -0.3352
  893TIP3    H124094   0.358   6.093   3.585  0.0730  0.7752 -1.3727
  893TIP3    H224095   0.489   6.107   3.510  0.8948 -1.0624 -0.3619
  894TIP3   OH224096   5.893   4.331   1.903 -0.0633 -0.1168  0.1409
  894TIP3    H124097   5.832   4.403   1.889  1.2066  0.9496 -0.1135
  894TIP3    H224098   5.839   4.253   1.900 -1.2097  0.6895 -1.5865
  895TIP3   OH224099   4.778   4.366   0.106  0.3447 -0.0401 -0.0252
  895TIP3    H124100   4.772   4.428   0.179 -0.3048  0.4076 -0.4472
  895TIP3    H224101   4.835   4.297   0.138  1.8757  1.2355  0.1446
  896TIP3   OH224102   5.722   6.402   3.845 -0.2219  0.4397  0.1682
  896TIP3    H124103   5.689   6.410   3.755 -0.1222 -1.1424 -0.0421
  896TIP3    H224104   5.810   6.365   3.835 -0.4257 -0.2807  0.9396
  897TIP3   OH224105   4.164   3.723   1.397 -1.1393 -0.2292 -0.0333
  897TIP3    H124106   4.208   3.649   1.441 -0.8986 -0.4095 -0.5733
  897TIP3    H224107   4.215   3.800   1.423 -0.2145 -0.4885 -1.0199
  898TIP3   OH224108   0.707   4.460  13.120 -0.0437 -0.5380 -0.2258
  898TIP3    H124109   0.702   4.532  13.184  1.6084 -1.3107  0.8333
  898TIP3    H224110   0.653   4.391  13.158 -0.3967 -0.4134 -0.4950
  899TIP3   OH224111   4.889   2.408   2.948  0.0196  0.3840 -0.7251
  899TIP3    H124112   4.963   2.439   2.895  0.4731 -0.0063 -0.3256
  899TIP3    H224113   4.846   2.342   2.894 -0.2098  0.8094 -1.0718
  900TIP3   OH224114   3.941   0.791  14.276  0.3581 -0.4266  0.1574
  900TIP3    H124115   3.970   0.753  14.358  1.2915 -1.8538 -0.7889
  900TIP3    H224116   4.009   0.769  14.213  0.1998  1.5619 -0.7961
  901TIP3   OH224117   1.458   1.739  16.004  0.8316  0.0516 -0.0969
  901TIP3    H124118   1.553   1.730  16.013  0.8480 -3.1051 -1.9661
  901TIP3    H224119   1.424   1.651  16.017 -1.4530  0.3562 -2.9535
  902TIP3   OH224120   2.961   0.863  12.519  0.1757 -0.8474  0.1945
  902TIP3    H124121   3.002   0.878  12.434 -0.9306 -1.4117 -0.4470
  902TIP3    H224122   2.889   0.926  12.522  0.7386 -0.2250  1.0948
  903TIP3   OH224123   1.560   6.234   0.103  0.4185 -0.4363  0.1274
  903TIP3    H124124   1.567   6.266   0.013  0.9257  1.5221  0.8211
  903TIP3    H224125   1.494   6.165   0.099 -1.7107  1.5431 -1.2572
  904TIP3   OH224126   5.008   1.198  15.416  0.1822 -0.1483  0.2960
  904TIP3    H124127   5.049   1.133  15.359  0.2121 -0.6014  0.8230
  904TIP3    H224128   4.947   1.146  15.470  0.2012  0.2663  0.7149
  905TIP3   OH224129   1.115   4.853   2.292  0.0773  0.5187 -0.1720
  905TIP3    H124130   1.193   4.845   2.347 -0.4230  0.5927  0.5592
  905TIP3    H224131   1.134   4.798   2.216  1.4490  1.6786 -0.7237
  906TIP3   OH224132   4.895   5.076   0.954  0.1903  0.1559  0.2912
  906TIP3    H124133   4.946   5.121   1.022 -1.2952  2.7393 -0.1992
  906TIP3    H224134   4.947   5.086   0.875  1.6009 -2.2888  0.7894
  907TIP3   OH224135   1.709   5.895   6.077 -0.1443 -0.0869  0.0512
  907TIP3    H124136   1.797   5.871   6.104 -0.1990  0.1319  0.4378
  907TIP3    H224137   1.696   5.851   5.993  0.2608 -0.2733  0.0860
  908TIP3   OH224138   6.329   4.556  14.328  0.2017 -1.0562  0.3491
  908TIP3    H124139   6.371   4.629  14.282 -1.5971  0.1348  0.5176
  908TIP3    H224140   6.398   4.490  14.336  2.1810  0.9553  0.9961
  909TIP3   OH224141   0.448   0.655  11.030  0.4069  0.9845 -0.2516
  909TIP3    H124142   0.532   0.655  11.076 -0.4974  0.5458  1.4701
  909TIP3    H224143   0.423   0.747  11.024 -0.0718  0.9849  1.3549
  910TIP3   OH224144   0.948   2.214   0.976  0.2808 -0.7007  0.1872
  910TIP3    H124145   0.879   2.164   0.932 -1.1242  0.1904  1.2778
  910TIP3    H224146   1.022   2.154   0.981 -0.7175 -2.0137 -0.2178
  911TIP3   OH224147   0.331   3.038  11.596  0.6269 -0.2222  0.0130
  911TIP3    H124148   0.253   3.012  11.547 -0.1020  0.3300  0.8469
  911TIP3    H224149   0.348   2.964  11.655 -1.2563  0.9168  2.1574
  912TIP3   OH224150   1.305   1.757  11.636 -0.2810 -0.1952 -0.4352
  912TIP3    H124151   1.281   1.760  11.729  1.5641 -1.2991  0.1262
  912TIP3    H224152   1.397   1.784  11.634 -0.2821 -0.2369 -1.9466
  913TIP3   OH224153   1.549   0.626  10.470 -0.1953 -0.6967 -0.7050
  913TIP3    H124154   1.631   0.666  10.441  1.4603 -2.0884  1.6746
  913TIP3    H224155   1.489   0.700  10.481  1.2082  0.5592 -1.1154
  914TIP3   OH224156   5.426   5.081  13.058 -0.0453 -0.2742 -0.0078
  914TIP3    H124157   5.480   5.128  12.995 -1.3060 -0.3631 -1.2124
  914TIP3    H224158   5.485   5.058  13.129  1.6787 -1.0435 -1.6064
  915TIP3   OH224159   2.047   3.097  12.195 -0.4890  0.9202 -0.3463
  915TIP3    H124160   2.128   3.052  12.220 -0.5233  0.0072 -1.7788
  915TIP3    H224161   1.977   3.035  12.219 -0.5209  0.0199 -2.5676
  916TIP3   OH224162   0.931   1.024  14.151  0.1672  0.3152 -0.4109
  916TIP3    H124163   1.003   0.974  14.113  0.3174  0.3274 -0.1475
  916TIP3    H224164   0.855   0.966  14.145  0.7055 -0.7076  1.5602
  917TIP3   OH224165   6.794   4.081   5.925  0.4729  0.3212 -0.1418
  917TIP3    H124166   6.706   4.092   5.890  0.9778  0.9925 -1.2198
  917TIP3    H224167   6.780   4.040   6.011 -0.9428  1.3521  0.1564
  918TIP3   OH224168   4.702   1.158  14.663 -0.0323 -0.3450 -0.1632
  918TIP3    H124169   4.752   1.078  14.681  0.5101  0.0635  0.1864
  918TIP3    H224170   4.643   1.167  14.738 -1.5041 -1.4679 -1.1353
  919TIP3   OH224171   0.334   2.427  16.877  0.4770  0.1441 -0.0231
  919TIP3    H124172   0.332   2.417  16.782  1.1290  2.8872 -0.4024
  919TIP3    H224173   0.422   2.459  16.896  1.0492 -2.2864  1.7989
  920TIP3   OH224174   1.551   5.229   2.176 -0.2404 -0.3708 -0.5784
  920TIP3    H124175   1.530   5.322   2.188 -1.0696 -0.3266 -2.0789
  920TIP3    H224176   1.605   5.206   2.252  0.9403  1.6333 -0.7432
  921TIP3   OH224177   6.397   3.521   2.234 -0.7833  0.1537 -0.0803
  921TIP3    H124178   6.355   3.435   2.229 -0.1402 -0.1718 -0.0050
  921TIP3    H224179   6.403   3.538   2.328 -1.4566  0.5602 -0.1048
  922TIP3   OH224180   0.324   3.439   2.448  0.2549  0.6262  0.3560
  922TIP3    H124181   0.243   3.479   2.481  0.0285  0.6066 -0.1536
  922TIP3    H224182   0.383   3.439   2.522 -0.8862 -1.2156  1.3462
  923TIP3   OH224183   5.069   5.719   2.090  0.3304 -0.7440  0.7507
  923TIP3    H124184   5.145   5.724   2.031  0.6860 -0.7314  1.2020
  923TIP3    H224185   5.098   5.762   2.170  0.3789 -2.0632  1.4813
  924TIP3   OH224186   2.971   4.139   3.841  0.1075  1.0713  0.5304
  924TIP3    H124187   3.065   4.135   3.826  0.0590  0.4059  0.4063
  924TIP3    H224188   2.938   4.053   3.816 -0.6332  1.5202 -0.0874
  925TIP3   OH224189   6.333   6.489   2.557  0.0279 -0.4044 -0.4155
  925TIP3    H124190   6.287   6.556   2.506  1.0815  0.4288 -0.3056
  925TIP3    H224191   6.424   6.520   2.562 -0.0611 -0.3350  2.1426
  926TIP3   OH224192   1.909   6.564  14.645  0.4531 -0.5343 -0.1824
  926TIP3    H124193   2.001   6.548  14.621  0.6491  0.2014  0.0212
  926TIP3    H224194   1.910   6.565  14.741 -0.0966 -2.2342 -0.1275
  927TIP3   OH224195   0.571   0.327   3.694 -0.3818  0.3520  0.3669
  927TIP3    H124196   0.623   0.358   3.620  1.8833  0.4859  1.9033
  927TIP3    H224197   0.481   0.337   3.666  0.3795  1.6908 -1.8451
  928TIP3   OH224198   2.003   1.910  10.816  0.0922  0.9788 -0.6613
  928TIP3    H124199   1.955   1.909  10.733 -0.4441  0.1017 -0.3648
  928TIP3    H224200   2.093   1.891  10.791 -0.3023 -0.7851 -0.9543
  929TIP3   OH224201   4.397   0.862  11.108 -0.1425  0.5436 -0.1183
  929TIP3    H124202   4.323   0.843  11.051 -0.7768 -1.1526  1.1891
  929TIP3    H224203   4.399   0.958  11.113 -0.3790  0.7315 -2.5055
  930TIP3   OH224204   5.220   2.878   5.777 -0.4692 -0.4146  0.3875
  930TIP3    H124205   5.277   2.824   5.832 -2.3830 -1.4867  1.4586
  930TIP3    H224206   5.254   2.967   5.787  0.8632 -0.9770  1.1424
  931TIP3   OH224207   1.631   5.419  15.091 -0.9268  0.4884  0.4217
  931TIP3    H124208   1.659   5.405  15.181 -0.0977  2.0711  0.4494
  931TIP3    H224209   1.535   5.417  15.095 -0.8913 -0.8462  1.0604
  932TIP3   OH224210   0.853   2.314   4.505  0.7698  0.2062  0.3277
  932TIP3    H124211   0.823   2.224   4.511  3.4025 -0.7289  0.7011
  932TIP3    H224212   0.867   2.329   4.411  2.5621 -0.6420  0.4152
  933TIP3   OH224213   0.603   5.334   3.344  0.3940 -0.0125 -0.0311
  933TIP3    H124214   0.552   5.369   3.272 -1.6836 -1.8432  0.4351
  933TIP3    H224215   0.684   5.302   3.304 -1.4574 -2.6215 -1.9689
  934TIP3   OH224216   2.448   4.166  16.956  0.5185 -0.1430 -0.1890
  934TIP3    H124217   2.492   4.180  17.039 -0.2125  0.1707  0.1546
  934TIP3    H224218   2.476   4.239  16.901 -1.2319  1.3210  0.7413
  935TIP3   OH224219   3.436   3.159  13.710 -0.5297  0.5323 -0.4276
  935TIP3    H124220   3.442   3.073  13.669  0.2569  0.6256 -0.5329
  935TIP3    H224221   3.523   3.172  13.748 -0.4369  1.5633 -0.9794
  936TIP3   OH224222   5.403   3.906  15.673  0.3917 -0.0424 -0.6933
  936TIP3    H124223   5.314   3.872  15.665  1.2189 -2.3417 -0.8889
  936TIP3    H224224   5.451   3.836  15.717  1.9331  1.5149  0.2453
  937TIP3   OH224225   4.203   2.205   3.790 -0.0064  0.1763 -0.5259
  937TIP3    H124226   4.288   2.185   3.752  1.0057  0.2889  1.5220
  937TIP3    H224227   4.198   2.301   3.787  0.1407  0.1940 -0.2822
  938TIP3   OH224228   0.312   2.684   4.657  0.6120 -0.2552 -0.5640
  938TIP3    H124229   0.244   2.701   4.592  0.2233 -1.6669 -0.5576
  938TIP3    H224230   0.328   2.590   4.652  0.6651 -0.3843  1.2843
  939TIP3   OH224231   0.562   5.038  16.083  0.2731  0.5525 -0.3883
  939TIP3    H124232   0.618   5.087  16.144  0.5438 -0.0145 -0.1709
  939TIP3    H224233   0.623   5.003  16.018  0.4289 -1.4350  0.7517
  940TIP3   OH224234   3.406   3.964   4.269 -1.0731  0.2076 -0.0137
  940TIP3    H124235   3.401   4.052   4.306  0.6581  1.2664 -2.0708
  940TIP3    H224236   3.493   3.932   4.295 -0.9536 -0.1255 -0.7913
  941TIP3   OH224237   1.955   4.676  11.576 -0.1597 -0.0419 -0.4669
  941TIP3    H124238   1.969   4.590  11.615  1.5407  0.3221 -0.2089
  941TIP3    H224239   2.028   4.729  11.607 -0.8291  1.3293 -1.1304
  942TIP3   OH224240   2.284   1.862   2.769 -0.1796  0.2510  0.3123
  942TIP3    H124241   2.238   1.788   2.730 -0.4182  0.7640 -0.3937
  942TIP3    H224242   2.232   1.886   2.846 -0.8733  0.5688 -0.2509
  943TIP3   OH224243   3.422   3.541   4.329 -0.2323 -0.0202 -0.3145
  943TIP3    H124244   3.478   3.480   4.281 -0.9442 -0.3024 -0.7959
  943TIP3    H224245   3.483   3.600   4.373  0.4642 -0.9363 -0.0283
  944TIP3   OH224246   5.334   6.655  16.809  0.4773 -0.1015  0.1516
  944TIP3    H124247   5.251   6.656  16.858  1.0537 -0.3727  1.1716
  944TIP3    H224248   5.356   6.562  16.803  0.3746 -0.0744 -0.7148
  945TIP3   OH224249   1.369   5.610   6.923  0.4077  0.1242 -0.0751
  945TIP3    H124250   1.301   5.670   6.953  0.0866 -0.9192  1.4118
  945TIP3    H224251   1.436   5.666   6.884 -0.4957  1.3097  0.0179
  946TIP3   OH224252   0.258   2.715   2.634  0.5341  0.1457  1.2438
  946TIP3    H124253   0.178   2.720   2.582  1.1190  2.2068  0.4459
  946TIP3    H224254   0.227   2.706   2.724 -0.5986  1.0196  0.9612
  947TIP3   OH224255   3.281   5.076  13.804 -0.3174 -0.1203 -0.1340
  947TIP3    H124256   3.354   5.014  13.802 -0.5759 -0.4251 -0.2972
  947TIP3    H224257   3.321   5.159  13.831  0.2611 -0.0411 -1.2020
  948TIP3   OH224258   4.117   5.188   1.525  0.3749 -0.0037 -0.5291
  948TIP3    H124259   4.171   5.186   1.604 -1.1892  0.2509  0.5930
  948TIP3    H224260   4.179   5.173   1.453  1.6572 -1.6170  0.8169
  949TIP3   OH224261   2.943   6.303  14.584 -0.4481  0.1810  0.2680
  949TIP3    H124262   2.861   6.332  14.543  0.3649  3.8092  0.8848
  949TIP3    H224263   2.939   6.339  14.673  0.9687 -1.3135  0.9767
  950TIP3   OH224264   3.300   4.166   5.821  0.1393  0.0779 -0.1770
  950TIP3    H124265   3.208   4.141   5.829 -0.7065  2.8961 -0.0113
  950TIP3    H224266   3.340   4.095   5.771 -2.1714 -1.1113 -0.4566
  951TIP3   OH224267   0.918   0.236   0.614 -0.2778  0.2026  0.1977
  951TIP3    H124268   0.831   0.218   0.650 -0.3648 -0.5613 -0.3748
  951TIP3    H224269   0.901   0.263   0.523  0.1106 -0.4339 -0.0694
  952TIP3   OH224270   2.538   5.588  12.341  0.1106 -0.1861 -0.0637
  952TIP3    H124271   2.594   5.615  12.268  0.0317  0.1830  0.0063
  952TIP3    H224272   2.481   5.521  12.304  1.3145 -1.3535  0.1392
  953TIP3   OH224273   1.502   1.479  11.916  0.1101  0.3954 -0.1744
  953TIP3    H124274   1.581   1.532  11.927  1.2274 -1.3804  0.7940
  953TIP3    H224275   1.480   1.450  12.004 -0.6767 -0.4793 -0.6420
  954TIP3   OH224276   3.062   0.606  12.350  0.0615  0.2430 -0.2539
  954TIP3    H124277   2.968   0.589  12.360 -0.2895  1.0416 -1.9015
  954TIP3    H224278   3.069   0.701  12.348  1.2712  0.3062  2.5265
  955TIP3   OH224279   4.564   3.913  14.988  0.0224  0.0781  0.2081
  955TIP3    H124280   4.658   3.930  14.999 -0.0060 -0.4026  1.3775
  955TIP3    H224281   4.553   3.897  14.895  1.0426  0.5066 -0.0003
  956TIP3   OH224282   4.383   3.677   2.052  0.3309  0.2232  0.2069
  956TIP3    H124283   4.332   3.753   2.025  0.4461  0.1646 -0.1745
  956TIP3    H224284   4.403   3.630   1.971  0.7576  0.1002  0.3793
  957TIP3   OH224285   3.789   5.354   0.958  0.1632 -0.1206  0.7264
  957TIP3    H124286   3.777   5.444   0.988 -0.2270 -0.4214  1.5149
  957TIP3    H224287   3.869   5.325   1.001  1.0520  0.2836 -0.6178
  958TIP3   OH224288   3.666   4.872   0.175 -0.4287  0.1097 -0.2504
  958TIP3    H124289   3.585   4.840   0.215 -1.1214  0.4581 -1.3315
  958TIP3    H224290   3.692   4.803   0.114 -0.9050  0.7695 -1.2192
  959TIP3   OH224291   5.635   2.626   4.940 -0.0835  0.4003 -0.0110
  959TIP3    H124292   5.595   2.556   4.888 -0.3462  1.1016 -0.7820
  959TIP3    H224293   5.725   2.598   4.954 -0.5381 -0.7009  0.8189
  960TIP3   OH224294   2.972   0.017  12.523 -0.0851 -0.4860  0.5437
  960TIP3    H124295   2.990  -0.076  12.510  2.7587  0.2951 -2.3182
  960TIP3    H224296   2.987   0.057  12.437  0.3516  2.8079  1.9959
  961TIP3   OH224297   3.089   6.154  16.302  0.5364 -0.6132  0.0632
  961TIP3    H124298   3.059   6.167  16.212  0.1882  0.0925  0.2712
  961TIP3    H224299   3.054   6.069  16.327 -0.6580 -0.1670  0.0229
  962TIP3   OH224300   2.096   6.711  12.365 -0.1968 -0.1673 -0.1901
  962TIP3    H124301   2.124   6.800  12.384 -1.1461  0.4566 -1.5749
  962TIP3    H224302   2.169   6.672  12.318  1.0234 -0.8124  2.0873
  963TIP3   OH224303   2.077   6.269   0.188 -0.5350  0.0878  0.0279
  963TIP3    H124304   2.013   6.340   0.195 -0.5299  0.1179 -0.2156
  963TIP3    H224305   2.024   6.189   0.196 -1.1344 -0.0148 -3.3208
  964TIP3   OH224306   1.279   0.542  11.495  0.5068 -0.4856  0.4017
  964TIP3    H124307   1.192   0.558  11.533 -1.2054 -0.5726 -3.0760
  964TIP3    H224308   1.262   0.482  11.422  3.7071 -1.3463  0.2342
  965TIP3   OH224309   2.966   6.113  13.288  0.8341 -0.3029  0.2099
  965TIP3    H124310   2.881   6.147  13.262  1.2638  0.8933  0.2757
  965TIP3    H224311   2.994   6.059  13.214  0.4091  0.0187 -0.1913
  966TIP3   OH224312   2.491   4.690   3.035 -0.5204 -0.6827 -0.4523
  966TIP3    H124313   2.549   4.664   2.963 -0.5757 -1.5076 -0.2096
  966TIP3    H224314   2.544   4.750   3.088 -0.3359 -0.4069 -0.9475
  967TIP3   OH224315   1.531   4.214  16.201 -0.5356  0.0713 -0.5048
  967TIP3    H124316   1.445   4.253  16.185 -1.2272 -1.5418 -0.8736
  967TIP3    H224317   1.564   4.190  16.115  0.1700  0.4199 -0.3394
  968TIP3   OH224318   0.520   0.672  11.362  0.2090  0.9292  0.4395
  968TIP3    H124319   0.528   0.577  11.371  0.9710  0.8396 -0.9314
  968TIP3    H224320   0.608   0.705  11.382  0.3575  1.1961 -0.6066
  969TIP3   OH224321   3.296   0.319   0.499  0.4905  0.0775 -0.1490
  969TIP3    H124322   3.250   0.244   0.460  0.6840  0.3015 -0.8191
  969TIP3    H224323   3.281   0.309   0.593 -3.0062  1.4399 -0.4077
  970TIP3   OH224324   5.322   0.848   5.408 -0.2023 -0.2365  0.9712
  970TIP3    H124325   5.262   0.794   5.459 -1.3326  0.2645  0.2228
  970TIP3    H224326   5.313   0.816   5.318  1.5516 -0.9270  0.9916
  971TIP3   OH224327   1.302   3.370   4.883 -0.0968  0.4085  0.0851
  971TIP3    H124328   1.381   3.318   4.870 -1.1722 -1.0810 -0.6899
  971TIP3    H224329   1.281   3.404   4.796 -1.4081 -0.8795 -0.1350
  972TIP3   OH224330   5.498   3.561  14.934  0.1126 -0.1378 -0.3276
  972TIP3    H124331   5.413   3.520  14.927 -0.0826  0.0550  0.6898
  972TIP3    H224332   5.481   3.643  14.982  0.6345  0.6530 -1.4504
  973TIP3   OH224333   5.823   1.144  16.093 -0.1753  0.1519 -0.2459
  973TIP3    H124334   5.766   1.129  16.168  1.7926  0.9615  1.5170
  973TIP3    H224335   5.841   1.238  16.094  0.5509  0.0501 -1.2432
  974TIP3   OH224336   2.352   4.994  11.885  0.4189  0.0116 -0.1826
  974TIP3    H124337   2.281   4.985  11.948 -0.2511  3.6226 -0.1688
  974TIP3    H224338   2.329   4.936  11.813 -1.5793 -0.2984  0.6543
  975TIP3   OH224339   3.692   0.126   0.170 -0.7844 -0.0480  0.6307
  975TIP3    H124340   3.685   0.201   0.229 -0.7876 -0.2160  0.8456
  975TIP3    H224341   3.603   0.113   0.137 -0.5165  0.9879 -0.5961
  976TIP3   OH224342   6.104   2.457   1.250  0.2335 -0.0507  0.5127
  976TIP3    H124343   6.080   2.445   1.342  2.1762 -0.8233  0.9742
  976TIP3    H224344   6.064   2.383   1.204 -0.2472  0.0090  0.8339
  977TIP3   OH224345   0.902   6.409  12.098  0.9537 -0.1736 -0.1127
  977TIP3    H124346   0.970   6.476  12.109 -0.3693  1.1749  0.1335
  977TIP3    H224347   0.913   6.352  12.174  2.1743 -0.3334 -0.3831
  978TIP3   OH224348   3.464   6.469  15.669  1.0712 -0.3964 -0.0341
  978TIP3    H124349   3.482   6.537  15.733  0.5120 -0.8828  0.6517
  978TIP3    H224350   3.432   6.395  15.720 -0.0647 -0.5611 -0.9175
  979TIP3   OH224351   4.801   2.134  16.522 -0.2802 -0.5461  0.5629
  979TIP3    H124352   4.791   2.043  16.552 -0.8555 -0.3167  1.0864
  979TIP3    H224353   4.861   2.128  16.448  1.3909 -1.1028  1.9056
  980TIP3   OH224354   4.997   6.198  11.315  0.1947 -0.7865  0.0404
  980TIP3    H124355   5.009   6.169  11.405  0.9276 -0.3806  0.0812
  980TIP3    H224356   5.076   6.248  11.295  0.2873 -1.3163 -1.0024
  981TIP3   OH224357   0.674   1.310  12.773 -1.1100  0.2545 -0.5497
  981TIP3    H124358   0.707   1.319  12.862 -1.1612 -2.6443 -0.1281
  981TIP3    H224359   0.723   1.236  12.737 -2.1897  0.3639 -2.3833
  982TIP3   OH224360   2.997   3.962  11.304  0.6787 -0.0944 -0.4900
  982TIP3    H124361   2.980   3.919  11.388  0.9535  0.7454  0.0144
  982TIP3    H224362   2.987   3.893  11.239 -0.7607 -0.5010  0.1194
  983TIP3   OH224363   6.236   1.116   4.134  0.0031  0.5736 -0.2705
  983TIP3    H124364   6.259   1.069   4.054 -1.6364 -1.0228  0.1445
  983TIP3    H224365   6.321   1.138   4.173  0.8652  1.8661 -2.6453
  984TIP3   OH224366   1.865   3.304   0.851  0.2404  0.1568  0.9436
  984TIP3    H124367   1.929   3.283   0.783 -0.9506 -0.0218 -0.1427
  984TIP3    H224368   1.803   3.231   0.850 -1.8780  1.8757 -0.3634
  985TIP3   OH224369   4.549   4.564   1.803  0.0621  0.1777 -0.2099
  985TIP3    H124370   4.606   4.640   1.810 -1.2076  1.0171  1.8643
  985TIP3    H224371   4.571   4.526   1.718  6.0262 -1.5413  1.5875
  986TIP3   OH224372   1.964   1.394  11.748  0.1835  0.4028  0.1928
  986TIP3    H124373   2.036   1.444  11.788  0.8287  0.0903 -0.5681
  986TIP3    H224374   1.909   1.461  11.708 -0.5755  0.7446  1.7092
  987TIP3   OH224375   5.403   1.610  12.605 -0.6148  0.0647 -0.1654
  987TIP3    H124376   5.479   1.612  12.547  0.4721 -0.2397  1.2017
  987TIP3    H224377   5.338   1.665  12.561 -0.1694 -0.8850 -2.1007
  988TIP3   OH224378   1.807   4.814  14.858 -0.3609  0.9914  0.3185
  988TIP3    H124379   1.864   4.763  14.800  0.4130  0.9183  1.1261
  988TIP3    H224380   1.758   4.871  14.799 -3.0415 -2.2304 -0.9211
  989TIP3   OH224381   0.001   0.649   0.071 -0.6994 -0.4319 -0.4436
  989TIP3    H124382   0.020   0.599  -0.009 -0.1658 -0.4059 -0.3323
  989TIP3    H224383   0.015   0.587   0.142 -0.7626 -0.3343 -0.3469
  990TIP3   OH224384   5.474   3.034  15.683  0.5938 -0.2918 -0.1721
  990TIP3    H124385   5.477   3.119  15.726  2.5802 -0.5513  0.2873
  990TIP3    H224386   5.420   2.980  15.741  0.1018  0.3894  0.0181
  991TIP3   OH224387   4.852   1.731  13.657  0.2992  0.1118  0.2872
  991TIP3    H124388   4.773   1.760  13.702  1.2836  2.7594  0.4481
  991TIP3    H224389   4.841   1.762  13.567  0.6322 -0.6020 -0.0118
  992TIP3   OH224390   4.622   2.729   4.760 -0.3155  0.0932  0.1155
  992TIP3    H124391   4.616   2.675   4.839 -1.7830 -0.3805 -0.2923
  992TIP3    H224392   4.682   2.682   4.703 -0.9715 -0.7218  0.0768
  993TIP3   OH224393   3.958   6.384  11.405 -0.1799 -0.3248 -0.1316
  993TIP3    H124394   3.919   6.300  11.428 -0.9198  0.0725  0.1133
  993TIP3    H224395   4.029   6.396  11.468 -1.5355  0.2807  1.3505
  994TIP3   OH224396   4.980   6.504   4.445  0.4987  0.3987 -0.1841
  994TIP3    H124397   5.020   6.467   4.523  0.3910  1.7661  0.5395
  994TIP3    H224398   4.990   6.598   4.455 -2.0466  0.7613 -0.4115
  995TIP3   OH224399   5.485   3.350   3.568  0.1133  0.6574  0.6796
  995TIP3    H124400   5.446   3.335   3.654  1.4734 -0.4809  1.1611
  995TIP3    H224401   5.507   3.443   3.567 -1.1239  0.9707  1.0103
  996TIP3   OH224402   2.124   1.930  16.467 -0.0551  0.4357  0.6175
  996TIP3    H124403   2.067   1.854  16.450  0.0674  0.3710  0.4856
  996TIP3    H224404   2.212   1.894  16.463  0.0677  0.8045 -0.7125
  997TIP3   OH224405   5.233   4.868   3.289 -0.0958  0.2848  0.0032
  997TIP3    H124406   5.258   4.828   3.206  1.8357  1.2232  0.0845
  997TIP3    H224407   5.195   4.952   3.265 -0.6289  0.0498  0.0180
  998TIP3   OH224408   4.139   5.522   0.387 -0.1282 -0.0859 -0.1482
  998TIP3    H124409   4.087   5.498   0.463 -0.2016  3.0033  0.9257
  998TIP3    H224410   4.079   5.515   0.313 -0.9736 -0.2013  0.5384
  999TIP3   OH224411   5.599   6.791  11.125  0.3452 -0.3698  0.6867
  999TIP3    H124412   5.647   6.827  11.051 -0.2063  0.7001  0.8283
  999TIP3    H224413   5.637   6.704  11.139  0.2606 -0.7123 -1.0322
 1000TIP3   OH224414   3.472   0.724   4.238  0.2412  0.2665 -0.9215
 1000TIP3    H124415   3.538   0.690   4.177 -0.1838 -0.1859 -1.1290
 1000TIP3    H224416   3.409   0.770   4.182 -1.4012 -2.0626 -1.1473
 1001TIP3   OH224417   6.536   5.609  12.112  0.1541  0.4274  0.3336
 1001TIP3    H124418   6.468   5.543  12.104  1.0156 -0.5853  1.0558
 1001TIP3    H224419   6.617   5.559  12.126  1.2831  1.5262 -1.7261
 1002TIP3   OH224420   5.505   4.284   2.396 -0.5105 -0.0721 -0.6830
 1002TIP3    H124421   5.556   4.270   2.317  0.2743 -0.8932 -0.0542
 1002TIP3    H224422   5.565   4.331   2.454 -0.9068  0.0803 -0.3929
 1003TIP3   OH224423   2.273   2.455   4.149 -0.2756 -0.0135 -0.0127
 1003TIP3    H124424   2.236   2.407   4.223 -0.7517 -0.2964 -0.4247
 1003TIP3    H224425   2.265   2.547   4.174 -2.3654  0.0079 -0.5493
 1004TIP3   OH224426   4.348   2.938   0.080 -0.3526  0.8299 -0.1295
 1004TIP3    H124427   4.254   2.955   0.068 -0.6961 -0.5993  0.3434
 1004TIP3    H224428   4.352   2.846   0.106  1.1645  0.9852  0.2441
 1005TIP3   OH224429   4.939   5.095  16.171 -0.3262  0.2052  0.2206
 1005TIP3    H124430   4.864   5.041  16.147 -0.6139  1.1992 -1.2405
 1005TIP3    H224431   4.901   5.177  16.200  0.1389 -0.0788  1.7260
 1006TIP3   OH224432   1.761   2.851   3.283  0.4148  1.3231  0.9020
 1006TIP3    H124433   1.745   2.783   3.348  1.7097 -0.7537 -0.8173
 1006TIP3    H224434   1.855   2.845   3.264  0.0594  1.7332 -1.2431
 1007TIP3   OH224435   0.415   5.956  11.629  0.4581  0.2747 -0.7401
 1007TIP3    H124436   0.431   5.974  11.537  0.3325  1.6672 -0.5092
 1007TIP3    H224437   0.490   5.904  11.657  1.3155  1.2199 -1.2447
 1008TIP3   OH224438   3.379   2.101   0.690 -0.0723 -0.6642  0.2317
 1008TIP3    H124439   3.311   2.157   0.655 -0.5053 -0.9823  0.5520
 1008TIP3    H224440   3.345   2.012   0.680  0.8111 -0.9162 -0.7189
 1009TIP3   OH224441   5.294   6.551  15.320 -0.0259  0.4886 -0.1001
 1009TIP3    H124442   5.231   6.514  15.259  1.6720 -3.8829  0.4189
 1009TIP3    H224443   5.270   6.514  15.405  1.7399  0.7279  0.5446
 1010TIP3   OH224444   2.791   6.296  13.827 -0.1290  0.2791 -0.4591
 1010TIP3    H124445   2.798   6.368  13.765 -1.1092  0.2317 -0.6405
 1010TIP3    H224446   2.713   6.316  13.879  1.3456  0.9467  1.6188
 1011TIP3   OH224447   5.440   3.871  12.611  0.1246  0.2564 -0.2844
 1011TIP3    H124448   5.372   3.934  12.634  0.4173  0.8860 -1.0786
 1011TIP3    H224449   5.395   3.805  12.559 -0.1154 -0.0057  0.2502
 1012TIP3   OH224450   4.506   4.372  15.004  0.2967  0.4882  0.1905
 1012TIP3    H124451   4.412   4.380  15.016 -0.0628 -3.0710  0.7519
 1012TIP3    H224452   4.541   4.357  15.092  1.2944  0.9782 -0.1064
 1013TIP3   OH224453   2.418   2.656  12.783  0.2583  0.4571  0.1059
 1013TIP3    H124454   2.458   2.695  12.861 -0.4310 -1.6173  1.5711
 1013TIP3    H224455   2.342   2.609  12.816  0.6513 -1.5330 -1.6466
 1014TIP3   OH224456   5.624   1.185   2.044  0.8527  0.9871  0.3071
 1014TIP3    H124457   5.679   1.245   1.993 -0.0200 -0.6150 -2.7525
 1014TIP3    H224458   5.541   1.181   1.996  0.1819 -1.1360  1.4950
 1015TIP3   OH224459   4.723   3.747  17.050 -0.6941  0.4032 -0.1619
 1015TIP3    H124460   4.705   3.833  17.088 -1.1336  0.6782 -0.9744
 1015TIP3    H224461   4.778   3.764  16.974 -2.0015  0.1291 -1.2079
 1016TIP3   OH224462   6.278   2.074   3.632 -0.5744 -0.3486 -0.0212
 1016TIP3    H124463   6.235   2.116   3.706  0.5720 -0.5501  0.7970
 1016TIP3    H224464   6.301   2.146   3.573 -0.4391 -0.0493  0.3919
 1017TIP3   OH224465   0.936   6.572  14.249  0.1189 -0.3483 -0.1510
 1017TIP3    H124466   1.005   6.590  14.186  0.3127  1.3176  0.4988
 1017TIP3    H224467   0.975   6.592  14.334 -1.2767  1.0559  0.1992
 1018TIP3   OH224468   2.932   0.189   4.429  0.0296  0.5800  0.3790
 1018TIP3    H124469   2.993   0.130   4.386  0.4735  0.2866  1.3889
 1018TIP3    H224470   2.845   0.156   4.405  0.2676  0.4926 -0.3638
 1019TIP3   OH224471   1.881   3.384  12.600  0.4608  1.0500  0.4280
 1019TIP3    H124472   1.844   3.317  12.543  2.4499 -0.2577  0.5567
 1019TIP3    H224473   1.892   3.461  12.543  0.3622  0.4881 -0.3653
 1020TIP3   OH224474   0.544   1.957  13.724  0.7661 -0.8832 -0.4101
 1020TIP3    H124475   0.628   1.929  13.760 -0.0507 -0.6983  1.8017
 1020TIP3    H224476   0.534   2.048  13.754 -0.0403 -0.7729 -0.9698
 1021TIP3   OH224477   3.036   3.555  11.290 -0.0857 -0.1553  0.1067
 1021TIP3    H124478   3.073   3.628  11.241  2.3247 -1.0671  0.4370
 1021TIP3    H224479   3.029   3.588  11.380 -1.3891  0.4377 -0.1859
 1022TIP3   OH224480   5.521   3.705  15.848  0.4823 -0.1064 -0.0099
 1022TIP3    H124481   5.586   3.755  15.898  1.3250 -1.7527  0.5970
 1022TIP3    H224482   5.460   3.673  15.914  0.3261 -0.4468 -0.3187
 1023TIP3   OH224483   5.373   0.369   0.630  0.1466  0.1737 -0.1679
 1023TIP3    H124484   5.334   0.373   0.543 -1.2922 -2.6979  0.2336
 1023TIP3    H224485   5.440   0.301   0.624  0.8274  0.7375  0.7072
 1024TIP3   OH224486   6.172   4.912  16.894  0.0792  0.2879 -0.3869
 1024TIP3    H124487   6.168   4.895  16.988 -1.1374  1.1292 -0.2537
 1024TIP3    H224488   6.150   5.005  16.886  2.8531  0.9470 -1.3322
 1025TIP3   OH224489   2.621   6.468  12.128 -0.0129 -0.5657  0.4262
 1025TIP3    H124490   2.685   6.397  12.129 -0.1785 -0.7870 -1.3465
 1025TIP3    H224491   2.671   6.547  12.149  0.8897 -0.7183 -1.0696
 1026TIP3   OH224492   0.450   1.328   3.746 -0.2030  1.0187 -0.2610
 1026TIP3    H124493   0.488   1.355   3.830  0.4403 -0.5165 -0.0251
 1026TIP3    H224494   0.496   1.381   3.681 -0.1857  1.7038  0.3020
 1027TIP3   OH224495   3.294   1.902   4.261 -0.0408  0.0543 -0.0005
 1027TIP3    H124496   3.312   1.959   4.186  1.9390 -1.3330 -0.6796
 1027TIP3    H224497   3.247   1.827   4.223  1.8260 -1.1265 -0.1413
 1028TIP3   OH224498   4.456   5.781  12.340  0.0836 -0.0678 -0.0649
 1028TIP3    H124499   4.534   5.727  12.338 -0.2593 -0.5768  0.1615
 1028TIP3    H224500   4.392   5.735  12.286 -0.5152 -0.3906  0.8805
 1029TIP3   OH224501   1.249   1.981   0.708 -0.0457  0.7045 -0.4264
 1029TIP3    H124502   1.269   2.051   0.646 -2.1399  1.5012 -0.2662
 1029TIP3    H224503   1.169   1.941   0.675 -0.9824  0.8666  1.4800
 1030TIP3   OH224504   5.739   4.002  12.841  0.2810 -0.1141  0.2820
 1030TIP3    H124505   5.686   3.924  12.823  0.6601 -0.2284 -0.4161
 1030TIP3    H224506   5.789   3.980  12.919  0.0122 -0.3722  0.3834
 1031TIP3   OH224507   1.261   0.552  12.678 -0.3794  0.3093 -0.2025
 1031TIP3    H124508   1.341   0.603  12.669  0.8164 -1.3281  0.5443
 1031TIP3    H224509   1.275   0.477  12.620  0.4544 -2.0715  2.8070
 1032TIP3   OH224510   4.098   2.088   2.168  0.5887  0.0471  0.3433
 1032TIP3    H124511   4.180   2.129   2.142  0.0611  1.6283  1.0500
 1032TIP3    H224512   4.037   2.110   2.098  0.4237  0.0117  0.4764
 1033TIP3   OH224513   6.643   1.122   4.098 -0.6557  0.4204  0.5070
 1033TIP3    H124514   6.676   1.036   4.121  0.0820  0.8161  0.9853
 1033TIP3    H224515   6.567   1.105   4.043 -0.8516 -0.5309  1.0558
 1034TIP3   OH224516   4.438   1.784   5.160  0.2382  0.2707  0.0259
 1034TIP3    H124517   4.498   1.718   5.126  0.2262  0.6765 -0.8197
 1034TIP3    H224518   4.433   1.766   5.254 -0.8789 -1.8208 -0.3786
 1035TIP3   OH224519   4.304   5.937  15.296  0.2498  0.3372 -0.7317
 1035TIP3    H124520   4.335   5.967  15.381 -3.4768 -0.8393  1.2873
 1035TIP3    H224521   4.300   5.842  15.303 -0.7133  0.2502 -1.9939
 1036TIP3   OH224522   6.252   3.307  16.312  0.1762  0.2454  0.0290
 1036TIP3    H124523   6.311   3.379  16.332  0.3041  0.0738  0.2796
 1036TIP3    H224524   6.299   3.229  16.342 -0.8040  0.2283  1.6804
 1037TIP3   OH224525   6.560   6.789   5.308  0.3599 -0.4068  0.3638
 1037TIP3    H124526   6.588   6.725   5.243 -0.5421  0.1061 -0.5723
 1037TIP3    H224527   6.466   6.774   5.318  0.5583 -0.7409  1.8720
 1038TIP3   OH224528   1.861   6.194   5.854  0.1448 -0.4761  0.3172
 1038TIP3    H124529   1.769   6.202   5.879  0.3931 -0.6319  1.3336
 1038TIP3    H224530   1.908   6.193   5.937  1.0414 -0.7309 -0.1825
 1039TIP3   OH224531   5.750   2.268  12.039  0.1895 -0.1509  0.3529
 1039TIP3    H124532   5.802   2.346  12.019 -1.1029  0.5063 -0.6689
 1039TIP3    H224533   5.697   2.255  11.960 -0.0665 -1.7023  0.7561
 1040TIP3   OH224534   3.868   2.395   5.403 -0.7322 -0.3299  0.4398
 1040TIP3    H124535   3.817   2.395   5.322 -0.4994  0.6143  0.2811
 1040TIP3    H224536   3.821   2.336   5.461 -1.1270 -0.7024 -0.2485
 1041TIP3   OH224537   2.835   6.364  16.365  0.1833 -0.1095 -0.0400
 1041TIP3    H124538   2.880   6.316  16.296  0.5661  1.8881 -1.2748
 1041TIP3    H224539   2.905   6.409  16.413 -0.0215 -1.9627  2.1191
 1042TIP3   OH224540   6.288   6.172  16.174 -0.0538  0.2212  0.5577
 1042TIP3    H124541   6.236   6.162  16.254  2.2616  0.7582  2.2226
 1042TIP3    H224542   6.291   6.085  16.135  0.4781 -0.4920  2.1654
 1043TIP3   OH224543   3.375   5.327   3.528 -0.9362 -1.0276  0.6234
 1043TIP3    H124544   3.437   5.321   3.600  1.2313  0.6702 -0.9413
 1043TIP3    H224545   3.395   5.252   3.472 -0.7905 -0.8713  0.4669
 1044TIP3   OH224546   3.619   3.619   5.300 -0.0001 -0.0331 -0.0329
 1044TIP3    H124547   3.700   3.657   5.266 -0.6734  1.0950 -0.4401
 1044TIP3    H224548   3.640   3.593   5.390  1.1780 -1.0027 -0.5612
 1045TIP3   OH224549   4.104   5.893  13.677 -0.0660 -0.1705  0.1317
 1045TIP3    H124550   4.126   5.948  13.601 -1.8782  0.4426 -0.0096
 1045TIP3    H224551   4.174   5.829  13.681  1.6777  1.6148 -0.2366
 1046TIP3   OH224552   0.573   6.432   1.934 -0.7737  0.2999 -0.2481
 1046TIP3    H124553   0.501   6.375   1.962 -2.1731  1.2984 -1.5937
 1046TIP3    H224554   0.640   6.372   1.901 -0.4034 -0.7214  2.1574
 1047TIP3   OH224555   0.230   3.290  14.883  0.2015 -0.1457 -0.3413
 1047TIP3    H124556   0.237   3.195  14.876 -0.9884 -0.2851  0.2551
 1047TIP3    H224557   0.311   3.317  14.927  0.3097 -0.9278 -0.0484
 1048TIP3   OH224558   4.964   5.106  17.154  0.1197  0.3388 -0.6876
 1048TIP3    H124559   4.915   5.104  17.072  0.8065  0.9314 -1.1254
 1048TIP3    H224560   4.979   5.199  17.171 -1.1009  0.3025  0.7902
 1049TIP3   OH224561   2.757   0.045  10.456  0.2174  0.1055  0.0058
 1049TIP3    H124562   2.780   0.039  10.364 -2.0079  2.2578 -0.7880
 1049TIP3    H224563   2.789  -0.037  10.494  2.4517 -0.2232 -2.3406
 1050TIP3   OH224564   1.884   2.205   2.661  0.4952 -0.5286  0.0089
 1050TIP3    H124565   1.812   2.180   2.718  0.0103  0.8681  0.0235
 1050TIP3    H224566   1.917   2.287   2.697  1.6222 -0.7718 -0.4246
 1051TIP3   OH224567   0.443   0.904  12.757  0.4022  0.5965 -0.0851
 1051TIP3    H124568   0.532   0.877  12.736  0.0189 -0.9965  0.2445
 1051TIP3    H224569   0.451   0.946  12.843  0.7236 -0.3102  0.3383
 1052TIP3   OH224570   2.831   2.520  11.804 -0.7176 -0.2518 -0.3392
 1052TIP3    H124571   2.910   2.533  11.857  0.2791 -0.6260 -1.6738
 1052TIP3    H224572   2.759   2.548  11.861  0.0555 -2.6416  1.9882
 1053TIP3   OH224573   3.177   2.614   1.026  0.1204 -0.1720  0.2430
 1053TIP3    H124574   3.231   2.692   1.021  1.5654 -1.1610 -0.3806
 1053TIP3    H224575   3.178   2.578   0.937 -0.9518 -0.6251  0.3963
 1054TIP3   OH224576   6.399   6.188  15.438  0.1558 -0.4358 -0.0324
 1054TIP3    H124577   6.458   6.174  15.512  0.2045 -0.8288 -0.1422
 1054TIP3    H224578   6.423   6.121  15.375 -0.8004 -0.9913  0.1699
 1055TIP3   OH224579   4.407   2.815   2.551  0.3304 -0.1983 -0.2055
 1055TIP3    H124580   4.410   2.772   2.465  0.8265 -0.7501  0.0787
 1055TIP3    H224581   4.437   2.748   2.612 -1.4607 -0.3132  0.6208
 1056TIP3   OH224582   6.076   6.725   2.050 -0.3495 -0.4382  0.8829
 1056TIP3    H124583   5.997   6.730   1.996 -0.7362 -0.6122  1.4284
 1056TIP3    H224584   6.090   6.631   2.063 -1.3254 -0.3822  2.6262
 1057TIP3   OH224585   3.992   3.554   5.487  0.0570  0.4446  0.3343
 1057TIP3    H124586   4.081   3.581   5.511  0.0306 -0.4648  1.4726
 1057TIP3    H224587   3.965   3.494   5.555 -1.7000  1.1960  0.3499
 1058TIP3   OH224588   5.230   1.395  15.954  0.0169  0.5360 -0.2388
 1058TIP3    H124589   5.159   1.447  15.991 -0.3987  0.2146 -0.5752
 1058TIP3    H224590   5.186   1.331  15.898  0.3669 -1.1779  1.3458
 1059TIP3   OH224591   2.869   0.158  11.442 -0.5594 -0.1862  0.4015
 1059TIP3    H124592   2.944   0.175  11.386 -1.3729  0.5299 -0.5049
 1059TIP3    H224593   2.824   0.085  11.401 -1.0803  0.2478  0.1923
 1060TIP3   OH224594   4.470   1.228   6.270  0.1359 -0.0547 -0.6094
 1060TIP3    H124595   4.560   1.205   6.291 -0.1531 -2.5934 -1.7808
 1060TIP3    H224596   4.423   1.217   6.352  0.3390 -2.3595 -0.7116
 1061TIP3   OH224597   5.017   6.279   2.682  0.6122  0.0991 -0.1342
 1061TIP3    H124598   4.954   6.321   2.740  0.5903 -0.0304 -0.0633
 1061TIP3    H224599   5.042   6.199   2.727 -0.7032 -0.8861 -1.0614
 1062TIP3   OH224600   4.824   2.368  16.730 -0.3357  0.3365  0.1985
 1062TIP3    H124601   4.846   2.287  16.685  0.8328  0.9944 -0.4624
 1062TIP3    H224602   4.756   2.343  16.792 -0.6700 -0.9529 -0.6484
 1063TIP3   OH224603   2.471   1.175   4.578 -0.0538 -0.3107  0.7561
 1063TIP3    H124604   2.430   1.099   4.619 -2.0162  0.4194  0.2653
 1063TIP3    H224605   2.457   1.246   4.641 -1.2591  0.3604 -0.2231
 1064TIP3   OH224606   2.443   1.929  15.990 -0.1008 -0.0692  0.8055
 1064TIP3    H124607   2.508   1.999  15.999  0.8214 -0.6314 -0.9695
 1064TIP3    H224608   2.407   1.940  15.902 -0.5450 -1.3214  0.8089
 1065TIP3   OH224609   5.766   0.421  16.176  0.0936  0.2087  0.2403
 1065TIP3    H124610   5.783   0.492  16.114 -0.2140  0.5040  0.4858
 1065TIP3    H224611   5.846   0.370  16.178 -0.5813 -1.0760 -2.0266
 1066TIP3   OH224612   2.438   6.689   1.781 -0.7095 -0.0254  0.4297
 1066TIP3    H124613   2.426   6.753   1.851 -0.4072  2.3832 -1.5613
 1066TIP3    H224614   2.399   6.731   1.704 -0.2265 -2.1473 -1.0522
 1067TIP3   OH224615   4.945   0.744  14.550 -0.5564  0.2314  0.4704
 1067TIP3    H124616   4.892   0.709  14.477  0.6482  1.0459 -0.8473
 1067TIP3    H224617   4.996   0.669  14.580 -1.7463 -0.3442  1.1557
 1068TIP3   OH224618   5.527   6.376  12.124  0.4267  0.4411  0.2087
 1068TIP3    H124619   5.556   6.285  12.120 -1.6217 -0.4690  2.8763
 1068TIP3    H224620   5.570   6.410  12.203 -1.9992  0.4392  1.6046
 1069TIP3   OH224621   5.605   4.794   5.147  0.6697  0.5919  0.4734
 1069TIP3    H124622   5.552   4.735   5.201 -0.9001  0.7591 -0.8093
 1069TIP3    H224623   5.590   4.881   5.184  0.7511  0.5342  0.6437
 1070TIP3   OH224624   3.731   4.295  11.845 -0.6220 -0.7064 -0.2160
 1070TIP3    H124625   3.779   4.345  11.779 -0.7524 -0.3209 -0.0246
 1070TIP3    H224626   3.790   4.225  11.870 -0.0521 -0.0883  0.1976
 1071TIP3   OH224627   1.221   0.139  13.290 -0.1698  0.3946  0.2004
 1071TIP3    H124628   1.218   0.067  13.227  0.2096  0.0981  0.5186
 1071TIP3    H224629   1.130   0.168  13.296 -0.8586 -1.8540  2.1155
 1072TIP3   OH224630   3.313   6.220  12.894 -0.1316 -0.2153  0.4879
 1072TIP3    H124631   3.400   6.181  12.899 -0.8315 -1.6643  2.2811
 1072TIP3    H224632   3.282   6.197  12.807  0.5721 -1.2853  0.4975
 1073TIP3   OH224633   1.009   1.531  11.128 -0.0575  0.0392 -0.0031
 1073TIP3    H124634   0.930   1.583  11.115 -0.8386 -1.2887 -0.7273
 1073TIP3    H224635   0.979   1.440  11.127  1.2314 -0.4547  1.5349
 1074TIP3   OH224636   0.413   6.098   1.408 -0.3506  0.3023 -0.4845
 1074TIP3    H124637   0.381   6.175   1.455  3.0477  1.1560  0.6747
 1074TIP3    H224638   0.425   6.128   1.318 -2.3960  0.0029 -0.9197
 1075TIP3   OH224639   6.437   5.831   2.765  0.1251  0.1519 -0.4828
 1075TIP3    H124640   6.479   5.916   2.755  0.4415 -0.0270 -0.6838
 1075TIP3    H224641   6.377   5.842   2.839 -1.1543  1.0853 -1.5972
 1076TIP3   OH224642   0.721   4.507  12.073  0.4442  0.3298  1.0174
 1076TIP3    H124643   0.626   4.518  12.082  0.4089 -0.5455  1.8917
 1076TIP3    H224644   0.753   4.503  12.163  1.5203  2.1532  0.7548
 1077TIP3   OH224645   3.713   5.335  13.778 -0.5299 -0.4801  0.1865
 1077TIP3    H124646   3.668   5.418  13.794 -0.1162 -0.1926 -0.1126
 1077TIP3    H224647   3.717   5.293  13.864 -0.2231  0.0756  0.4511
 1078TIP3   OH224648   4.816   4.998  15.791  0.0014 -0.3495 -0.2639
 1078TIP3    H124649   4.869   4.948  15.854  2.3813  0.2761 -1.6334
 1078TIP3    H224650   4.863   5.081  15.781 -0.4692 -0.2845 -2.5631
 1079TIP3   OH224651   5.675   1.620  15.065 -0.3549 -0.2540  0.1177
 1079TIP3    H124652   5.646   1.529  15.066  1.6189 -0.9201 -0.1070
 1079TIP3    H224653   5.684   1.643  15.158 -1.3576 -0.0868  0.1891
 1080TIP3   OH224654   1.933   1.747  16.356  0.0574 -0.6306 -1.0972
 1080TIP3    H124655   1.858   1.741  16.298  0.0847 -0.8676 -1.1127
 1080TIP3    H224656   1.938   1.660  16.397 -1.7868  0.4152  1.5636
 1081TIP3   OH224657   5.280   1.821  16.907 -0.6254  0.1084 -0.6317
 1081TIP3    H124658   5.278   1.835  17.002 -0.4839 -0.1729 -0.5891
 1081TIP3    H224659   5.202   1.769  16.889 -0.1147 -0.7077 -0.5331
 1082TIP3   OH224660   3.968   3.938  13.397  0.1357 -0.2117 -0.3949
 1082TIP3    H124661   3.904   3.887  13.347 -0.6089 -0.3686  0.6821
 1082TIP3    H224662   4.038   3.957  13.335 -0.9289 -0.0885 -1.5806
 1083TIP3   OH224663   1.928   2.610   1.219  0.3965  0.2412 -0.7258
 1083TIP3    H124664   1.911   2.657   1.138 -2.4659 -0.2427 -0.4957
 1083TIP3    H224665   1.936   2.678   1.286 -1.8389  0.5230 -0.7019
 1084TIP3   OH224666   4.616   1.769   4.760 -0.0925  0.1067 -0.3344
 1084TIP3    H124667   4.704   1.801   4.781  0.4461 -1.8641  0.7085
 1084TIP3    H224668   4.568   1.777   4.843  0.3130 -2.3854  0.2235
 1085TIP3   OH224669   1.963   0.406  13.614 -0.4949  0.3394  0.2680
 1085TIP3    H124670   2.024   0.332  13.616 -0.5985  0.2696  1.4677
 1085TIP3    H224671   1.946   0.425  13.706 -0.8850  1.5241 -0.0358
 1086TIP3   OH224672   5.640   0.991  12.289 -0.0212  0.1569  0.0280
 1086TIP3    H124673   5.714   0.931  12.272 -1.5056 -1.2872 -1.8734
 1086TIP3    H224674   5.587   0.946  12.355 -0.7931 -0.3500 -0.9126
 1087TIP3   OH224675   3.759   0.726   5.688  0.2028 -0.0544  0.1393
 1087TIP3    H124676   3.820   0.775   5.743 -1.1225  2.4678 -0.4828
 1087TIP3    H224677   3.710   0.671   5.750  2.7290 -1.8657  0.6848
 1088TIP3   OH224678   3.941   2.590  11.601 -0.0316 -0.3785  0.5377
 1088TIP3    H124679   4.006   2.645  11.557 -0.3974 -0.0880  0.3529
 1088TIP3    H224680   3.884   2.652  11.646 -1.5159 -0.4633 -1.1261
 1089TIP3   OH224681   2.816   2.725  13.476  0.1091 -0.2859  0.2490
 1089TIP3    H124682   2.775   2.708  13.391 -0.9811  1.3983  0.4023
 1089TIP3    H224683   2.785   2.812  13.501  0.1306 -0.8770  2.5349
 1090TIP3   OH224684   2.468   2.051   5.449 -0.3405 -0.3652  0.0006
 1090TIP3    H124685   2.541   2.112   5.438  0.2355 -1.0756 -0.1696
 1090TIP3    H224686   2.506   1.975   5.493 -0.4282 -1.7215 -2.1138
 1091TIP3   OH224687   4.126   6.272   0.724 -0.9600  0.1861  0.7873
 1091TIP3    H124688   4.143   6.182   0.753  2.0796  0.4145  0.0701
 1091TIP3    H224689   4.145   6.326   0.800  0.3358  0.3725  0.3526
 1092TIP3   OH224690   2.795   6.731  15.226  0.1294  0.4640  0.4518
 1092TIP3    H124691   2.826   6.642  15.246  1.5120  0.5624 -1.0179
 1092TIP3    H224692   2.815   6.742  15.133  0.8644  2.6527  0.8277
 1093TIP3   OH224693   6.592   3.284  12.346 -0.2955 -0.2399  0.2441
 1093TIP3    H124694   6.621   3.246  12.263  1.3862 -0.2784  0.8131
 1093TIP3    H224695   6.567   3.208  12.399  0.0830 -0.3324  0.2943
 1094TIP3   OH224696   2.194   5.404   1.706 -0.4738 -0.0291 -0.0731
 1094TIP3    H124697   2.188   5.443   1.618 -3.0407 -0.5636 -0.2065
 1094TIP3    H224698   2.143   5.324   1.700 -1.5213  0.4116  2.1585
 1095TIP3   OH224699   1.952   1.191  17.087 -0.2200 -0.4066 -0.4527
 1095TIP3    H124700   1.970   1.233  17.003 -3.7975 -1.5108 -1.9562
 1095TIP3    H224701   2.026   1.131  17.101  0.2308 -0.5520 -3.0474
 1096TIP3   OH224702   0.824   3.499  12.011  0.3601  0.3261  0.6415
 1096TIP3    H124703   0.741   3.450  12.013 -0.8435  2.2151  3.5476
 1096TIP3    H224704   0.890   3.436  12.039 -0.0666 -1.1272 -1.3993
 1097TIP3   OH224705   4.125   2.686   1.419 -0.1040  0.0731  0.0424
 1097TIP3    H124706   4.142   2.617   1.356  0.3822  0.1377  0.1009
 1097TIP3    H224707   4.211   2.709   1.454 -0.1364  1.3623 -0.6627
 1098TIP3   OH224708   6.591   1.624  14.875  0.4643  0.4111 -0.0520
 1098TIP3    H124709   6.628   1.712  14.875  1.1691  0.1175 -0.5379
 1098TIP3    H224710   6.641   1.578  14.942 -0.3990  0.5730  0.7287
 1099TIP3   OH224711   0.969   4.899   2.529  0.1857  0.0279 -0.1261
 1099TIP3    H124712   1.017   4.867   2.453  1.4042 -1.3179  1.1667
 1099TIP3    H224713   0.877   4.896   2.501  0.4708 -1.8991 -1.0474
 1100TIP3   OH224714   4.183   6.773  12.362  0.2523  0.1504 -0.2742
 1100TIP3    H124715   4.242   6.848  12.362 -0.4944  0.7504 -0.6064
 1100TIP3    H224716   4.124   6.789  12.288  0.1117 -0.7900 -0.3773
 1101TIP3   OH224717   5.149   6.485   4.675 -0.5764  0.1857 -0.4393
 1101TIP3    H124718   5.178   6.495   4.766 -1.0334  2.3222 -0.4849
 1101TIP3    H224719   5.156   6.391   4.659  0.3877 -0.1436  1.5034
 1102TIP3   OH224720   0.193   6.752  16.353 -0.4752  0.4938 -0.1398
 1102TIP3    H124721   0.149   6.698  16.287  0.4213  1.6486 -1.7539
 1102TIP3    H224722   0.259   6.694  16.390 -1.1330 -0.2405 -0.0889
 1103TIP3   OH224723   4.525   2.819   5.090 -0.3919  0.8848 -0.4282
 1103TIP3    H124724   4.592   2.880   5.059 -0.1087  0.8741  0.1587
 1103TIP3    H224725   4.486   2.784   5.010 -0.4583  1.7227 -0.7697
 1104TIP3   OH224726   5.522   2.647   1.589  0.2706 -0.0356  0.5815
 1104TIP3    H124727   5.575   2.579   1.547 -1.9336 -0.9231 -1.0122
 1104TIP3    H224728   5.447   2.599   1.626 -1.3720  1.4496 -0.6134
 1105TIP3   OH224729   2.560   3.956  13.258 -0.7067  0.2805 -0.1631
 1105TIP3    H124730   2.592   3.873  13.222 -1.0976 -0.0415  0.2187
 1105TIP3    H224731   2.496   3.930  13.324 -0.9306  0.8924 -0.1337
 1106TIP3   OH224732   0.944   2.751   0.815 -0.4745 -0.6165 -0.0302
 1106TIP3    H124733   0.915   2.775   0.903  0.8609  1.2088 -0.0009
 1106TIP3    H224734   1.036   2.778   0.814  0.1999 -2.8014 -1.2377
 1107TIP3   OH224735   4.356   5.586  14.681  0.1470 -0.4065  0.1435
 1107TIP3    H124736   4.365   5.650  14.610  0.6846 -0.2819  0.3168
 1107TIP3    H224737   4.319   5.636  14.754  0.0437 -0.4200  0.0989
 1108TIP3   OH224738   3.153   1.528   1.790  0.4465  0.7995  0.2859
 1108TIP3    H124739   3.123   1.611   1.753  0.6193  1.4456  1.5214
 1108TIP3    H224740   3.094   1.513   1.865  0.6636  0.0049  0.3098
 1109TIP3   OH224741   4.164   5.192  11.095 -0.2298 -0.7154  0.3619
 1109TIP3    H124742   4.212   5.263  11.137  2.0326 -1.9026 -0.0307
 1109TIP3    H224743   4.094   5.236  11.046 -0.8228  0.9434  2.5166
 1110TIP3   OH224744   6.377   6.621  14.546  0.0628  0.5835  0.2479
 1110TIP3    H124745   6.379   6.674  14.467 -1.0850  0.2422 -0.0225
 1110TIP3    H224746   6.433   6.546  14.527  1.8480  1.7431  0.6979
 1111TIP3   OH224747   3.560   3.563  11.992 -0.0917  0.9057 -0.0059
 1111TIP3    H124748   3.626   3.626  11.962  2.1664 -1.0697  0.4703
 1111TIP3    H224749   3.489   3.570  11.927  1.5089  1.6588 -1.7845
 1112TIP3   OH224750   2.845   6.584   5.579 -0.1961  0.3458  0.0897
 1112TIP3    H124751   2.844   6.488   5.578  0.2322  0.3377 -0.7136
 1112TIP3    H224752   2.933   6.607   5.548 -0.0570  0.9998  0.9433
 1113TIP3   OH224753   4.258   6.177  10.890 -0.1119  0.2503  0.0715
 1113TIP3    H124754   4.324   6.109  10.886 -0.5510 -0.2495  0.9768
 1113TIP3    H224755   4.190   6.141  10.947 -0.1697  1.5949  0.8878
 1114TIP3   OH224756   0.066   2.016  13.646  0.0287 -0.6078  0.5501
 1114TIP3    H124757   0.054   1.961  13.723  2.3723 -2.1380 -0.0606
 1114TIP3    H224758   0.107   1.958  13.581 -0.6357  0.9775 -1.4024
 1115TIP3   OH224759   3.241   1.889   0.615 -0.0121  0.0063 -0.4327
 1115TIP3    H124760   3.259   1.796   0.603 -0.2085 -0.3916  1.9390
 1115TIP3    H224761   3.145   1.896   0.613 -0.0177  0.0617 -0.1082
 1116TIP3   OH224762   1.546   5.816   5.365  0.3042  0.0870 -0.1470
 1116TIP3    H124763   1.573   5.827   5.274  0.4901 -1.7515 -0.3613
 1116TIP3    H224764   1.622   5.779   5.409 -0.7565 -2.1991 -0.0508
 1117TIP3   OH224765   0.505   3.430   4.522 -0.0133 -0.1231 -0.2402
 1117TIP3    H124766   0.490   3.347   4.568  1.6233 -0.2475  0.1237
 1117TIP3    H224767   0.589   3.418   4.478 -1.4018  0.0324 -3.2367
 1118TIP3   OH224768   0.512   0.370  17.175  0.2422  0.5327  0.0597
 1118TIP3    H124769   0.455   0.309  17.222 -0.8464  0.6790 -0.9940
 1118TIP3    H224770   0.529   0.441  17.237 -0.5977  0.3972  0.4625
 1119TIP3   OH224771   1.882   3.760  15.631 -0.0428  0.3107  0.1944
 1119TIP3    H124772   1.872   3.725  15.720  1.0969 -2.4857 -0.6720
 1119TIP3    H224773   1.954   3.823  15.638 -0.1695  0.3530  1.2913
 1120TIP3   OH224774   5.731   0.919   2.047  0.9073  0.2602  0.3653
 1120TIP3    H124775   5.670   0.993   2.046 -0.0920 -0.5227 -1.0965
 1120TIP3    H224776   5.791   0.936   1.974  0.4355 -0.5302 -0.2203
 1121TIP3   OH224777   4.224   3.424  15.731 -0.1411  0.2101  0.5623
 1121TIP3    H124778   4.244   3.424  15.637 -0.3268 -0.3591  0.5148
 1121TIP3    H224779   4.278   3.353  15.766 -1.4649 -0.8257  0.5667
 1122TIP3   OH224780   6.116   2.873   4.720  0.0976 -0.4351  0.0872
 1122TIP3    H124781   6.023   2.895   4.709  0.3898  1.1252  0.5418
 1122TIP3    H224782   6.159   2.911   4.643  0.1166 -3.1475 -1.3605
 1123TIP3   OH224783   2.325   1.029   0.504  0.6332  0.0549  0.4723
 1123TIP3    H124784   2.385   1.031   0.429 -0.3674  0.0728 -0.3504
 1123TIP3    H224785   2.246   0.987   0.470  0.1393  0.1138  1.5149
 1124TIP3   OH224786   5.925   1.826   2.746 -0.4402 -0.0313 -0.3940
 1124TIP3    H124787   5.925   1.883   2.670 -0.8746 -0.6475 -0.8720
 1124TIP3    H224788   5.837   1.836   2.783 -0.6499 -0.6680 -0.7043
 1125TIP3   OH224789   4.675   0.891  11.077  0.6331  0.2408 -0.0564
 1125TIP3    H124790   4.587   0.855  11.073  0.3990  0.7467  0.3650
 1125TIP3    H224791   4.665   0.982  11.049  1.0378  0.2744 -0.1007
 1126TIP3   OH224792   4.605   5.436  16.121  0.5826  0.6447 -0.4310
 1126TIP3    H124793   4.546   5.386  16.177  2.5402  0.5453  1.6722
 1126TIP3    H224794   4.631   5.375  16.052 -1.3661  0.5713 -1.1501
 1127TIP3   OH224795   4.009   5.342  12.602  0.1996 -0.4399  0.2887
 1127TIP3    H124796   4.023   5.276  12.535 -0.8971 -0.0559 -0.3477
 1127TIP3    H224797   4.097   5.377  12.620  0.5747 -0.9097 -0.5664
 1128TIP3   OH224798   0.718   2.534  11.099 -0.1552 -0.0098 -0.4738
 1128TIP3    H124799   0.655   2.510  11.166  1.8136 -0.9512  1.1518
 1128TIP3    H224800   0.803   2.511  11.136  1.2404  1.8161 -2.2703
 1129TIP3   OH224801   1.253   4.790  13.934 -0.2791 -0.3460  0.2524
 1129TIP3    H124802   1.335   4.765  13.976  0.4906 -0.7213 -1.3822
 1129TIP3    H224803   1.187   4.734  13.974 -0.1176  1.1510  2.8592
 1130TIP3   OH224804   4.081   2.452   1.229 -0.5058 -0.3842  0.0139
 1130TIP3    H124805   4.072   2.473   1.136  0.7468  1.8417  0.3129
 1130TIP3    H224806   4.132   2.371   1.230 -0.4873 -0.4108 -1.2453
 1131TIP3   OH224807   1.277   1.752   1.059 -0.1853  0.0912  0.3099
 1131TIP3    H124808   1.194   1.711   1.083 -0.4244 -0.2030 -0.9494
 1131TIP3    H224809   1.269   1.843   1.087 -0.7337 -0.0567  0.6381
 1132TIP3   OH224810   5.059   0.841  14.871  0.5378 -0.9540  0.3130
 1132TIP3    H124811   5.090   0.839  14.962  2.7630  1.9832 -0.2291
 1132TIP3    H224812   5.138   0.848  14.818 -0.7569  1.3683 -1.5430
 1133TIP3   OH224813   5.989   1.907   4.287  0.1332  0.4191 -0.1637
 1133TIP3    H124814   6.047   1.982   4.283 -0.8198  1.3301  1.6645
 1133TIP3    H224815   5.942   1.917   4.370 -1.0627 -1.4307 -0.5411
 1134TIP3   OH224816   4.401   3.581   4.360 -0.1818 -0.4950 -1.1191
 1134TIP3    H124817   4.473   3.519   4.344 -0.7882 -1.9177  1.0791
 1134TIP3    H224818   4.429   3.630   4.437 -1.7071 -1.4603  0.1325
 1135TIP3   OH224819   3.315   6.219   4.616  0.3457  0.0664 -0.4622
 1135TIP3    H124820   3.219   6.210   4.615  0.2776  0.5207  0.9746
 1135TIP3    H224821   3.337   6.237   4.524 -0.9066 -0.3295 -0.8748
 1136TIP3   OH224822   6.587   3.614   3.932  0.2838 -0.4686  0.2713
 1136TIP3    H124823   6.590   3.706   3.908 -1.1704 -0.1134  1.3002
 1136TIP3    H224824   6.658   3.603   3.995 -0.5261  0.3699  1.3720
 1137TIP3   OH224825   1.710   6.102   5.360 -0.1558  0.0193  0.0727
 1137TIP3    H124826   1.630   6.067   5.399 -1.7772  2.9979 -0.3355
 1137TIP3    H224827   1.767   6.122   5.434  0.0372 -1.5138  0.3909
 1138TIP3   OH224828   6.440   3.009  12.921 -0.7077  0.3241 -0.2918
 1138TIP3    H124829   6.382   2.936  12.899 -0.3436 -0.1844  0.3925
 1138TIP3    H224830   6.401   3.049  12.999  0.0466 -0.2567  0.4011
 1139TIP3   OH224831   2.246   4.004  15.013  0.0416  0.0348 -0.2178
 1139TIP3    H124832   2.305   3.932  15.036  0.7345  0.7361  0.2274
 1139TIP3    H224833   2.187   3.966  14.947  0.0351 -1.0923  0.4116
 1140TIP3   OH224834   4.086   1.712   3.579  0.6194 -0.1930  0.2639
 1140TIP3    H124835   4.167   1.762   3.566  1.6740 -2.0656 -0.9632
 1140TIP3    H224836   4.016   1.776   3.572  1.9538  1.3773  0.6362
 1141TIP3   OH224837   2.721   3.438   0.885 -0.6652  0.0092  0.6486
 1141TIP3    H124838   2.641   3.419   0.934  0.2692 -1.2099  1.7938
 1141TIP3    H224839   2.789   3.442   0.952  0.3941  0.0026 -0.4021
 1142TIP3   OH224840   4.057   5.689  12.151  0.4030 -0.3729 -0.3680
 1142TIP3    H124841   4.060   5.783  12.173 -0.4970 -0.5646  0.6856
 1142TIP3    H224842   4.023   5.647  12.230 -3.4225 -1.0835 -2.1399
 1143TIP3   OH224843   4.140   5.131   0.927  0.2281 -0.5012  0.0655
 1143TIP3    H124844   4.085   5.112   0.851 -0.7059 -1.3165  0.9309
 1143TIP3    H224845   4.212   5.184   0.891 -0.4020 -0.5333 -1.3094
 1144TIP3   OH224846   2.894   1.237  11.604 -0.3691  0.2078 -0.2825
 1144TIP3    H124847   2.962   1.291  11.564 -0.3636  1.6606  1.5517
 1144TIP3    H224848   2.833   1.219  11.532  0.5969  1.0737 -1.3644
 1145TIP3   OH224849   2.733   3.381   5.681 -0.0428 -0.0902  0.5680
 1145TIP3    H124850   2.722   3.434   5.601  1.7431 -2.8212 -1.6922
 1145TIP3    H224851   2.826   3.387   5.701 -0.6448  1.6766  3.4871
 1146TIP3   OH224852   1.710   1.215  14.032  0.2804 -0.9104 -0.4278
 1146TIP3    H124853   1.708   1.294  14.085  1.4706  0.0633 -1.7397
 1146TIP3    H224854   1.760   1.152  14.083  0.3491 -0.4108  0.1225
 1147TIP3   OH224855   2.871   4.398  13.641 -0.3322 -0.1487  0.0296
 1147TIP3    H124856   2.912   4.416  13.557  0.7901  0.5284  0.6916
 1147TIP3    H224857   2.924   4.327  13.679 -0.0162  0.4255  0.6968
 1148TIP3   OH224858   5.053   2.401  14.922  0.4253 -0.3368 -0.6222
 1148TIP3    H124859   5.045   2.473  14.984  1.8200 -0.6252 -0.0694
 1148TIP3    H224860   4.967   2.395  14.880 -1.8411 -2.2788  3.6519
 1149TIP3   OH224861   5.863   4.121  14.911  0.4172 -0.5847  0.4355
 1149TIP3    H124862   5.851   4.159  14.824 -0.8926 -0.9367  0.4500
 1149TIP3    H224863   5.946   4.158  14.942 -0.5210  1.8385  0.2328
 1150TIP3   OH224864   3.113   4.689  12.536  0.4950 -0.0722 -0.2462
 1150TIP3    H124865   3.093   4.681  12.629 -0.0809 -2.2308 -0.4967
 1150TIP3    H224866   3.028   4.697  12.493  0.7138  0.1583 -0.6441
 1151TIP3   OH224867   6.717   3.622  11.559  0.0199  0.5755  0.7739
 1151TIP3    H124868   6.788   3.651  11.616  1.2513  1.0568 -0.9262
 1151TIP3    H224869   6.744   3.648  11.471 -0.2891 -2.8829 -0.5241
 1152TIP3   OH224870   4.532   2.516   5.442  0.7067  0.0377  0.1925
 1152TIP3    H124871   4.585   2.522   5.363 -0.1649  0.2428 -0.3834
 1152TIP3    H224872   4.466   2.584   5.433 -0.7331 -1.3146  0.0627
 1153TIP3   OH224873   0.521   0.760   4.862 -0.4022 -0.1836  0.1722
 1153TIP3    H124874   0.592   0.794   4.807 -1.2231 -0.5061 -1.1452
 1153TIP3    H224875   0.495   0.679   4.820 -2.5594  0.6808 -0.2938
 1154TIP3   OH224876   4.618   6.551  13.960  0.0972  0.5807 -0.0507
 1154TIP3    H124877   4.669   6.616  13.913  0.8648 -1.7878 -2.7544
 1154TIP3    H224878   4.681   6.485  13.988 -1.1439 -1.4981 -1.8555
 1155TIP3   OH224879   1.551   4.448   2.155 -0.3120 -0.4465  0.3029
 1155TIP3    H124880   1.617   4.498   2.202  0.0606 -1.9582  1.4936
 1155TIP3    H224881   1.601   4.393   2.094 -0.4527 -1.4352  1.0507
 1156TIP3   OH224882   4.961   2.049   2.076  0.0734 -0.1217 -0.4339
 1156TIP3    H124883   5.014   2.126   2.096 -2.3120  1.1172  1.8145
 1156TIP3    H224884   4.990   1.983   2.140  0.5648 -0.3118 -0.8484
 1157TIP3   OH224885   4.171   2.190   1.337 -0.2588  0.4517  0.1865
 1157TIP3    H124886   4.133   2.157   1.256 -0.8968  0.1512  0.5979
 1157TIP3    H224887   4.178   2.113   1.393  0.9806  0.5001  0.1202
 1158TIP3   OH224888   6.389   2.961  15.957 -0.2397 -0.2288  0.1418
 1158TIP3    H124889   6.453   3.014  15.910  0.8648 -0.4967  1.2903
 1158TIP3    H224890   6.415   2.871  15.940 -0.9879 -0.3709 -0.2779
 1159TIP3   OH224891   2.942   5.514  10.541 -0.4540  0.1394  0.1800
 1159TIP3    H124892   3.023   5.514  10.592 -0.2486  0.9016 -0.1334
 1159TIP3    H224893   2.886   5.449  10.585  0.4697 -0.7005  0.1533
 1160TIP3   OH224894   0.574   5.578   1.920  0.1952 -0.0563  0.2942
 1160TIP3    H124895   0.542   5.644   1.982 -0.8484  1.7916 -2.0332
 1160TIP3    H224896   0.536   5.496   1.951 -1.4664  1.0238  1.3097
 1161TIP3   OH224897   0.732   4.941  15.896 -0.1572  0.0198 -0.1959
 1161TIP3    H124898   0.782   4.989  15.831 -1.2293  2.0014  0.3433
 1161TIP3    H224899   0.698   4.864  15.850  1.3732 -0.0928 -1.1811
 1162TIP3   OH224900   1.877   6.104   0.693 -0.1687  0.0107 -0.1261
 1162TIP3    H124901   1.791   6.126   0.655  0.7516  3.0927 -0.7258
 1162TIP3    H224902   1.927   6.068   0.620 -0.5514 -0.6735 -0.0621
 1163TIP3   OH224903   5.020   3.893   4.464  0.4232 -0.3158  0.1987
 1163TIP3    H124904   5.090   3.946   4.502  0.7186 -0.3696 -0.2650
 1163TIP3    H224905   5.020   3.915   4.371 -1.7354  1.4523  0.5422
 1164TIP3   OH224906   4.728   2.742   3.194 -0.3692  0.3273  0.0914
 1164TIP3    H124907   4.674   2.738   3.115  2.0075 -0.4068 -1.6245
 1164TIP3    H224908   4.732   2.835   3.215 -0.6020  0.6071 -1.0139
 1165TIP3   OH224909   5.170   6.271   2.206 -0.4047 -0.0745 -0.0337
 1165TIP3    H124910   5.222   6.298   2.282 -0.6236 -0.0991  0.1254
 1165TIP3    H224911   5.079   6.279   2.235 -0.5572  1.7753 -0.9294
 1166TIP3   OH224912   1.131   0.054  16.667  0.0452  0.4764  0.0555
 1166TIP3    H124913   1.167   0.141  16.682  0.4558  0.4335 -0.6409
 1166TIP3    H224914   1.174  -0.001  16.733  1.4670  0.3800 -0.8981
 1167TIP3   OH224915   6.176   4.740  13.505  0.8505  0.5315  0.1731
 1167TIP3    H124916   6.159   4.646  13.501  1.7394  0.3343  0.8795
 1167TIP3    H224917   6.144   4.767  13.591  2.1682  0.5315  0.6890
 1168TIP3   OH224918   5.385   5.668   0.287 -0.1648 -0.0380 -0.2872
 1168TIP3    H124919   5.369   5.628   0.372  3.7045  0.1728  0.7377
 1168TIP3    H224920   5.362   5.760   0.299  0.9656  0.1315  0.8140
 1169TIP3   OH224921   4.529   1.485   3.172 -0.0206  0.2526 -0.2123
 1169TIP3    H124922   4.570   1.424   3.111 -1.3597 -2.7696  1.6610
 1169TIP3    H224923   4.438   1.490   3.143  0.3289  2.6456 -1.1686
 1170TIP3   OH224924   3.660   1.088  16.579  0.1810 -0.7265  0.8084
 1170TIP3    H124925   3.687   1.106  16.669 -1.4924 -3.0352  1.8957
 1170TIP3    H224926   3.567   1.065  16.587  0.7009 -4.0634 -0.9422
 1171TIP3   OH224927   2.870   2.923   6.289 -0.0583  0.1970  0.4002
 1171TIP3    H124928   2.868   2.829   6.305 -0.0602  0.1636  0.2132
 1171TIP3    H224929   2.959   2.939   6.255 -0.5737 -0.0089 -1.1466
 1172TIP3   OH224930   0.825   4.702  11.910 -0.6620  0.1979  0.8123
 1172TIP3    H124931   0.804   4.638  11.979 -1.1447  0.9090  1.3393
 1172TIP3    H224932   0.808   4.787  11.951 -1.4436  0.6123 -0.3453
 1173TIP3   OH224933   2.430   0.720   0.378 -0.1687 -0.1592 -0.0505
 1173TIP3    H124934   2.482   0.728   0.458  1.6365 -1.3010 -1.0340
 1173TIP3    H224935   2.447   0.801   0.329  0.9331 -0.6339 -0.4785
 1174TIP3   OH224936   3.867   1.603  13.607 -0.5153  0.1812  0.1949
 1174TIP3    H124937   3.939   1.666  13.604 -0.1673 -0.1045  1.7492
 1174TIP3    H224938   3.798   1.643  13.553 -0.3395  1.9693  1.2061
 1175TIP3   OH224939   2.775   0.087   3.685  0.3310  0.6778 -0.2025
 1175TIP3    H124940   2.807   0.171   3.652 -0.3330  0.6900 -0.8471
 1175TIP3    H224941   2.727   0.110   3.765  0.2833  0.8961 -0.2919
 1176TIP3   OH224942   6.223   5.275  16.002  0.0473 -1.0020 -0.0696
 1176TIP3    H124943   6.175   5.356  15.983 -1.2725 -0.9098  3.0909
 1176TIP3    H224944   6.288   5.300  16.067  0.3056 -2.3000  0.1982
 1177TIP3   OH224945   1.178   1.650   1.398 -0.0233 -0.2186 -0.0451
 1177TIP3    H124946   1.119   1.611   1.334 -2.1521 -1.4623  2.5114
 1177TIP3    H224947   1.153   1.742   1.402 -2.7126 -0.9352  1.7914
 1178TIP3   OH224948   2.987   1.292   0.780 -0.4480  0.4179  0.4152
 1178TIP3    H124949   3.018   1.243   0.857  0.5139 -0.8525 -0.7343
 1178TIP3    H224950   3.062   1.294   0.721 -2.0886 -1.6297 -1.9503
 1179TIP3   OH224951   0.864   3.847   1.677 -0.0468  0.8717 -0.0249
 1179TIP3    H124952   0.816   3.774   1.639  0.5034 -0.4607  1.6882
 1179TIP3    H224953   0.796   3.906   1.711 -0.4914  0.7200 -0.6423
 1180TIP3   OH224954   0.245   3.681  14.152 -0.2698 -0.1669 -0.1587
 1180TIP3    H124955   0.204   3.685  14.065  2.3272 -0.5276 -1.4713
 1180TIP3    H224956   0.218   3.597  14.188  0.4083 -1.0292 -1.5925
 1181TIP3   OH224957   4.771   3.619   4.937 -0.1516  0.4917 -0.2400
 1181TIP3    H124958   4.752   3.573   4.855 -0.7026  1.2611 -0.5618
 1181TIP3    H224959   4.745   3.558   5.005  0.7454 -0.3356 -0.6228
 1182TIP3   OH224960   3.275   3.692  16.194  0.6161 -0.3416 -0.4087
 1182TIP3    H124961   3.252   3.651  16.278 -1.1990  0.3693 -0.5125
 1182TIP3    H224962   3.307   3.620  16.140  2.7878 -0.6555  1.1958
 1183TIP3   OH224963   4.371   1.488   1.459 -0.2083  0.3179  0.0352
 1183TIP3    H124964   4.371   1.501   1.365 -1.4560  0.8526  0.0957
 1183TIP3    H224965   4.333   1.402   1.472 -0.5474  0.4715  0.0709
 1184TIP3   OH224966   1.555   2.511   5.999 -0.3217  0.3824  0.0042
 1184TIP3    H124967   1.570   2.482   6.089 -0.0513 -0.1788 -0.2165
 1184TIP3    H224968   1.641   2.541   5.968 -0.3543  0.3115 -0.1579
 1185TIP3   OH224969   4.852   4.461  15.379 -0.1517 -0.7311 -0.1226
 1185TIP3    H124970   4.910   4.537  15.378 -0.9076 -0.1428 -0.5231
 1185TIP3    H224971   4.908   4.387  15.355  1.0711 -0.6889  2.3143
 1186TIP3   OH224972   0.337   6.014   2.004  0.1043 -0.2615 -0.1597
 1186TIP3    H124973   0.286   5.979   2.077  1.9461 -1.6547  0.5222
 1186TIP3    H224974   0.415   6.051   2.045  0.3346  0.5779 -1.3026
 1187TIP3   OH224975   1.075   5.665  11.522 -0.3484  0.0127 -0.2238
 1187TIP3    H124976   0.983   5.638  11.527  0.0630 -1.2897  0.6365
 1187TIP3    H224977   1.096   5.692  11.611  0.5490 -1.2412 -0.0348
 1188TIP3   OH224978   6.760   1.485   1.023  0.2415 -0.4198  0.0094
 1188TIP3    H124979   6.765   1.568   1.071  0.5654 -0.8543  0.7541
 1188TIP3    H224980   6.666   1.469   1.015  0.1370  0.7625 -1.5030
 1189TIP3   OH224981   6.600   0.103   2.536 -0.6130  0.6777  0.0729
 1189TIP3    H124982   6.602   0.011   2.511 -1.2836  0.7448 -0.2237
 1189TIP3    H224983   6.655   0.147   2.471  1.8179  0.1767  1.6207
 1190TIP3   OH224984   3.367   0.684   0.555  0.4767  0.5006 -0.2754
 1190TIP3    H124985   3.408   0.599   0.536  0.8501  0.7460 -0.6129
 1190TIP3    H224986   3.273   0.667   0.551  0.4776  0.5930 -2.9061
 1191TIP3   OH224987   4.193   1.111  14.318 -0.4750  0.6649 -0.2970
 1191TIP3    H124988   4.203   1.049  14.390 -2.3596  0.0969 -0.4792
 1191TIP3    H224989   4.108   1.090  14.279 -0.3036  2.1244 -1.5703
 1192TIP3   OH224990   3.233   1.830  15.052  0.0358 -0.1795 -0.3566
 1192TIP3    H124991   3.207   1.873  15.133  0.1873 -0.8806  0.0745
 1192TIP3    H224992   3.203   1.888  14.982 -0.2683  0.3325  0.1998
 1193TIP3   OH224993   3.415   2.589   4.226 -0.1632 -0.2021 -0.0798
 1193TIP3    H124994   3.427   2.595   4.132  0.5347 -0.3174 -0.0039
 1193TIP3    H224995   3.466   2.663   4.261 -0.6016 -0.0240  0.1914
 1194TIP3   OH224996   0.903   3.844   5.154  0.4623  0.4299 -0.2869
 1194TIP3    H124997   0.817   3.840   5.196  0.1348  2.5060 -0.6483
 1194TIP3    H224998   0.963   3.865   5.226  0.3687  0.8806 -0.3368
 1195TIP3   OH224999   1.584   1.076  16.300 -0.0542 -0.2976  0.0042
 1195TIP3    H125000   1.489   1.074  16.308 -0.1915  0.7978 -1.1670
 1195TIP3    H225001   1.602   1.040  16.213  0.6027 -0.4472  0.1959
 1196TIP3   OH225002   3.717   5.814   5.131  0.3114 -0.4130  0.1095
 1196TIP3    H125003   3.728   5.766   5.049  0.4686 -0.8386  0.3754
 1196TIP3    H225004   3.776   5.770   5.192  0.5290  0.1820  0.3320
 1197TIP3   OH225005   4.381   4.100  14.944  0.0992  0.2099  0.0203
 1197TIP3    H125006   4.456   4.054  14.984 -1.1172 -0.6757  1.3957
 1197TIP3    H225007   4.370   4.178  14.998 -0.9989 -0.5342  0.9081
 1198TIP3   OH225008   0.687   3.552   4.149 -0.1699 -0.2490 -0.4704
 1198TIP3    H125009   0.733   3.506   4.079  0.4161  1.1704 -1.0649
 1198TIP3    H225010   0.675   3.641   4.115 -0.8079  0.1804  0.8258
 1199TIP3   OH225011   5.756   5.321   1.397  0.1270 -0.0249 -0.4031
 1199TIP3    H125012   5.741   5.415   1.402  1.6602  0.1785  1.6162
 1199TIP3    H225013   5.674   5.282   1.428  0.3959  0.7595  1.4272
 1200TIP3   OH225014   2.529   0.873   1.926  0.5206  0.2741  0.2902
 1200TIP3    H125015   2.470   0.935   1.969 -1.2842 -1.1748  0.0305
 1200TIP3    H225016   2.571   0.826   1.999  0.4391  0.4866  0.4764
 1201TIP3   OH225017   2.273   4.564   6.583 -0.6076 -0.2679  0.1555
 1201TIP3    H125018   2.209   4.634   6.596 -1.9687 -0.8372 -2.6708
 1201TIP3    H225019   2.358   4.607   6.590 -1.4016  1.6387 -1.1388
 1202TIP3   OH225020   0.305   1.040  15.131  0.0423 -0.2025 -0.5806
 1202TIP3    H125021   0.329   0.958  15.087 -1.2001 -0.3317 -1.0756
 1202TIP3    H225022   0.240   1.014  15.196 -0.7227  0.4375 -1.0689
 1203TIP3   OH225023   1.323   1.788   2.959  0.4663  0.0668 -0.5222
 1203TIP3    H125024   1.393   1.853   2.967 -1.5339  2.2725  0.3177
 1203TIP3    H225025   1.315   1.750   3.047  0.8403 -0.4604 -0.7122
 1204TIP3   OH225026   1.364   4.482   3.327 -0.0518  0.0402 -0.1600
 1204TIP3    H125027   1.301   4.501   3.396 -0.6530  1.2253 -1.0034
 1204TIP3    H225028   1.317   4.423   3.268  0.2595 -0.5035  0.1301
 1205TIP3   OH225029   6.762   0.323  14.228 -0.6002  0.0079 -0.5791
 1205TIP3    H125030   6.738   0.236  14.258  1.4703 -0.7442 -0.9516
 1205TIP3    H225031   6.763   0.376  14.308 -1.0441 -0.5051 -0.2272
 1206TIP3   OH225032   0.733   5.645   0.078 -0.6506 -0.0185  0.1194
 1206TIP3    H125033   0.675   5.573   0.053 -2.0824  0.8181  0.8994
 1206TIP3    H225034   0.674   5.713   0.110  0.7644  0.9561  0.7492
 1207TIP3   OH225035   3.918   3.654   4.841 -0.2260  0.5659 -0.4839
 1207TIP3    H125036   3.833   3.693   4.823  0.3703  2.3718  0.3219
 1207TIP3    H225037   3.981   3.715   4.803  0.7756  0.9730  1.6471
 1208TIP3   OH225038   5.744   4.034   3.067  0.1765  0.1183  0.2171
 1208TIP3    H125039   5.742   4.002   3.157  1.4341 -1.1894 -0.1719
 1208TIP3    H225040   5.837   4.050   3.049 -0.0782  0.5701 -0.7746
 1209TIP3   OH225041   6.652   6.031  14.018 -0.2507  0.0371  0.5606
 1209TIP3    H125042   6.696   6.055  13.937 -0.8099 -0.0343  0.2339
 1209TIP3    H225043   6.711   5.968  14.060 -0.1201 -0.1816  0.0493
 1210TIP3   OH225044   2.111   6.031   5.527 -0.4122 -0.5695 -0.5954
 1210TIP3    H125045   2.022   6.030   5.561 -0.1511 -1.2233  0.1088
 1210TIP3    H225046   2.163   5.986   5.594  0.7888  1.4710 -0.0707
 1211TIP3   OH225047   1.556   2.577  13.485 -0.5617 -0.3754  0.8746
 1211TIP3    H125048   1.589   2.510  13.426 -0.8878  0.2432 -0.0307
 1211TIP3    H225049   1.598   2.558  13.569  0.5151 -0.8110  0.2562
 1212TIP3   OH225050   1.143   1.118   2.031 -0.0935  0.1646 -0.2244
 1212TIP3    H125051   1.103   1.091   1.948  0.0219  0.0379 -0.2398
 1212TIP3    H225052   1.168   1.209   2.017 -0.5725  0.3131 -0.1392
 1213TIP3   OH225053   4.731   4.012  13.879 -0.0635  0.2007 -0.0306
 1213TIP3    H125054   4.755   4.082  13.819  0.1667 -1.4282 -1.9633
 1213TIP3    H225055   4.812   3.964  13.894 -0.1347  0.5311  1.5874
 1214TIP3   OH225056   0.106   1.636  15.387  0.5234  0.3883  0.1637
 1214TIP3    H125057   0.015   1.662  15.395 -0.1363 -1.4843 -0.7437
 1214TIP3    H225058   0.152   1.717  15.366 -1.4403  0.8872 -2.8182
 1215TIP3   OH225059   2.005   6.602   1.196  0.1053  0.6510  0.1554
 1215TIP3    H125060   2.060   6.524   1.205 -0.5699 -0.1358 -1.8595
 1215TIP3    H225061   1.935   6.589   1.261 -0.1683 -0.6180 -0.3553
 1216TIP3   OH225062   2.706   3.081  16.510 -0.4469  0.8261 -0.3860
 1216TIP3    H125063   2.676   3.025  16.581 -0.6165 -1.2422 -1.9905
 1216TIP3    H225064   2.795   3.107  16.536 -0.5541  0.2188  0.6226
 1217TIP3   OH225065   0.257   5.499   4.201 -0.1376  0.3480 -0.4514
 1217TIP3    H125066   0.177   5.552   4.198 -1.2701 -1.3138 -1.3321
 1217TIP3    H225067   0.228   5.411   4.180  1.5034 -0.8819  2.0102
 1218TIP3   OH225068   5.654   6.567  10.545  0.1282  0.0126 -0.1345
 1218TIP3    H125069   5.645   6.617  10.464  0.7569 -0.3731 -0.4498
 1218TIP3    H225070   5.644   6.476  10.519  1.5946 -0.2087 -0.0027
 1219TIP3   OH225071   5.110   0.389  16.690  0.3511 -0.4723 -0.3069
 1219TIP3    H125072   5.075   0.458  16.634  3.2301  0.7093 -0.7952
 1219TIP3    H225073   5.189   0.359  16.645  0.7221 -2.0911  1.3168
 1220TIP3   OH225074   1.761   1.472   3.297  0.3494  0.0315 -0.0538
 1220TIP3    H125075   1.748   1.501   3.388 -1.8166 -1.7021  0.2735
 1220TIP3    H225076   1.813   1.392   3.305 -1.3309 -1.1204 -0.1196
 1221TIP3   OH225077   5.694   2.580   2.185  0.1444  0.6187 -0.0598
 1221TIP3    H125078   5.760   2.575   2.254  0.4051  2.9499 -0.0472
 1221TIP3    H225079   5.743   2.571   2.103  0.4710  1.9291 -0.0355
 1222TIP3   OH225080   0.837   4.212   0.273 -0.4300  0.7757 -0.1787
 1222TIP3    H125081   0.850   4.129   0.228  0.9237  1.6063 -1.3967
 1222TIP3    H225082   0.924   4.233   0.309 -0.6909  1.7747 -0.1088
 1223TIP3   OH225083   4.506   4.624  10.822  0.0686  0.0715  0.4026
 1223TIP3    H125084   4.455   4.547  10.796  1.9631 -0.5744 -1.7018
 1223TIP3    H225085   4.478   4.693  10.762 -1.5874  1.1088  2.2496
 1224TIP3   OH225086   5.771   0.084  14.083 -1.2386  0.1147 -0.5865
 1224TIP3    H125087   5.740   0.173  14.064  1.2559  0.9740 -1.1154
 1224TIP3    H225088   5.769   0.040  13.998  0.8297  0.8642 -1.0878
 1225TIP3   OH225089   4.023   2.178  12.712 -0.3548  0.0210 -0.0189
 1225TIP3    H125090   4.023   2.137  12.798 -0.1599  0.1513  0.0436
 1225TIP3    H225091   3.993   2.109  12.652  0.4248 -0.3539  0.0174
 1226TIP3   OH225092   4.694   1.349  13.856 -0.1822  0.0408  0.1569
 1226TIP3    H125093   4.602   1.370  13.838  0.0977  1.1814 -0.0348
 1226TIP3    H225094   4.695   1.323  13.948 -0.7935 -0.6664 -0.0232
 1227TIP3   OH225095   2.300   1.836  11.082 -0.1692  0.7995  0.2080
 1227TIP3    H125096   2.293   1.748  11.045  1.5070  1.1555 -1.0587
 1227TIP3    H225097   2.386   1.838  11.124 -0.8393  1.3558  1.6121
 1228TIP3   OH225098   3.622   0.976   4.806 -0.5922 -0.1437 -0.1632
 1228TIP3    H125099   3.566   1.028   4.864 -0.2760 -0.9200  0.8758
 1228TIP3    H225100   3.685   0.934   4.865  0.3531 -0.2052 -1.1826
 1229TIP3   OH225101   2.927   2.146   2.573 -0.0191  0.2166 -0.3831
 1229TIP3    H125102   2.997   2.160   2.637  0.1022  1.9397 -0.8295
 1229TIP3    H225103   2.970   2.101   2.500  0.5944  1.0783 -0.5663
 1230TIP3   OH225104   1.867   3.689  16.840 -0.3386  0.2346  0.3829
 1230TIP3    H125105   1.798   3.637  16.881 -1.1887 -0.6096 -1.9596
 1230TIP3    H225106   1.825   3.731  16.765  1.7381 -0.7517 -1.4685
 1231TIP3   OH225107   3.839   4.624   2.960  0.0752 -0.1505  0.1119
 1231TIP3    H125108   3.850   4.699   3.019  0.9808 -0.8544  0.8738
 1231TIP3    H225109   3.928   4.603   2.932 -0.2091 -0.7023 -0.3967
 1232TIP3   OH225110   4.714   1.756   0.220 -0.3578  0.0156  0.5022
 1232TIP3    H125111   4.720   1.711   0.304  0.2532  1.0824  1.0511
 1232TIP3    H225112   4.633   1.807   0.226  0.6240  1.5754  1.2357
 1233TIP3   OH225113   0.351   2.257   2.121 -0.7239 -0.0670 -0.1330
 1233TIP3    H125114   0.272   2.305   2.100 -0.7808  0.5973  1.5121
 1233TIP3    H225115   0.349   2.247   2.216  1.6442  0.8514  0.0801
 1234TIP3   OH225116   0.807   6.128   2.739  0.1499 -0.2712 -0.1890
 1234TIP3    H125117   0.845   6.073   2.669  0.0715  0.1414 -0.5595
 1234TIP3    H225118   0.821   6.218   2.709 -1.0974 -0.1060 -0.3204
 1235TIP3   OH225119   4.632   6.463  15.008  0.1458 -0.1001  0.2743
 1235TIP3    H125120   4.689   6.506  15.071  1.1036 -0.4307 -0.3547
 1235TIP3    H225121   4.545   6.500  15.025  0.3024 -0.4773  2.0416
 1236TIP3   OH225122   3.738   2.052  11.588  0.3523 -0.8855 -0.1209
 1236TIP3    H125123   3.708   1.965  11.564  0.3624 -0.8001 -0.4568
 1236TIP3    H225124   3.821   2.038  11.633 -0.5391 -1.1864  1.5235
 1237TIP3   OH225125   4.299   3.038  11.204 -0.0928 -0.6197  0.1338
 1237TIP3    H125126   4.281   2.945  11.188 -0.0255 -0.3865 -1.4829
 1237TIP3    H225127   4.309   3.044  11.299 -0.4953 -2.1894  0.3165
 1238TIP3   OH225128   0.639   5.788  15.291  0.5728 -0.1511 -0.0272
 1238TIP3    H125129   0.713   5.838  15.325  0.7713 -2.5153  3.6073
 1238TIP3    H225130   0.563   5.823  15.337  0.4168 -1.6810  0.9532
 1239TIP3   OH225131   2.129   1.779  12.292 -0.0159 -0.2227 -0.0724
 1239TIP3    H125132   2.098   1.693  12.322  0.3571 -0.2985  0.1046
 1239TIP3    H225133   2.099   1.785  12.202 -1.1597  0.0080  0.3117
 1240TIP3   OH225134   3.263   3.702  13.995  0.0368 -0.3226  0.2396
 1240TIP3    H125135   3.272   3.743  13.909  1.3730  1.7529  1.3125
 1240TIP3    H225136   3.197   3.755  14.040  1.0471  0.0508  1.3062
 1241TIP3   OH225137   3.503   2.995  14.623 -0.1916  0.4854  0.0552
 1241TIP3    H125138   3.425   3.042  14.653 -0.1534  1.8181 -1.7360
 1241TIP3    H225139   3.549   3.059  14.568  1.0120 -0.9912 -0.7177
 1242TIP3   OH225140   6.231   3.125   0.220  0.0964  0.1571  0.0614
 1242TIP3    H125141   6.272   3.212   0.211  0.0977  0.0405 -1.2696
 1242TIP3    H225142   6.292   3.075   0.273  1.2595  0.2876 -1.0922
 1243TIP3   OH225143   3.881   0.288  10.896 -0.3001  0.0299  0.0755
 1243TIP3    H125144   3.838   0.345  10.959  1.4835  1.8644 -0.2774
 1243TIP3    H225145   3.973   0.315  10.896  0.0299 -0.7678 -2.3422
 1244TIP3   OH225146   6.753   6.212   5.655 -0.0816 -0.5154  0.1487
 1244TIP3    H125147   6.758   6.193   5.749 -0.3276 -0.5830  0.1500
 1244TIP3    H225148   6.777   6.304   5.647  0.5999 -0.6833  0.2039
 1245TIP3   OH225149   2.592   1.073  14.479  0.0057  0.0641  0.3107
 1245TIP3    H125150   2.534   1.126  14.424 -0.5538 -0.0096  0.8158
 1245TIP3    H225151   2.663   1.132  14.503 -0.3798  0.4592  0.4963
 1246TIP3   OH225152   5.345   1.879   5.291  0.5450  0.0387  0.1240
 1246TIP3    H125153   5.382   1.911   5.373 -0.6978  1.5835  0.1279
 1246TIP3    H225154   5.407   1.909   5.224 -0.7372  2.9089  0.0951
 1247TIP3   OH225155   4.919   3.079  16.477 -0.2568 -0.3062  0.7707
 1247TIP3    H125156   4.940   3.062  16.385 -2.2753 -1.1438  0.4246
 1247TIP3    H225157   5.004   3.076  16.521  0.5245 -2.4631 -0.6812
 1248TIP3   OH225158   1.350   1.293   4.075 -0.1703  0.3571  0.5094
 1248TIP3    H125159   1.422   1.261   4.129 -0.4479  0.1371  0.7561
 1248TIP3    H225160   1.292   1.217   4.066 -1.1143  0.9285  1.5610
 1249TIP3   OH225161   1.234   1.531   0.881 -0.2123 -0.2876 -0.3245
 1249TIP3    H125162   1.282   1.556   0.802  1.2048 -0.6320  0.3831
 1249TIP3    H225163   1.249   1.603   0.941 -2.3108  0.5529 -0.7408
 1250TIP3   OH225164   6.219   0.636  11.218 -0.0442 -0.0914 -0.3810
 1250TIP3    H125165   6.271   0.632  11.298 -1.3095  0.7188  0.5108
 1250TIP3    H225166   6.201   0.729  11.205  0.9352 -0.1065 -2.1615
 1251TIP3   OH225167   2.844   2.351   3.584  0.5057 -0.3660 -0.4391
 1251TIP3    H125168   2.828   2.408   3.660  2.3365 -0.0607 -0.2317
 1251TIP3    H225169   2.926   2.306   3.605  0.8415 -0.5719 -2.0568
 1252TIP3   OH225170   1.316   1.599   3.198 -0.1750  0.0929 -0.0369
 1252TIP3    H125171   1.372   1.665   3.237 -2.1061 -0.6476  4.6289
 1252TIP3    H225172   1.355   1.516   3.224 -1.6258 -0.4558  0.4840
 1253TIP3   OH225173   3.997   6.273   5.823 -0.5878 -0.3512 -0.4429
 1253TIP3    H125174   3.910   6.233   5.824 -0.2200 -1.2766 -1.7021
 1253TIP3    H225175   4.041   6.237   5.900 -0.1887 -2.6895 -1.6682
 1254TIP3   OH225176   4.598   5.210  13.821 -0.5515 -0.2545 -0.2490
 1254TIP3    H125177   4.554   5.209  13.736 -0.3363 -0.2932 -0.3602
 1254TIP3    H225178   4.527   5.216  13.884 -0.7357 -0.6387 -0.4128
 1255TIP3   OH225179   6.631   0.856   3.789  0.5738 -0.4603 -0.5992
 1255TIP3    H125180   6.629   0.891   3.700 -1.8542 -0.6734 -0.6770
 1255TIP3    H225181   6.590   0.770   3.782  0.1063 -0.3652  0.7666
 1256TIP3   OH225182   2.886   4.473   2.698 -0.0691 -0.1190 -0.0494
 1256TIP3    H125183   2.884   4.497   2.605 -1.5225 -1.3193 -0.3700
 1256TIP3    H225184   2.869   4.379   2.699  2.8332 -0.7469  1.2978
 1257TIP3   OH225185   1.574   3.897   6.517  0.0066 -0.1583  0.3862
 1257TIP3    H125186   1.605   3.844   6.591  0.3782  0.8471  0.9719
 1257TIP3    H225187   1.651   3.909   6.463  0.3458  1.1890  1.1338
 1258TIP3   OH225188   4.921   0.309   5.368  0.0216 -0.1891 -0.2872
 1258TIP3    H125189   4.970   0.231   5.396  0.7318  0.7262  1.1031
 1258TIP3    H225190   4.934   0.312   5.273 -0.9090 -2.3508 -0.5601
 1259TIP3   OH225191   1.815   0.261  13.387  0.3107 -0.0730  0.0679
 1259TIP3    H125192   1.853   0.315  13.456 -2.1040 -0.8573  2.1605
 1259TIP3    H225193   1.730   0.302  13.369 -0.6570 -1.9353  0.1965
 1260TIP3   OH225194   3.266   5.969  13.550  0.3977  0.4254 -0.1468
 1260TIP3    H125195   3.179   5.951  13.515  0.7141  0.2166 -0.8284
 1260TIP3    H225196   3.254   5.968  13.645 -0.4307  0.8355 -0.2391
 1261TIP3   OH225197   3.838   5.280   2.510  0.7400  0.5620 -0.0272
 1261TIP3    H125198   3.788   5.200   2.495  0.3421  0.7737  0.1589
 1261TIP3    H225199   3.772   5.347   2.526  1.0800  0.8659  0.1165
 1262TIP3   OH225200   1.091   3.838   5.602 -1.0212  0.1980  0.8230
 1262TIP3    H125201   1.019   3.777   5.621  0.0477 -0.7759  1.9639
 1262TIP3    H225202   1.110   3.879   5.686  0.1566 -0.0339  0.6883
 1263TIP3   OH225203   0.542   6.356   4.681  0.3783 -0.2308 -0.0456
 1263TIP3    H125204   0.531   6.295   4.608 -1.7484 -1.3455  1.0825
 1263TIP3    H225205   0.612   6.318   4.734  1.2315  0.0416 -0.9627
 1264TIP3   OH225206   6.366   4.559  10.930 -0.4271 -0.7405  0.2178
 1264TIP3    H125207   6.309   4.585  10.858 -0.2358 -0.8191  0.0377
 1264TIP3    H225208   6.448   4.536  10.889 -0.6069 -1.6764  0.3686
 1265TIP3   OH225209   1.609   4.638   5.697 -0.0688  0.4374 -0.2745
 1265TIP3    H125210   1.524   4.607   5.666  0.6934 -0.5750 -1.4040
 1265TIP3    H225211   1.603   4.733   5.691 -0.6255  0.3343 -1.7344
 1266TIP3   OH225212   6.749   3.553  16.701 -0.1372 -0.2178  0.8443
 1266TIP3    H125213   6.734   3.626  16.761 -0.9967 -0.5918  1.1016
 1266TIP3    H225214   6.740   3.591  16.614  0.4114  0.1875  0.9654
 1267TIP3   OH225215   5.103   0.876  13.977 -0.2338 -0.5488  0.0364
 1267TIP3    H125216   5.059   0.896  13.894  0.4139  0.3048 -0.1170
 1267TIP3    H225217   5.183   0.929  13.975  1.0961 -2.4558  0.0612
 1268TIP3   OH225218   5.673   5.447   5.168  0.3932  0.4049  0.6297
 1268TIP3    H125219   5.730   5.373   5.190 -1.3136 -0.8035  1.1825
 1268TIP3    H225220   5.599   5.440   5.229 -1.0179  1.1313 -0.9131
 1269TIP3   OH225221   2.455   0.686   0.025  0.0080 -0.3339 -0.1387
 1269TIP3    H125222   2.415   0.660  -0.059  0.5263  0.5215 -0.6764
 1269TIP3    H225223   2.381   0.716   0.078 -0.3860 -1.3628 -0.0943
 1270TIP3   OH225224   4.785   0.925   5.135  0.1322  0.4636  0.1692
 1270TIP3    H125225   4.743   0.844   5.106 -0.1673  0.9142 -0.6930
 1270TIP3    H225226   4.722   0.994   5.113  1.1349  1.1106 -0.8014
 1271TIP3   OH225227   3.096   1.054   4.409  0.3977  0.3543  0.2385
 1271TIP3    H125228   3.131   1.086   4.492  0.6101 -1.9223  1.0809
 1271TIP3    H225229   3.014   1.010   4.432 -0.2483  0.8735 -0.9621
 1272TIP3   OH225230   2.260   6.214   2.514 -0.0324 -0.3606 -0.3597
 1272TIP3    H125231   2.213   6.296   2.532 -0.1626 -0.5607  0.2553
 1272TIP3    H225232   2.341   6.242   2.472  0.1308  0.1305  0.2573
 1273TIP3   OH225233   4.000   4.980   2.169  0.1536 -0.0749 -0.4284
 1273TIP3    H125234   3.914   4.941   2.185 -0.1427 -0.0417 -1.8253
 1273TIP3    H225235   4.002   5.057   2.226  0.5947 -1.8057  2.0887
 1274TIP3   OH225236   0.859   2.605   1.216  0.0557 -0.0136  0.1393
 1274TIP3    H125237   0.927   2.601   1.284 -0.6138  0.4149  0.8552
 1274TIP3    H225238   0.780   2.573   1.259 -0.1702 -0.6818 -0.7389
 1275TIP3   OH225239   6.792   5.022   1.944  0.2128  0.3741  0.3854
 1275TIP3    H125240   6.745   5.079   1.883 -0.9374  0.3228  1.1953
 1275TIP3    H225241   6.788   5.068   2.028  1.3227  0.1928  0.5572
 1276TIP3   OH225242   3.052   4.845   1.568  0.1535 -0.7606  0.5310
 1276TIP3    H125243   2.978   4.903   1.585  0.2912 -0.7818  1.2201
 1276TIP3    H225244   3.035   4.809   1.481 -1.0861 -1.4338  1.0298
 1277TIP3   OH225245   3.632   2.450  14.972  0.2964 -0.2230 -0.9945
 1277TIP3    H125246   3.665   2.455  15.062 -0.5336  0.2503 -0.7011
 1277TIP3    H225247   3.696   2.396  14.926  0.8110 -0.3537 -0.1531
 1278TIP3   OH225248   2.753   0.732   3.655 -0.2349  0.4266 -0.5186
 1278TIP3    H125249   2.826   0.704   3.709 -1.9597  0.2304  1.8568
 1278TIP3    H225250   2.711   0.651   3.626 -1.1578  0.5058  0.5389
 1279TIP3   OH225251   5.023   3.042   4.838 -0.2964 -0.0818  0.9800
 1279TIP3    H125252   4.963   3.016   4.768  1.4298 -1.9099  0.1030
 1279TIP3    H225253   5.050   3.131   4.814 -0.5549 -0.2796 -0.0944
 1280TIP3   OH225254   3.320   6.611  10.892 -0.4844  0.0770  0.0493
 1280TIP3    H125255   3.325   6.592  10.799  0.3354  0.7455 -0.0508
 1280TIP3    H225256   3.410   6.629  10.919 -0.9569  2.2091  0.4488
 1281TIP3   OH225257   1.815   1.590  11.671 -0.2155  0.0586 -0.0005
 1281TIP3    H125258   1.830   1.684  11.662  0.1252 -0.0563 -0.7760
 1281TIP3    H225259   1.756   1.568  11.599 -0.4942 -0.2809  0.3267
 1282TIP3   OH225260   4.769   4.161   2.699 -0.9169  0.0522 -0.1078
 1282TIP3    H125261   4.832   4.111   2.751 -0.3903  0.3067 -0.5026
 1282TIP3    H225262   4.753   4.107   2.622  0.4386  0.9205 -1.0484
 1283TIP3   OH225263   2.347   0.874  11.871 -0.5489  0.0307  0.3539
 1283TIP3    H125264   2.402   0.795  11.874 -1.6067 -0.8244 -1.1273
 1283TIP3    H225265   2.381   0.930  11.941  2.2558 -0.3997 -0.5459
 1284TIP3   OH225266   3.109   6.017   4.066 -0.3788  0.0090  0.3290
 1284TIP3    H125267   3.185   6.071   4.088  0.5488 -0.6075 -1.1742
 1284TIP3    H225268   3.074   6.056   3.986 -0.9527 -0.3906  0.3795
 1285TIP3   OH225269   0.878   3.962   0.207  0.0554 -0.1489 -0.7249
 1285TIP3    H125270   0.849   3.926   0.291  0.7878 -0.5139 -0.6231
 1285TIP3    H225271   0.823   3.918   0.142  0.6908 -1.1766 -0.5710
 1286TIP3   OH225272   0.802   1.745   3.620 -0.0419  0.4750  0.0706
 1286TIP3    H125273   0.868   1.716   3.557 -0.3942  0.9089 -0.5162
 1286TIP3    H225274   0.844   1.737   3.705 -0.7421 -3.8055  0.2591
 1287TIP3   OH225275   6.438   1.125  14.135  0.1702  0.4672  0.0331
 1287TIP3    H125276   6.353   1.085  14.153  0.1746  0.5666  0.2742
 1287TIP3    H225277   6.501   1.059  14.163  0.1754  0.5013  0.0999
 1288TIP3   OH225278   3.314   2.423  13.674 -0.1312 -0.3781 -0.3256
 1288TIP3    H125279   3.336   2.514  13.693  0.3383 -0.4386 -0.5527
 1288TIP3    H225280   3.263   2.427  13.593 -0.1537 -0.3142 -0.3087
 1289TIP3   OH225281   0.376   5.706   5.613  0.2969  0.0998 -0.6931
 1289TIP3    H125282   0.368   5.742   5.525 -1.5520 -0.0389 -0.6249
 1289TIP3    H225283   0.322   5.627   5.612 -1.1680  0.9869  0.9944
 1290TIP3   OH225284   5.484   5.388   2.870  0.3254  0.2404 -0.2672
 1290TIP3    H125285   5.425   5.398   2.795 -0.6010 -1.1981  0.2284
 1290TIP3    H225286   5.502   5.478   2.898 -2.0392  0.7497 -0.1462
 1291TIP3   OH225287   1.459   6.309  16.381  0.3676  0.0972 -0.1188
 1291TIP3    H125288   1.397   6.284  16.313  0.1703  0.2512  0.0047
 1291TIP3    H225289   1.449   6.241  16.448  1.6318 -0.9190 -0.8924
 1292TIP3   OH225290   0.636   5.646   4.229 -0.5687  0.0244  0.4543
 1292TIP3    H125291   0.598   5.700   4.159 -0.0036  1.5276  1.2589
 1292TIP3    H225292   0.707   5.598   4.186 -1.1402 -0.1576 -0.3067
 1293TIP3   OH225293   4.508   0.869   1.957  0.4730 -0.1231 -0.0430
 1293TIP3    H125294   4.537   0.819   1.880  2.9011 -1.9444  1.8811
 1293TIP3    H225295   4.516   0.960   1.931 -0.8813 -0.6284 -2.6105
 1294TIP3   OH225296   1.540   1.426   5.436  0.5062 -0.7265 -0.1471
 1294TIP3    H125297   1.469   1.431   5.500  0.7499  0.8055  0.0517
 1294TIP3    H225298   1.578   1.514   5.436 -0.7268 -0.0165 -3.8069
 1295TIP3   OH225299   2.860   0.610  16.113  0.1007 -0.3146  0.4207
 1295TIP3    H125300   2.869   0.515  16.124 -0.3339 -0.6614 -1.7536
 1295TIP3    H225301   2.776   0.631  16.154 -1.0131 -1.3352 -1.2280
 1296TIP3   OH225302   0.598   3.381  12.313  0.0190 -0.3832 -0.1094
 1296TIP3    H125303   0.649   3.461  12.320 -0.2401 -0.2487  0.2385
 1296TIP3    H225304   0.664   3.311  12.309  0.2438 -0.1519 -0.4812
 1297TIP3   OH225305   1.958   3.007  12.693 -0.2595 -0.0005  0.0064
 1297TIP3    H125306   2.019   3.022  12.765 -1.3439  1.5324  0.6739
 1297TIP3    H225307   2.003   2.945  12.635  2.2940  1.6602  0.0291
 1298TIP3   OH225308   6.793   0.212  12.839  0.1473 -0.6105 -0.1804
 1298TIP3    H125309   6.705   0.237  12.865  0.0307  0.7507 -1.7727
 1298TIP3    H225310   6.827   0.162  12.914 -1.1610  0.7276  1.3581
 1299TIP3   OH225311   2.218   3.853   4.689 -0.5787 -0.3081 -0.2765
 1299TIP3    H125312   2.296   3.905   4.706 -1.8498  1.4170  0.7007
 1299TIP3    H225313   2.165   3.908   4.631 -1.5620 -0.9220  0.0176
 1300TIP3   OH225314   3.178   4.286   1.789 -0.2262  0.3248 -0.5155
 1300TIP3    H125315   3.271   4.279   1.767  0.2529  0.3184  1.3200
 1300TIP3    H225316   3.144   4.350   1.727  1.1423  0.8150 -0.8050
 1301TIP3   OH225317   3.620   6.766   1.076  0.5574  1.0061 -0.2083
 1301TIP3    H125318   3.621   6.861   1.088  1.4935  1.1137 -1.0336
 1301TIP3    H225319   3.568   6.751   0.997  1.2157  0.9076 -0.6268
 1302TIP3   OH225320   1.402   4.927   3.484  0.4159 -0.0585  0.3688
 1302TIP3    H125321   1.409   4.871   3.562  0.8231 -2.3460 -1.2130
 1302TIP3    H225322   1.366   4.869   3.417 -0.4078  1.9875 -1.0414
 1303TIP3   OH225323   3.565   6.728   0.376 -0.3916  0.4619  0.2114
 1303TIP3    H125324   3.563   6.682   0.292 -0.1776 -0.6502  0.7949
 1303TIP3    H225325   3.599   6.815   0.355 -0.3972  0.2209 -0.8562
 1304TIP3   OH225326   1.548   4.393   0.986  0.0697 -0.4146 -0.0311
 1304TIP3    H125327   1.586   4.345   0.913 -3.1139  0.6858 -2.6811
 1304TIP3    H225328   1.574   4.484   0.970  1.8784 -0.4821  2.0820
 1305TIP3   OH225329   2.145   1.374   5.708  0.0324  0.3422 -0.4168
 1305TIP3    H125330   2.147   1.314   5.782  0.8327 -1.1399 -1.5938
 1305TIP3    H225331   2.235   1.408   5.703  0.7694 -1.6565 -2.2931
 1306TIP3   OH225332   6.532   1.296  15.923  0.1896  0.1052 -0.7860
 1306TIP3    H125333   6.598   1.247  15.874 -0.4839 -0.2231 -1.3770
 1306TIP3    H225334   6.449   1.252  15.904 -0.1355  0.1316  0.4426
 1307TIP3   OH225335   3.217   1.382   5.417 -0.4573  0.2676  0.8090
 1307TIP3    H125336   3.170   1.371   5.499  1.1452  1.3077  1.9312
 1307TIP3    H225337   3.307   1.355   5.437 -0.3106 -0.7259 -0.9776
 1308TIP3   OH225338   1.679   0.368  16.187  0.0920  0.6337 -0.1004
 1308TIP3    H125339   1.767   0.398  16.207  0.8012 -1.5878  0.4863
 1308TIP3    H225340   1.682   0.345  16.094 -0.3092  1.8602 -0.4297
 1309TIP3   OH225341   3.794   6.572  11.693 -0.4760 -0.1540 -0.2130
 1309TIP3    H125342   3.864   6.559  11.757  0.5698  0.6867 -1.1454
 1309TIP3    H225343   3.833   6.629  11.626 -1.7178 -0.5349 -1.2975
 1310TIP3   OH225344   5.429   6.400   3.047  0.6715 -0.5300 -0.4517
 1310TIP3    H125345   5.423   6.486   3.089 -0.5660 -0.3427 -0.9374
 1310TIP3    H225346   5.490   6.413   2.974  1.9383 -0.5682  0.5677
 1311TIP3   OH225347   0.201   2.691   2.227 -0.1297 -0.2980  0.4669
 1311TIP3    H125348   0.140   2.666   2.157  0.6833 -1.2644  0.0720
 1311TIP3    H225349   0.162   2.769   2.266 -1.1134 -0.3217 -0.4126
 1312TIP3   OH225350   4.692   1.217  12.668  0.3234 -0.0954  0.0978
 1312TIP3    H125351   4.692   1.196  12.575  1.0437 -0.1627  0.1116
 1312TIP3    H225352   4.781   1.199  12.697  0.5190  1.3748  0.4675
 1313TIP3   OH225353   5.629   6.469   6.809  0.1107  0.1426  0.0024
 1313TIP3    H125354   5.628   6.526   6.732  1.2605  0.9178  0.5432
 1313TIP3    H225355   5.718   6.474   6.842 -0.4625  0.1252  1.6288
 1314TIP3   OH225356   1.224   5.605  13.127  0.6265 -0.1022 -0.1047
 1314TIP3    H125357   1.309   5.561  13.117  0.0794 -0.9379 -1.3480
 1314TIP3    H225358   1.182   5.594  13.042 -0.6649  0.4501  0.4431
 1315TIP3   OH225359   1.578   6.637   3.932  0.1377  0.1810  0.1558
 1315TIP3    H125360   1.494   6.634   3.887  0.6242  0.7783 -0.8223
 1315TIP3    H225361   1.575   6.564   3.994 -1.4109  0.7024  0.7242
 1316TIP3   OH225362   2.314   4.340   5.567 -0.0652  0.6166  0.4457
 1316TIP3    H125363   2.270   4.425   5.576  0.4021  1.3151 -2.7125
 1316TIP3    H225364   2.391   4.359   5.515  0.3687 -1.6858  0.1576
 1317TIP3   OH225365   2.377   3.417   4.581 -0.2669  0.4384  0.1085
 1317TIP3    H125366   2.447   3.436   4.644  0.6395  0.4426 -0.8663
 1317TIP3    H225367   2.314   3.364   4.630  1.4402 -1.3637  0.4395
 1318TIP3   OH225368   3.070   0.686  12.708  0.4463  0.3063  0.3194
 1318TIP3    H125369   3.028   0.727  12.632  2.4109 -1.1314 -1.6801
 1318TIP3    H225370   3.125   0.755  12.745  2.1634  0.1639 -1.7750
 1319TIP3   OH225371   0.851   3.730  15.773  0.3245 -0.4030 -0.4421
 1319TIP3    H125372   0.848   3.819  15.807  0.0744 -0.3528 -0.5885
 1319TIP3    H225373   0.799   3.679  15.835  2.6178 -0.9783  1.1323
 1320TIP3   OH225374   2.815   5.774  13.147 -0.1149 -0.0860  0.0827
 1320TIP3    H125375   2.748   5.735  13.205 -1.7188 -1.8285 -2.7132
 1320TIP3    H225376   2.861   5.699  13.110  1.8453  1.0384  0.1200
 1321TIP3   OH225377   0.802   0.678  11.387 -0.3366  0.7003 -0.4554
 1321TIP3    H125378   0.822   0.593  11.426 -1.2117  1.0373  0.7976
 1321TIP3    H225379   0.870   0.737  11.419 -0.7675  0.8619  0.1951
 1322TIP3   OH225380   4.559   4.269  12.224 -0.0966  0.6223  0.6416
 1322TIP3    H125381   4.533   4.177  12.233 -0.2134  0.6073  0.1909
 1322TIP3    H225382   4.654   4.266  12.216  0.0818  0.6829  2.3736
 1323TIP3   OH225383   5.172   2.207   5.242  0.1905 -0.5737  0.5638
 1323TIP3    H125384   5.198   2.165   5.324  0.8825  1.4361  1.4593
 1323TIP3    H225385   5.255   2.220   5.195  0.0052 -0.2344  0.3240
 1324TIP3   OH225386   3.528   6.748  16.800  0.1513 -0.3807  0.1631
 1324TIP3    H125387   3.565   6.787  16.721  0.6705  0.2525  0.7067
 1324TIP3    H225388   3.538   6.815  16.868 -2.2592 -0.0647  0.2996
 1325TIP3   OH225389   5.904   4.279   6.507  0.2990 -0.1779 -0.1665
 1325TIP3    H125390   5.962   4.353   6.487 -0.6191  0.2888 -1.2203
 1325TIP3    H225391   5.928   4.211   6.444 -0.3405  0.0510 -0.6681
 1326TIP3   OH225392   5.585   6.059  15.706  0.0388 -0.1648 -0.2968
 1326TIP3    H125393   5.616   6.037  15.794  0.4348  1.7066  0.0588
 1326TIP3    H225394   5.664   6.084  15.658 -0.2876 -0.3307 -0.9341
 1327TIP3   OH225395   6.318   3.035  16.334  0.0476  0.8994  0.4481
 1327TIP3    H125396   6.268   2.988  16.401  1.0901 -0.1721  0.5200
 1327TIP3    H225397   6.394   2.979  16.318  1.8188  3.0018  1.1587
 1328TIP3   OH225398   3.504   1.672  14.283  1.0498  0.6926 -0.5958
 1328TIP3    H125399   3.508   1.764  14.260  0.1850  1.0770  0.6976
 1328TIP3    H225400   3.430   1.665  14.343  2.3045 -0.4872  0.8888
 1329TIP3   OH225401   6.569   2.159  12.407 -0.2927  0.2479 -0.0414
 1329TIP3    H125402   6.526   2.113  12.335 -1.1372 -0.2725  0.7758
 1329TIP3    H225403   6.541   2.112  12.486 -0.7574  1.8413  0.7803
 1330TIP3   OH225404   3.601   5.238  12.499  0.1518  0.1544  0.3835
 1330TIP3    H125405   3.590   5.330  12.474  1.1617  0.0127 -0.6726
 1330TIP3    H225406   3.513   5.210  12.526 -0.4439  1.0670 -0.5340
 1331TIP3   OH225407   4.186   5.180  11.909 -0.0641 -0.1967  0.0424
 1331TIP3    H125408   4.235   5.099  11.892  1.9397  0.7358  1.0838
 1331TIP3    H225409   4.106   5.171  11.857  0.5336 -2.4255 -0.5904
 1332TIP3   OH225410   0.339   1.284  12.181 -0.3682 -0.2760  0.3005
 1332TIP3    H125411   0.348   1.244  12.094  0.1454 -0.1603  0.2979
 1332TIP3    H225412   0.317   1.211  12.239  1.0432 -0.6612  0.3808
 1333TIP3   OH225413   6.356   6.052  17.083 -0.3219  0.0248  0.9722
 1333TIP3    H125414   6.378   6.077  16.993 -0.0895  0.3839  1.1208
 1333TIP3    H225415   6.427   5.994  17.110 -0.4823 -0.2204  0.8642
 1334TIP3   OH225416   3.040   1.822   6.176  0.0917  0.5448  0.0108
 1334TIP3    H125417   2.976   1.759   6.144  0.5076  0.0960  0.0579
 1334TIP3    H225418   3.034   1.817   6.271 -0.6850  1.4129  0.0259
 1335TIP3   OH225419   1.043   1.917  11.137  0.3174 -0.1189  0.2964
 1335TIP3    H125420   0.952   1.898  11.162 -0.2247  0.0764 -1.3561
 1335TIP3    H225421   1.096   1.857  11.190 -0.8783 -1.2668  0.2453
 1336TIP3   OH225422   4.917   1.772   2.605 -0.7903 -1.0076 -0.1317
 1336TIP3    H125423   4.954   1.857   2.581  0.5814 -1.5037  0.1812
 1336TIP3    H225424   4.916   1.773   2.701 -0.2222 -1.5635 -0.1144
 1337TIP3   OH225425   1.448   0.507   1.627  0.7100 -0.2315  0.0784
 1337TIP3    H125426   1.391   0.437   1.595 -0.6724  0.9034 -0.0463
 1337TIP3    H225427   1.479   0.551   1.548 -0.8039  1.0952  0.1700
 1338TIP3   OH225428   0.785   1.907  14.816  0.1353  0.4826 -0.5372
 1338TIP3    H125429   0.715   1.845  14.837 -0.7580  0.8698 -2.1341
 1338TIP3    H225430   0.741   1.992  14.810  0.8697  0.8510 -0.8388
 1339TIP3   OH225431   1.002   6.758   1.493 -0.3599  0.0927  0.3329
 1339TIP3    H125432   0.980   6.819   1.563 -2.3342  0.2362 -0.3571
 1339TIP3    H225433   1.064   6.805   1.438  2.0032 -0.3635  2.4311
 1340TIP3   OH225434   3.162   4.402   5.828 -0.1562 -0.0376  0.6345
 1340TIP3    H125435   3.129   4.370   5.912 -0.2926 -0.1547  0.5385
 1340TIP3    H225436   3.123   4.342   5.763 -2.4439  1.7584  0.2165
 1341TIP3   OH225437   4.418   3.283  11.240 -0.3197 -0.3035  0.4639
 1341TIP3    H125438   4.369   3.201  11.236 -0.8564 -0.0077  0.8754
 1341TIP3    H225439   4.482   3.276  11.169 -0.0498 -1.2713  0.7953
 1342TIP3   OH225440   2.173   5.761   1.815 -0.3377  0.4897  0.5686
 1342TIP3    H125441   2.139   5.837   1.769 -1.8948 -0.9541 -0.8086
 1342TIP3    H225442   2.263   5.753   1.786 -0.6034  0.9605 -0.4221
 1343TIP3   OH225443   4.085   0.260  14.159  0.6378 -0.2458 -0.2712
 1343TIP3    H125444   4.080   0.219  14.073 -0.4192 -0.0426 -0.3253
 1343TIP3    H225445   4.003   0.309  14.166  1.1672  0.5477  0.4438
 1344TIP3   OH225446   5.604   1.650  12.427  0.4845  0.0854  0.2762
 1344TIP3    H125447   5.543   1.716  12.393  0.3727 -0.3932 -0.4848
 1344TIP3    H225448   5.647   1.615  12.349 -0.3700 -1.6394  0.5352
 1345TIP3   OH225449   4.636   0.704   1.779 -0.0043  0.2797  0.6834
 1345TIP3    H125450   4.697   0.636   1.807  1.1487  0.9733 -0.0645
 1345TIP3    H225451   4.585   0.662   1.709  0.9681  0.2794 -0.0469
 1346TIP3   OH225452   6.668   1.189   0.323 -0.2265 -0.5627  0.7076
 1346TIP3    H125453   6.685   1.180   0.417  2.2554 -0.5919  0.3329
 1346TIP3    H225454   6.651   1.100   0.293  0.6332 -0.8044  0.8908
 1347TIP3   OH225455   3.463   1.992  16.170 -0.0689  0.5653  0.0335
 1347TIP3    H125456   3.441   1.976  16.262  0.1229  1.8822  0.3279
 1347TIP3    H225457   3.395   2.052  16.140  2.2847  3.8293  0.6433
 1348TIP3   OH225458   0.965   4.983   5.227  0.3549 -0.3756  0.0668
 1348TIP3    H125459   0.953   4.936   5.145 -0.7545 -0.2740  0.1552
 1348TIP3    H225460   1.046   4.948   5.263  0.0416 -1.5444 -0.3165
 1349TIP3   OH225461   1.799   6.197  14.176  0.1716  0.2691  0.2274
 1349TIP3    H125462   1.782   6.115  14.129 -0.5850  1.1458 -1.1216
 1349TIP3    H225463   1.761   6.184  14.262 -1.4430 -0.2375 -0.5202
 1350TIP3   OH225464   4.799   5.121  11.903  0.7597 -0.3963 -0.2027
 1350TIP3    H125465   4.797   5.142  11.810  1.7798  3.4404  0.4680
 1350TIP3    H225466   4.892   5.103  11.921  0.7478 -0.0463  0.2303
 1351TIP3   OH225467   0.544   6.630   4.617  0.1148  0.1522  0.4622
 1351TIP3    H125468   0.532   6.546   4.661 -0.7822  0.7520  1.3757
 1351TIP3    H225469   0.598   6.608   4.540  0.5110 -1.1311  1.0715
 1352TIP3   OH225470   0.114   0.970  15.317 -0.2093  0.3735 -0.2701
 1352TIP3    H125471   0.031   1.016  15.304 -0.2590  0.6051  0.7580
 1352TIP3    H225472   0.089   0.889  15.361  0.1680  0.7498  0.6548
 1353TIP3   OH225473   0.665   4.708   4.096 -0.3185  0.1887  0.0178
 1353TIP3    H125474   0.613   4.783   4.125  0.5620  1.1245 -0.7351
 1353TIP3    H225475   0.662   4.714   4.001  0.8098  0.0161 -0.0328
 1354TIP3   OH225476   2.892   2.157   4.339 -0.4075  0.3221  0.4136
 1354TIP3    H125477   2.983   2.130   4.354  0.5310  2.9595  0.0019
 1354TIP3    H225478   2.883   2.160   4.244 -0.0473  2.5099  0.3985
 1355TIP3   OH225479   3.093   5.533   2.215  0.1808  0.0899  0.3127
 1355TIP3    H125480   3.009   5.490   2.198 -0.1492  1.0453 -0.5994
 1355TIP3    H225481   3.098   5.540   2.310 -0.1687 -1.1403  0.4296
 1356TIP3   OH225482   2.368   1.891   5.250 -0.0642  0.0633 -0.5335
 1356TIP3    H125483   2.384   1.959   5.315 -2.1159  0.3738 -0.2834
 1356TIP3    H225484   2.437   1.904   5.184  3.6832 -1.7943  2.5972
 1357TIP3   OH225485   0.994   0.198  15.039 -0.4331  0.4108  0.7662
 1357TIP3    H125486   0.907   0.179  15.073 -0.1892  1.3977  2.0182
 1357TIP3    H225487   0.983   0.196  14.944 -1.7793  0.3388  0.9023
 1358TIP3   OH225488   5.017   3.130  16.893 -0.0310  0.1148 -0.3334
 1358TIP3    H125489   5.054   3.047  16.921 -1.9621 -1.2580 -1.6008
 1358TIP3    H225490   5.087   3.172  16.842  2.1029  0.8662  2.9596
 1359TIP3   OH225491   4.972   1.898   3.967  0.2702 -0.2761  0.3168
 1359TIP3    H125492   4.900   1.866   3.912 -0.6843  0.0715  1.3247
 1359TIP3    H225493   4.980   1.990   3.944  1.2544 -0.5865 -0.6856
 1360TIP3   OH225494   1.305   4.877  16.489  0.1563  0.2024 -0.2530
 1360TIP3    H125495   1.213   4.851  16.492 -0.1559  1.1908 -0.7368
 1360TIP3    H225496   1.348   4.822  16.554 -0.2721 -2.2111 -1.8635
 1361TIP3   OH225497   0.051   6.041   4.204  0.6282  0.0892 -0.1364
 1361TIP3    H125498   0.126   6.095   4.180  1.5279 -1.5779 -1.3288
 1361TIP3    H225499   0.002   6.030   4.122 -0.0489 -0.1488  0.2906
 1362TIP3   OH225500   6.342   0.102   2.632 -0.5586 -0.6688 -0.3557
 1362TIP3    H125501   6.324   0.106   2.538  0.8135  1.3508 -0.6034
 1362TIP3    H225502   6.437   0.102   2.638 -0.5363 -3.8137  1.0283
 1363TIP3   OH225503   6.412   4.140  14.021 -0.6075 -0.2480 -0.1432
 1363TIP3    H125504   6.346   4.074  13.999 -1.6587  0.5100  0.6695
 1363TIP3    H225505   6.474   4.136  13.949 -1.1287 -1.4983 -0.5585
 1364TIP3   OH225506   0.299   0.255   1.623 -0.3620 -0.3442  0.1158
 1364TIP3    H125507   0.227   0.312   1.648 -0.4360  0.5494 -1.9046
 1364TIP3    H225508   0.262   0.167   1.625 -0.9082 -0.0971  1.0811
 1365TIP3   OH225509   3.665   5.002   3.982  0.1800 -0.5272 -0.0171
 1365TIP3    H125510   3.586   5.054   3.964  0.7786  0.9753  1.3884
 1365TIP3    H225511   3.631   4.920   4.018 -0.7753  0.0540  0.4776
 1366TIP3   OH225512   0.655   5.756  14.210 -0.7596 -0.4149 -0.4651
 1366TIP3    H125513   0.730   5.735  14.264 -1.8682  1.1305  1.8034
 1366TIP3    H225514   0.631   5.672  14.169 -0.7008 -2.0499  2.5645
 1367TIP3   OH225515   1.136   0.614  10.616  0.6142  0.6685  0.1515
 1367TIP3    H125516   1.139   0.654  10.703 -0.8009 -0.2704  0.6818
 1367TIP3    H225517   1.128   0.688  10.556 -0.6015  1.2712  1.0005
 1368TIP3   OH225518   2.263   6.094  14.829 -0.0053 -0.5600 -0.3997
 1368TIP3    H125519   2.269   6.189  14.823  0.2566 -0.4879  0.8399
 1368TIP3    H225520   2.353   6.063  14.813  0.4830 -0.4216  1.7560
 1369TIP3   OH225521   4.072   0.548   4.964  0.3285 -0.1135  0.6643
 1369TIP3    H125522   4.027   0.510   4.888 -0.5616 -1.6920  1.9312
 1369TIP3    H225523   4.098   0.636   4.935 -0.9048 -0.2892 -1.1075
 1370TIP3   OH225524   0.614   2.704   0.363 -0.5024 -0.1518 -0.0889
 1370TIP3    H125525   0.562   2.676   0.438 -1.6550  1.1341 -0.3586
 1370TIP3    H225526   0.676   2.633   0.348  0.1120 -0.2232  2.3844
 1371TIP3   OH225527   2.475   2.062   2.748  0.4483  0.0055 -0.1486
 1371TIP3    H125528   2.403   1.999   2.749 -1.4393  2.0083  1.4910
 1371TIP3    H225529   2.455   2.122   2.821  3.3474  1.1606 -0.1818
 1372TIP3   OH225530   3.990   3.956  13.981  0.3645 -0.1961  0.1909
 1372TIP3    H125531   3.914   3.947  13.923 -0.0897 -1.9691  1.0169
 1372TIP3    H225532   3.985   3.881  14.039  2.3139  0.1095  0.8029
 1373TIP3   OH225533   4.777   3.079  12.833 -0.2853 -0.4398  0.4311
 1373TIP3    H125534   4.781   3.167  12.796  0.1736 -0.6393 -0.0008
 1373TIP3    H225535   4.862   3.040  12.813 -1.2120 -1.7527 -1.3116
 1374TIP3   OH225536   1.244   6.560   0.398 -0.1716 -0.3791 -0.2024
 1374TIP3    H125537   1.281   6.537   0.313 -0.7655  0.9819 -0.8514
 1374TIP3    H225538   1.301   6.517   0.461  0.4149 -1.2232 -1.2740
 1375TIP3   OH225539   3.317   2.582  15.777  0.3765  0.2832 -0.0206
 1375TIP3    H125540   3.332   2.488  15.771  1.1343  0.4065 -0.1251
 1375TIP3    H225541   3.386   2.621  15.723  0.4929  0.9288  0.5823
 1376TIP3   OH225542   3.206   5.334   1.430  0.2431 -0.3766 -0.3908
 1376TIP3    H125543   3.118   5.313   1.462  0.6693 -0.4625  0.7893
 1376TIP3    H225544   3.231   5.259   1.376  0.2367 -1.1556  0.6516
 1377TIP3   OH225545   3.897   5.275   3.782 -0.4357  0.2185  0.0526
 1377TIP3    H125546   3.824   5.316   3.829  0.0899  0.3495  0.7717
 1377TIP3    H225547   3.951   5.349   3.754 -0.9448  0.1653 -1.1169
 1378TIP3   OH225548   5.577   6.796   3.695  0.1852 -0.1895 -0.3514
 1378TIP3    H125549   5.606   6.743   3.769  1.8607  1.1240 -0.0007
 1378TIP3    H225550   5.652   6.853   3.675 -1.6791  2.5221 -0.2647
 1379TIP3   OH225551   0.022   0.862  11.381 -0.4317 -0.5720 -0.2068
 1379TIP3    H125552  -0.019   0.792  11.330 -2.6203  0.7787 -0.4417
 1379TIP3    H225553   0.103   0.883  11.334 -0.8132 -1.5025 -1.3195
 1380TIP3   OH225554   0.941   3.255   4.367  0.3113 -0.0092  0.4396
 1380TIP3    H125555   1.035   3.256   4.349  0.5327 -0.2125  1.5122
 1380TIP3    H225556   0.928   3.177   4.421 -0.5844 -0.3419 -0.2434
 1381TIP3   OH225557   4.045   6.085   3.282  0.0091 -0.2020  0.0237
 1381TIP3    H125558   4.052   6.111   3.374  2.0324  1.2791 -0.4684
 1381TIP3    H225559   4.067   5.992   3.282 -0.6327 -0.3747  1.0955
 1382TIP3   OH225560   1.511   5.728  12.369 -0.1506 -0.2743 -0.3219
 1382TIP3    H125561   1.489   5.692  12.284  0.3733 -0.4395 -0.3935
 1382TIP3    H225562   1.492   5.822  12.361  0.0358 -0.2650 -0.6671
 1383TIP3   OH225563   0.770   3.976   6.140  0.1140 -0.3172  0.0570
 1383TIP3    H125564   0.851   3.944   6.180  0.2232  0.1010  0.1686
 1383TIP3    H225565   0.738   4.042   6.201  0.3751  0.4507 -0.6336
 1384TIP3   OH225566   3.189   5.857   3.144 -0.0199 -0.6100  0.3222
 1384TIP3    H125567   3.112   5.810   3.113 -0.4340 -1.1235  2.0348
 1384TIP3    H225568   3.262   5.798   3.126 -0.0213 -0.2077 -1.1168
 1385TIP3   OH225569   5.604   4.895   1.565 -0.3378  0.1690  0.0868
 1385TIP3    H125570   5.689   4.853   1.549 -0.5436 -0.7655  1.3393
 1385TIP3    H225571   5.558   4.836   1.624 -1.0830  1.6349  1.0403
 1386TIP3   OH225572   5.704   1.236   0.530 -0.1869 -0.5457 -0.5545
 1386TIP3    H125573   5.649   1.159   0.543 -1.3905  0.6757  2.4434
 1386TIP3    H225574   5.742   1.254   0.616  2.3966  0.5884 -1.7950
 1387TIP3   OH225575   1.046   6.541   5.574 -0.5166  0.3464 -0.2495
 1387TIP3    H125576   1.090   6.478   5.632 -1.0308  0.6179  0.4502
 1387TIP3    H225577   0.968   6.568   5.623 -0.0066  1.9640 -0.2881
 1388TIP3   OH225578   4.357   4.616   4.484 -0.1308  0.2384 -0.6241
 1388TIP3    H125579   4.352   4.543   4.423 -0.0054  0.6342 -1.1176
 1388TIP3    H225580   4.451   4.631   4.495 -0.1568  0.4582 -0.6941
 1389TIP3   OH225581   0.147   1.963   4.658  0.2133 -0.1092  0.3392
 1389TIP3    H125582   0.058   1.989   4.680 -0.0624 -1.2750  0.7084
 1389TIP3    H225583   0.156   1.876   4.696  1.2847 -0.2901 -0.2838
 1390TIP3   OH225584   5.638   1.249   1.457  0.6994  0.3431  0.3623
 1390TIP3    H125585   5.643   1.290   1.371 -0.4993  0.3593  0.2842
 1390TIP3    H225586   5.608   1.160   1.440 -2.8017  1.2590  0.9112
 1391TIP3   OH225587   6.282   5.425   5.065 -0.1890  0.1894  0.3040
 1391TIP3    H125588   6.357   5.370   5.042  0.1870  1.2781 -1.2359
 1391TIP3    H225589   6.263   5.403   5.157  0.4970 -1.8116  0.0031
 1392TIP3   OH225590   4.538   3.293   5.718 -0.5878 -0.0723 -0.4160
 1392TIP3    H125591   4.546   3.385   5.743  0.9168 -0.5130  0.8827
 1392TIP3    H225592   4.485   3.254   5.788 -1.0156 -0.2448 -0.8352
 1393TIP3   OH225593   1.937   1.814  11.501  0.3905 -0.1368  0.2356
 1393TIP3    H125594   1.923   1.862  11.419  0.6498 -0.4861 -0.0160
 1393TIP3    H225595   1.962   1.726  11.473  0.0168 -0.3954  0.6910
 1394TIP3   OH225596   4.847   2.897   1.969 -0.2776 -0.5435 -1.1836
 1394TIP3    H125597   4.892   2.814   1.952  0.2854 -0.3862 -0.5115
 1394TIP3    H225598   4.876   2.955   1.898  0.1704 -0.6069 -1.0578
 1395TIP3   OH225599   3.823   6.607  16.361 -0.5413  0.7185 -0.3721
 1395TIP3    H125600   3.798   6.619  16.452  0.9034 -0.1300  0.1727
 1395TIP3    H225601   3.904   6.556  16.365 -0.1073  1.2026 -2.1012
 1396TIP3   OH225602   4.033   2.642   0.135  0.6060 -0.1800  0.0101
 1396TIP3    H125603   4.035   2.604   0.047  0.7605  1.1031 -0.5634
 1396TIP3    H225604   4.045   2.736   0.120 -0.8969  0.2405  1.2881
 1397TIP3   OH225605   5.117   5.900  16.150  0.2775 -0.4369 -0.5845
 1397TIP3    H125606   5.129   5.983  16.196 -0.6173 -0.0148 -1.0678
 1397TIP3    H225607   5.067   5.846  16.211 -0.5437 -0.0296 -0.8825
 1398TIP3   OH225608   4.406   6.160   0.895 -0.0751 -0.3707  0.0784
 1398TIP3    H125609   4.362   6.118   0.969 -0.8803  1.8178  0.9148
 1398TIP3    H225610   4.484   6.200   0.933 -1.5947  2.6370  0.3098
 1399TIP3   OH225611   3.517   4.005   5.773  0.2225 -0.4317  0.3224
 1399TIP3    H125612   3.591   4.043   5.820 -0.5193  0.4943  0.7916
 1399TIP3    H225613   3.530   4.033   5.682  0.5535 -0.4446  0.3646
 1400TIP3   OH225614   3.591   5.423   2.574 -0.5144 -0.3631 -0.1482
 1400TIP3    H125615   3.594   5.368   2.652 -1.2029  1.2816  1.0815
 1400TIP3    H225616   3.501   5.413   2.542 -1.4373  1.8780  1.5170
 1401TIP3   OH225617   5.300   0.706   5.108 -0.3074  0.4070  0.1975
 1401TIP3    H125618   5.230   0.728   5.046  0.6031  0.6090 -0.7764
 1401TIP3    H225619   5.284   0.614   5.130 -2.0987  1.0109  1.6158
 1402TIP3   OH225620   6.428   5.190  15.172 -0.3977  0.5315  0.2541
 1402TIP3    H125621   6.409   5.133  15.098  0.1046  0.4882  0.1486
 1402TIP3    H225622   6.499   5.145  15.219  0.6398  1.4766 -0.3348
 1403TIP3   OH225623   1.885   3.592   4.145  0.0449  0.1241  0.0707
 1403TIP3    H125624   1.919   3.594   4.234 -0.5929  0.2360  0.3195
 1403TIP3    H225625   1.861   3.683   4.126  1.1770  0.3004 -0.6227
 1404TIP3   OH225626   0.246   2.817   3.944  0.3758 -0.6301  0.5622
 1404TIP3    H125627   0.248   2.909   3.969  1.3827 -0.8780  1.4482
 1404TIP3    H225628   0.161   2.806   3.902  0.4273  0.8018  0.0237
 1405TIP3   OH225629   5.844   0.844   0.505  0.1778  0.4117  0.0368
 1405TIP3    H125630   5.808   0.766   0.548 -1.3990  0.2274 -1.5078
 1405TIP3    H225631   5.768   0.896   0.481  1.0152  0.8340 -1.8755
 1406TIP3   OH225632   0.194   2.421  12.933  0.0129 -0.4262 -0.2175
 1406TIP3    H125633   0.247   2.437  13.011  1.3280 -2.0838 -0.7082
 1406TIP3    H225634   0.187   2.507  12.892  2.6444 -0.1424 -0.2905
 1407TIP3   OH225635   3.259   1.705  16.817 -0.5383 -0.0481  0.1616
 1407TIP3    H125636   3.165   1.717  16.804 -0.1651  0.9199 -2.4093
 1407TIP3    H225637   3.267   1.659  16.900 -3.3952 -2.2679 -0.6372
 1408TIP3   OH225638   5.750   4.016  16.717  0.3425 -0.2513 -0.2923
 1408TIP3    H125639   5.687   4.088  16.721 -0.2262 -0.7531  0.0074
 1408TIP3    H225640   5.767   4.005  16.623 -1.2499 -1.1328 -0.5258
 1409TIP3   OH225641   4.939   4.569   5.647  0.1943  0.2454 -0.3688
 1409TIP3    H125642   4.985   4.638   5.696 -0.0286  0.4301 -0.4203
 1409TIP3    H225643   4.855   4.608   5.623 -0.7019 -0.6573  1.1731
 1410TIP3   OH225644   4.375   4.137   4.128  0.4134 -0.4070  0.5039
 1410TIP3    H125645   4.412   4.050   4.112  0.5575  0.1352 -2.6987
 1410TIP3    H225646   4.429   4.197   4.077 -1.3461  1.2031  0.4065
 1411TIP3   OH225647   2.839   3.835  13.741  0.2869  0.3723  0.4555
 1411TIP3    H125648   2.795   3.908  13.697 -0.6404 -0.3582  0.1493
 1411TIP3    H225649   2.877   3.783  13.670  0.3399  0.1707  0.6304
 1412TIP3   OH225650   1.221   6.639  17.151  0.4987  1.0804  0.2111
 1412TIP3    H125651   1.194   6.567  17.093  0.1714  0.3896  1.1966
 1412TIP3    H225652   1.139   6.681  17.176  0.3867 -0.0777  1.9996
 1413TIP3   OH225653   2.925   3.230  15.048  0.2286  0.1423 -0.2523
 1413TIP3    H125654   2.984   3.271  14.985  0.5262  1.4890  0.8668
 1413TIP3    H225655   2.936   3.136  15.033  1.0064  0.4067 -1.5343
 1414TIP3   OH225656   6.224   5.210  14.079  0.3823 -0.1492  0.2122
 1414TIP3    H125657   6.206   5.134  14.135  0.8823 -1.0098 -0.7580
 1414TIP3    H225658   6.213   5.285  14.137  0.4560 -0.9846  1.3566
 1415TIP3   OH225659   5.804   4.640  15.012 -0.0289  0.1530  0.5231
 1415TIP3    H125660   5.759   4.631  14.928  0.6122 -2.0091  0.3362
 1415TIP3    H225661   5.774   4.565  15.063  3.3680 -1.5419  0.3071
 1416TIP3   OH225662   2.344   4.828   6.433 -0.5097  0.4251  0.6104
 1416TIP3    H125663   2.423   4.792   6.473 -0.5910 -0.0661  0.3434
 1416TIP3    H225664   2.273   4.798   6.490 -0.7194 -1.0521 -0.3610
 1417TIP3   OH225665   4.498   1.015  16.537  0.2238 -0.2771  0.3987
 1417TIP3    H125666   4.590   1.028  16.559  0.1746  0.1207  0.3816
 1417TIP3    H225667   4.476   0.930  16.574  0.5526 -0.2943  0.5559
 1418TIP3   OH225668   2.257   1.927   3.269 -0.0412  0.3599 -0.5232
 1418TIP3    H125669   2.333   1.985   3.279  1.4360 -1.7724  2.4141
 1418TIP3    H225670   2.293   1.839   3.276 -2.6354 -0.7930 -0.4320
 1419TIP3   OH225671   4.635   5.455  13.975  0.3026 -0.2598  0.4738
 1419TIP3    H125672   4.638   5.406  14.057  1.0083 -3.0133 -1.0824
 1419TIP3    H225673   4.649   5.389  13.907  1.4096  2.1492 -1.8052
 1420TIP3   OH225674   2.167   4.060  16.965  0.4175 -0.0145  0.2083
 1420TIP3    H125675   2.164   3.964  16.964 -0.2372 -0.1143 -3.5046
 1420TIP3    H225676   2.259   4.081  16.980  0.7319 -1.2747  0.1749
 1421TIP3   OH225677   1.936   0.728  13.465 -0.7302 -0.3879 -0.5971
 1421TIP3    H125678   1.977   0.804  13.507 -1.6972 -0.4817  0.5714
 1421TIP3    H225679   2.010   0.674  13.437 -0.0302  0.1713  0.1033
 1422TIP3   OH225680   3.358   4.967  15.229  0.0557  0.0145  0.3072
 1422TIP3    H125681   3.430   4.938  15.172  0.7096 -1.4478  1.7905
 1422TIP3    H225682   3.282   4.968  15.171  0.8188 -0.7743 -0.7624
 1423TIP3   OH225683   6.728   4.185   1.068 -0.1652  0.5252  0.5062
 1423TIP3    H125684   6.673   4.165   1.144 -0.5669  0.2526  0.1442
 1423TIP3    H225685   6.806   4.226   1.106  1.0597 -2.3485  1.3986
 1424TIP3   OH225686   4.546   0.916   0.399  0.5234  0.0715  0.0235
 1424TIP3    H125687   4.597   0.995   0.418 -0.2094  0.6491 -0.3644
 1424TIP3    H225688   4.543   0.911   0.304 -0.8823  0.5600  0.0130
 1425TIP3   OH225689   4.865   2.231   2.313  0.0866  0.1094  0.1781
 1425TIP3    H125690   4.900   2.265   2.395 -0.0272  0.3868  0.1127
 1425TIP3    H225691   4.932   2.252   2.248  0.2524 -0.2580  0.2260
 1426TIP3   OH225692   1.540   2.070   0.815  0.2105 -0.6112  0.3888
 1426TIP3    H125693   1.511   2.031   0.733 -0.7435 -0.8072  0.8086
 1426TIP3    H225694   1.477   2.140   0.832  2.6045  2.0897 -1.0107
 1427TIP3   OH225695   5.102   4.874  12.930 -0.1345  0.1110  0.0179
 1427TIP3    H125696   5.082   4.963  12.960 -0.3282  0.4768 -1.1265
 1427TIP3    H225697   5.083   4.876  12.836 -0.7934 -1.3257  0.0888
 1428TIP3   OH225698   5.672   4.165   1.913 -0.0627  0.2117  0.6359
 1428TIP3    H125699   5.646   4.145   2.003 -0.1374 -2.0275  0.1592
 1428TIP3    H225700   5.590   4.174   1.866 -0.0516 -1.3048  0.2763
 1429TIP3   OH225701   2.390   5.729  14.211 -0.3381 -0.1668  1.1103
 1429TIP3    H125702   2.366   5.694  14.125 -2.2634 -0.5314  1.7385
 1429TIP3    H225703   2.404   5.822  14.197 -0.4896 -0.2536  0.3754
 1430TIP3   OH225704   6.512   3.922  13.571 -0.3610  0.3211  0.7658
 1430TIP3    H125705   6.479   3.909  13.482  1.5001 -0.5517  0.1501
 1430TIP3    H225706   6.485   3.843  13.618 -2.2112  1.2195  1.3103
 1431TIP3   OH225707   0.209   5.747  12.533 -0.2265  0.1544  0.2750
 1431TIP3    H125708   0.224   5.789  12.448  1.1835 -0.1355  0.3563
 1431TIP3    H225709   0.165   5.664  12.510  0.2135  0.0416 -0.1816
 1432TIP3   OH225710   5.856   5.112   2.059 -0.2118  0.0364  0.0800
 1432TIP3    H125711   5.789   5.090   1.995  0.1360 -1.5390  0.1927
 1432TIP3    H225712   5.809   5.155   2.130 -0.7628  0.8248 -0.7558
 1433TIP3   OH225713   3.344   1.352  12.689 -0.8291  0.0361 -0.1729
 1433TIP3    H125714   3.290   1.273  12.685 -0.0497 -0.4641 -1.1818
 1433TIP3    H225715   3.368   1.359  12.782 -1.6116 -0.4231  0.0718
 1434TIP3   OH225716   3.748   6.171  16.649 -0.0067 -0.1389  0.1769
 1434TIP3    H125717   3.691   6.191  16.574  1.4189 -0.1698 -0.9739
 1434TIP3    H225718   3.692   6.123  16.710 -1.0653 -0.6302 -1.1302
 1435TIP3   OH225719   6.022   0.049   2.874 -0.1945  0.0474 -0.1404
 1435TIP3    H125720   6.039   0.055   2.780  0.9529  2.2207  0.1481
 1435TIP3    H225721   6.102   0.012   2.911 -0.4614 -0.3528  0.0483
 1436TIP3   OH225722   2.310   0.291  13.137 -0.4037  0.2505  0.5675
 1436TIP3    H125723   2.327   0.357  13.204 -0.0582  0.4005  0.3362
 1436TIP3    H225724   2.366   0.317  13.063 -0.4552 -0.1556  0.3819
 1437TIP3   OH225725   6.773   4.331   3.346 -0.3763 -0.1138  0.0975
 1437TIP3    H125726   6.868   4.325   3.358 -0.4627 -0.5166  0.6082
 1437TIP3    H225727   6.760   4.416   3.304  0.3912 -0.8997 -1.8816
 1438TIP3   OH225728   2.223   5.817  13.841  0.3168 -0.1810  0.3598
 1438TIP3    H125729   2.205   5.891  13.782 -1.2749  0.1231  1.1873
 1438TIP3    H225730   2.149   5.815  13.901  1.4199 -1.0988  1.7579
 1439TIP3   OH225731   6.138   4.858  13.766  0.2123 -0.1974 -0.5948
 1439TIP3    H125732   6.055   4.904  13.763  0.3279  0.0294 -0.3669
 1439TIP3    H225733   6.202   4.924  13.792  0.1645 -0.7618  1.0876
 1440TIP3   OH225734   6.511   4.558  14.002 -0.5986  0.0153  0.0361
 1440TIP3    H125735   6.452   4.488  13.974 -0.4079  0.1397 -0.7057
 1440TIP3    H225736   6.481   4.635  13.953 -1.5069  0.7432  1.6527
 1441TIP3   OH225737   6.498   4.797   4.144 -1.0547 -0.2655  0.4747
 1441TIP3    H125738   6.465   4.739   4.212 -2.0748 -0.2396  0.0155
 1441TIP3    H225739   6.593   4.797   4.156 -1.0379 -1.9909  0.5129
 1442TIP3   OH225740   6.199   6.628   3.316  0.3427  1.1370  0.5047
 1442TIP3    H125741   6.182   6.560   3.381  1.0854  0.8723  0.4235
 1442TIP3    H225742   6.151   6.600   3.238 -0.3556  1.3369  0.8521
 1443TIP3   OH225743   2.959   4.292  17.049  0.1842 -0.4771 -0.0887
 1443TIP3    H125744   3.016   4.354  17.095 -1.1095 -0.5172  1.6422
 1443TIP3    H225745   2.926   4.342  16.974  0.2450  0.5017  0.5076
 1444TIP3   OH225746   5.043   5.113   0.726  0.1279  0.3503  0.1354
 1444TIP3    H125747   5.135   5.135   0.709  0.2129  0.3413  0.5840
 1444TIP3    H225748   4.999   5.131   0.643  0.6793 -0.4657 -0.3512
 1445TIP3   OH225749   3.564   0.029   4.042 -0.2479  0.2143  0.0105
 1445TIP3    H125750   3.527   0.114   4.065 -2.1342 -0.5074 -0.2144
 1445TIP3    H225751   3.495  -0.015   3.994  0.8929 -1.2596 -0.3482
 1446TIP3   OH225752   6.027   4.182   4.386  0.5861 -0.2022 -0.0587
 1446TIP3    H125753   5.963   4.179   4.315 -0.4083  1.1418  0.7457
 1446TIP3    H225754   6.069   4.096   4.383  1.0829  0.0255 -2.6988
 1447TIP3   OH225755   2.266   1.476   0.467 -0.1527 -0.1263  0.3613
 1447TIP3    H125756   2.195   1.515   0.517  0.2720  0.5916  0.4172
 1447TIP3    H225757   2.230   1.394   0.433 -0.9093  0.0934  0.6295
 1448TIP3   OH225758   5.122   4.742  12.544 -0.4303 -0.3469 -0.1797
 1448TIP3    H125759   5.217   4.730  12.544 -0.6028 -2.0609 -0.6856
 1448TIP3    H225760   5.105   4.805  12.614  1.2772  2.0617 -1.7486
 1449TIP3   OH225761   3.925   2.053  15.358 -0.1586  0.1504  0.1733
 1449TIP3    H125762   3.984   2.061  15.433  0.2510 -0.4634 -0.0826
 1449TIP3    H225763   3.924   2.141  15.320 -0.0955  0.3813  0.6881
 1450TIP3   OH225764   0.592   0.988   2.162 -0.4913 -0.1595  0.1072
 1450TIP3    H125765   0.553   1.050   2.101 -0.9695  0.2700  0.8451
 1450TIP3    H225766   0.686   0.993   2.144 -0.6593 -0.3738 -0.8970
 1451TIP3   OH225767   1.634   6.366  16.677 -0.7206 -0.4180  0.4326
 1451TIP3    H125768   1.684   6.346  16.598 -2.2843 -0.7533 -0.5023
 1451TIP3    H225769   1.601   6.455  16.663 -1.1625 -0.5514  0.6092
 1452TIP3   OH225770   5.798   3.527  15.822  0.4698  0.1457 -0.0667
 1452TIP3    H125771   5.874   3.583  15.804 -0.5025  1.3298 -0.6417
 1452TIP3    H225772   5.789   3.473  15.743  0.0165  0.8603 -0.5201
 1453TIP3   OH225773   5.523   2.385  11.260  0.9327  0.3371 -0.7747
 1453TIP3    H125774   5.582   2.453  11.294 -0.8822  1.1859  0.8694
 1453TIP3    H225775   5.451   2.435  11.220 -0.5626 -0.5583  0.6839
 1454TIP3   OH225776   3.540   2.983  15.553 -0.1323  0.3367  0.5168
 1454TIP3    H125777   3.580   3.064  15.521 -0.2990 -0.3399 -1.5379
 1454TIP3    H225778   3.518   3.001  15.644  0.5343  2.3265  0.3215
 1455TIP3   OH225779   5.059   2.262  17.127 -0.4263  0.2998 -0.1605
 1455TIP3    H125780   4.971   2.273  17.091  0.3885 -0.4171 -2.6031
 1455TIP3    H225781   5.113   2.324  17.077  0.9387 -1.4435 -0.9505
 1456TIP3   OH225782   6.072   5.543   4.452 -0.5371  0.2995  0.4490
 1456TIP3    H125783   6.101   5.459   4.416 -2.0131  0.1491 -0.4458
 1456TIP3    H225784   6.018   5.519   4.528  0.2449  0.5182  1.0922
 1457TIP3   OH225785   1.260   2.078   2.282 -0.0816 -0.0671 -0.0260
 1457TIP3    H125786   1.191   2.144   2.289  0.7984  0.9620 -0.5913
 1457TIP3    H225787   1.260   2.053   2.190  0.7263  0.4632 -0.1872
 1458TIP3   OH225788   4.291   0.298  13.351 -0.2786  0.1859 -0.1850
 1458TIP3    H125789   4.334   0.302  13.436  0.5846 -2.0486 -0.4431
 1458TIP3    H225790   4.231   0.224  13.358 -0.9245  0.5808 -1.2178
 1459TIP3   OH225791   3.843   6.376  13.343  0.1383  0.4969 -0.3828
 1459TIP3    H125792   3.880   6.436  13.408 -0.0429 -0.4097  0.5741
 1459TIP3    H225793   3.749   6.385  13.354  0.1009  0.6180 -0.7898
 1460TIP3   OH225794   4.075   3.911   3.066  0.2746  0.2820 -0.2109
 1460TIP3    H125795   4.135   3.839   3.084  0.1588 -0.2690 -1.8767
 1460TIP3    H225796   4.128   3.990   3.077  1.1217 -0.1701 -0.9233
 1461TIP3   OH225797   3.049   1.973  11.590  0.2325  0.0553 -0.1538
 1461TIP3    H125798   3.037   2.066  11.610  0.3044  0.4638 -1.8947
 1461TIP3    H225799   2.993   1.957  11.514  1.5369 -0.8895 -0.9664
 1462TIP3   OH225800   6.172   0.901  17.135 -0.0512  0.2515  0.1776
 1462TIP3    H125801   6.244   0.954  17.169  1.4114 -1.3537 -0.3075
 1462TIP3    H225802   6.098   0.923  17.192  1.4361  0.1324  2.2886
 1463TIP3   OH225803   0.888   0.954   1.683 -0.2867 -0.5927  0.6813
 1463TIP3    H125804   0.879   1.048   1.698 -0.0899 -0.2625 -0.9939
 1463TIP3    H225805   0.978   0.934   1.705 -0.3134 -0.3746  0.9869
 1464TIP3   OH225806   3.532   4.474   0.454 -0.3395  0.4104 -0.2362
 1464TIP3    H125807   3.553   4.567   0.452  0.6902  0.2659  1.5835
 1464TIP3    H225808   3.603   4.432   0.406  1.6624  0.2632  2.6127
 1465TIP3   OH225809   2.631   5.415   6.257  0.3459 -0.2694  0.1912
 1465TIP3    H125810   2.586   5.423   6.342 -1.2055 -0.2475 -0.5993
 1465TIP3    H225811   2.598   5.488   6.205  0.4542 -0.9018 -0.7940
 1466TIP3   OH225812   2.130   2.418  10.351 -0.4428  0.4765  0.0222
 1466TIP3    H125813   2.170   2.336  10.322  0.4664  1.2632 -1.0829
 1466TIP3    H225814   2.160   2.430  10.441  1.5083  0.8198 -0.6306
 1467TIP3   OH225815   4.799   3.834  12.723 -0.0857 -0.3634 -0.4960
 1467TIP3    H125816   4.746   3.761  12.756 -0.0400 -0.0598  0.2685
 1467TIP3    H225817   4.802   3.896  12.795  1.6726 -0.5506 -0.3715
 1468TIP3   OH225818   5.727   3.319   2.379 -0.1822  0.3502 -0.4287
 1468TIP3    H125819   5.753   3.399   2.424 -0.2719  0.1562 -0.0278
 1468TIP3    H225820   5.675   3.271   2.443  1.5112 -0.9557  0.0672
 1469TIP3   OH225821   2.867   0.404   6.301  0.6288 -0.3337  0.2091
 1469TIP3    H125822   2.806   0.381   6.372  0.4170 -1.1398 -0.2263
 1469TIP3    H225823   2.889   0.496   6.318 -4.7774  1.9221 -2.4808
 1470TIP3   OH225824   2.872   4.431  16.810  0.4270 -0.3687  0.3160
 1470TIP3    H125825   2.903   4.520  16.825  0.7400 -0.5102  0.5345
 1470TIP3    H225826   2.935   4.393  16.750  0.9022 -0.7775  1.0547
 1471TIP3   OH225827   1.046   5.345   0.706 -0.0935  0.2903 -0.6014
 1471TIP3    H125828   1.116   5.397   0.744 -0.4105  0.3766 -0.1124
 1471TIP3    H225829   1.068   5.337   0.614  2.3715 -2.4843  0.0550
 1472TIP3   OH225830   3.909   0.563  11.470 -0.3364  0.1418 -0.1685
 1472TIP3    H125831   3.948   0.530  11.389  0.9966  0.4120  0.3299
 1472TIP3    H225832   3.821   0.525  11.472  0.1471 -1.0896 -0.9945
 1473TIP3   OH225833   2.466   2.823   5.788 -0.6278  0.4673 -0.2807
 1473TIP3    H125834   2.385   2.796   5.746 -0.8853  0.2718  0.3354
 1473TIP3    H225835   2.440   2.895   5.846 -0.6631 -0.6514  1.1459
 1474TIP3   OH225836   2.276   2.334   0.736  0.2633  0.8260 -0.0858
 1474TIP3    H125837   2.290   2.360   0.827  1.1977 -0.1179  0.0579
 1474TIP3    H225838   2.322   2.251   0.728  0.7036  1.1910 -1.5824
 1475TIP3   OH225839   3.849   5.705   2.631  0.4320  0.4048  0.1723
 1475TIP3    H125840   3.794   5.643   2.678  0.4141  0.0876 -0.2577
 1475TIP3    H225841   3.935   5.698   2.672  1.2747 -2.1561 -1.7785
 1476TIP3   OH225842   6.020   4.685  14.687  0.0928  0.2561 -0.3156
 1476TIP3    H125843   6.076   4.696  14.764  0.6021 -0.3776 -0.5850
 1476TIP3    H225844   6.073   4.635  14.626 -0.2794  0.8131 -1.1144
 1477TIP3   OH225845   6.787   0.342   3.365  0.2000 -0.1738  0.1923
 1477TIP3    H125846   6.725   0.268   3.360  1.0795 -0.8718 -1.1149
 1477TIP3    H225847   6.795   0.361   3.458 -1.7047 -0.2945  0.4189
 1478TIP3   OH225848   6.605   3.811   3.464  0.0823  0.3488 -0.0581
 1478TIP3    H125849   6.663   3.742   3.495 -0.0417  0.0884 -0.4007
 1478TIP3    H225850   6.554   3.837   3.542  0.0531 -0.0186  0.0441
 1479TIP3   OH225851   2.733   4.391  15.047 -0.5068 -0.2822 -0.5781
 1479TIP3    H125852   2.657   4.340  15.076 -0.3195  0.3748  1.1548
 1479TIP3    H225853   2.696   4.457  14.988 -1.4266  0.4517  0.7517
 1480TIP3   OH225854   0.385   2.739  16.636 -0.1517  0.2501 -0.0102
 1480TIP3    H125855   0.348   2.727  16.724 -1.0401 -0.2001 -0.4373
 1480TIP3    H225856   0.387   2.652  16.598  0.5750  0.3864 -0.3213
 1481TIP3   OH225857   4.227   5.577   6.471  0.0021  0.4639 -0.0911
 1481TIP3    H125858   4.223   5.534   6.556  0.0319 -0.8879 -0.7413
 1481TIP3    H225859   4.260   5.665   6.490  0.7652 -0.0667  1.2056
 1482TIP3   OH225860   0.786   0.273  16.014  0.0912  0.2471  0.1438
 1482TIP3    H125861   0.830   0.222  16.082 -2.5230 -0.9141  1.1059
 1482TIP3    H225862   0.794   0.364  16.043  1.2091 -0.0009  0.6430
 1483TIP3   OH225863   6.740   0.409  15.688 -0.3078 -0.1096  0.1449
 1483TIP3    H125864   6.704   0.491  15.720 -1.0350 -0.8814  1.3450
 1483TIP3    H225865   6.829   0.406  15.725 -0.0450  0.4034 -0.4125
 1484TIP3   OH225866   1.231   5.909  16.063 -0.4561 -0.2253 -0.0238
 1484TIP3    H125867   1.219   5.930  16.156 -0.2850  1.1876 -0.2996
 1484TIP3    H225868   1.178   5.974  16.017  0.0440 -0.4458 -0.9339
 1485TIP3   OH225869   0.538   6.325  14.048  0.5989  0.5331  0.2994
 1485TIP3    H125870   0.482   6.314  13.971 -2.2267  1.3530  2.0993
 1485TIP3    H225871   0.548   6.419  14.057  2.1818  0.4085  0.1360
 1486TIP3   OH225872   4.426   5.654  13.394 -0.1589  0.1039 -0.1666
 1486TIP3    H125873   4.508   5.610  13.374  0.1354  1.1311 -1.2807
 1486TIP3    H225874   4.358   5.590  13.370  0.2748  0.0404 -1.2820
 1487TIP3   OH225875   6.482   4.854  11.254 -0.1837 -0.8125  0.5818
 1487TIP3    H125876   6.489   4.867  11.348 -0.5772 -2.3682  0.8568
 1487TIP3    H225877   6.560   4.804  11.231 -0.7242 -1.5527  0.3196
 1488TIP3   OH225878   4.753   2.951   4.067  0.3960  0.4208 -0.0193
 1488TIP3    H125879   4.752   3.035   4.112 -1.1947  0.8101 -0.7149
 1488TIP3    H225880   4.808   2.965   3.990  0.2269  0.8163 -0.0726
 1489TIP3   OH225881   1.216   0.102   5.709 -0.3461  0.0204  0.0893
 1489TIP3    H125882   1.293   0.158   5.718  0.2982 -0.8094 -0.1674
 1489TIP3    H225883   1.146   0.162   5.683  0.0510  0.8901  0.9514
 1490TIP3   OH225884   1.140   4.119   0.168  0.5832  0.6385  0.3345
 1490TIP3    H125885   1.062   4.065   0.162  1.7901 -1.1088 -0.9546
 1490TIP3    H225886   1.111   4.200   0.211 -1.8958  0.0791 -0.1302
 1491TIP3   OH225887   3.598   5.981  16.855 -0.3810 -0.0933 -0.2081
 1491TIP3    H125888   3.600   5.955  16.947  0.8820  1.5713  0.2898
 1491TIP3    H225889   3.529   5.928  16.816 -1.2950 -0.4724  1.8097
 1492TIP3   OH225890   4.185   3.255  13.996 -0.2718  0.0376  0.1764
 1492TIP3    H125891   4.105   3.302  13.971  0.3029  0.5564 -0.7500
 1492TIP3    H225892   4.174   3.237  14.089 -0.5672  1.9166  0.5482
 1493TIP3   OH225893   2.176   2.353   1.836  0.3735 -0.0111  0.3556
 1493TIP3    H125894   2.133   2.412   1.774  1.2364  1.1462  0.8160
 1493TIP3    H225895   2.138   2.375   1.921  0.8588  0.0360  0.5636
 1494TIP3   OH225896   0.887   5.760  16.092 -0.0896  0.0405  0.1224
 1494TIP3    H125897   0.806   5.811  16.088  1.1106  2.1641  1.1399
 1494TIP3    H225898   0.945   5.802  16.029  0.9762 -0.0002  1.0563
 1495TIP3   OH225899   3.224   0.769  11.490  0.2587 -0.3172 -0.1783
 1495TIP3    H125900   3.174   0.797  11.413  1.8720  1.1136 -0.7699
 1495TIP3    H225901   3.267   0.849  11.520  2.5807 -1.5464 -0.0330
 1496TIP3   OH225902   2.160   2.999   1.292  0.1527  0.0766  0.2066
 1496TIP3    H125903   2.084   3.057   1.292 -1.1425 -1.5267 -1.2337
 1496TIP3    H225904   2.154   2.951   1.210  2.4172 -0.5419  0.3331
 1497TIP3   OH225905   6.262   3.923   0.812 -0.4358  0.2741  0.4449
 1497TIP3    H125906   6.292   3.985   0.878 -0.6245  1.1879 -0.3117
 1497TIP3    H225907   6.190   3.968   0.767 -0.0631 -0.1824 -0.6392
 1498TIP3   OH225908   5.546   5.382   3.324  0.1089  0.1888 -0.6344
 1498TIP3    H125909   5.501   5.304   3.292  1.0984 -0.0926 -1.4040
 1498TIP3    H225910   5.525   5.386   3.417  0.0179 -0.9771 -0.5944
 1499TIP3   OH225911   0.417   4.343   5.749  0.4279 -0.2991 -0.0799
 1499TIP3    H125912   0.387   4.373   5.835  1.3784  1.8011 -0.4212
 1499TIP3    H225913   0.490   4.400   5.728  0.2812 -0.8369 -2.2647
 1500TIP3   OH225914   2.090   3.671   0.484  0.0030 -0.0026 -0.5004
 1500TIP3    H125915   2.009   3.715   0.510  0.7145  2.1021 -1.5807
 1500TIP3    H225916   2.116   3.715   0.403  2.3783 -0.3826 -0.0270
 1501TIP3   OH225917   3.413   4.538  16.796  0.0601  0.4139 -0.0405
 1501TIP3    H125918   3.476   4.480  16.755 -1.4510 -0.2214 -1.5721
 1501TIP3    H225919   3.445   4.549  16.885  2.3232  0.1526 -0.7566
 1502TIP3   OH225920   3.373   1.431  15.641  0.3873 -0.1576  0.7055
 1502TIP3    H125921   3.405   1.386  15.563  0.1763  0.3845  0.2999
 1502TIP3    H225922   3.418   1.387  15.714 -1.2564 -2.3259  0.5168
 1503TIP3   OH225923   2.789   1.723   1.584 -0.4131 -0.4705  0.1473
 1503TIP3    H125924   2.794   1.809   1.626 -0.2950 -0.0050 -0.8143
 1503TIP3    H225925   2.730   1.673   1.641 -2.4208  0.9773 -0.5549
 1504TIP3   OH225926   4.363   3.834   4.948  0.3624 -0.4728  0.4607
 1504TIP3    H125927   4.270   3.849   4.930  0.6905 -0.9507 -1.8296
 1504TIP3    H225928   4.367   3.742   4.976  0.0494 -0.1740  1.5389
 1505TIP3   OH225929   2.925   5.952   4.844 -0.4864  0.4486  0.5904
 1505TIP3    H125930   2.845   5.967   4.796 -1.9884  0.4408  2.9170
 1505TIP3    H225931   2.976   5.891   4.790 -1.6461  1.1176 -1.3092
 1506TIP3   OH225932   0.862   6.241   0.078  0.4124  0.0288 -0.5050
 1506TIP3    H125933   0.944   6.191   0.085  0.8066  0.6363 -0.7601
 1506TIP3    H225934   0.818   6.204   0.002  0.3273 -0.4648 -0.2254
 1507TIP3   OH225935   6.296   3.133   5.753 -0.6843  0.2710  0.7638
 1507TIP3    H125936   6.312   3.163   5.664 -0.5148  0.4693  0.8613
 1507TIP3    H225937   6.379   3.147   5.799 -0.6085 -0.3248  0.8145
 1508TIP3   OH225938   4.906   5.685  16.043 -0.5751 -0.0185  0.3608
 1508TIP3    H125939   4.940   5.666  16.131  0.1470  0.6488  0.2410
 1508TIP3    H225940   4.976   5.656  15.984  0.5533  2.7571  0.1644
 1509TIP3   OH225941   4.027   4.681   5.542 -0.2399  0.0154 -0.1385
 1509TIP3    H125942   4.107   4.651   5.586 -0.4468 -1.1712 -0.5362
 1509TIP3    H225943   4.058   4.729   5.466  0.1049 -0.7000 -0.4575
 1510TIP3   OH225944   3.841   4.660  11.757  0.4077  0.5402  0.0108
 1510TIP3    H125945   3.920   4.628  11.715  0.2194  0.7433 -0.5048
 1510TIP3    H225946   3.816   4.738  11.707 -0.3791  0.2144 -0.1294
 1511TIP3   OH225947   0.546   4.004  13.597 -0.4870 -0.1409 -0.0062
 1511TIP3    H125948   0.603   4.006  13.674  0.1294 -2.2582 -0.3594
 1511TIP3    H225949   0.459   4.027  13.630 -0.2793 -1.2595  1.3707
 1512TIP3   OH225950   6.031   0.793   3.770  0.3148  0.3547 -0.4180
 1512TIP3    H125951   6.099   0.805   3.704  1.9573 -1.9689  0.7187
 1512TIP3    H225952   6.039   0.869   3.828  0.7574  0.9629 -1.2614
 1513TIP3   OH225953   0.109   2.095   0.114  0.5468  0.7877 -0.3574
 1513TIP3    H125954   0.060   2.014   0.105 -0.9464  1.4722  1.1638
 1513TIP3    H225955   0.089   2.144   0.034  0.1549  0.3331 -0.5399
 1514TIP3   OH225956   5.138   1.782  14.475  0.1846 -0.2267  1.0113
 1514TIP3    H125957   5.102   1.694  14.460  2.1496 -0.5841 -2.7037
 1514TIP3    H225958   5.217   1.767  14.526  0.0682 -0.4875  1.1199
 1515TIP3   OH225959   5.230   5.290   5.838 -0.2633 -0.5690  0.1087
 1515TIP3    H125960   5.304   5.264   5.892  1.3879  0.9227 -1.3218
 1515TIP3    H225961   5.154   5.283   5.897  1.1644 -0.8695  2.0194
 1516TIP3   OH225962   5.375   0.424   1.447 -0.5992  0.0743 -0.0172
 1516TIP3    H125963   5.439   0.440   1.516  1.1526  0.2304 -1.5741
 1516TIP3    H225964   5.325   0.348   1.477  0.5856 -0.3017  1.0919
 1517TIP3   OH225965   2.506   3.780  14.017 -0.1916  0.0042 -0.2779
 1517TIP3    H125966   2.586   3.825  14.044 -0.1255 -0.8411  1.0522
 1517TIP3    H225967   2.445   3.795  14.089 -0.3783 -1.4528 -0.1132
 1518TIP3   OH225968   3.205   4.916   2.888  0.1507  0.4073  0.6179
 1518TIP3    H125969   3.183   4.935   2.797  0.8966 -3.1820 -0.4643
 1518TIP3    H225970   3.127   4.874   2.924  0.4183  0.3301  1.1236
 1519TIP3   OH225971   2.352   1.155  15.764 -0.1525  0.1700  0.2322
 1519TIP3    H125972   2.370   1.134  15.856 -0.3822  0.2380  0.2932
 1519TIP3    H225973   2.293   1.086  15.734 -0.0383  0.1198  0.1202
 1520TIP3   OH225974   1.480   3.916   0.304  0.3613  0.0997  0.2070
 1520TIP3    H125975   1.530   3.982   0.353  0.2938  1.1284 -1.0333
 1520TIP3    H225976   1.390   3.927   0.334  0.1813  1.2946 -0.6971
 1521TIP3   OH225977   4.912   6.024  14.135  0.4011  0.8061  0.2312
 1521TIP3    H125978   4.890   5.956  14.198  0.7879  2.3350  2.0845
 1521TIP3    H225979   4.827   6.059  14.107  0.1878 -0.5381 -0.9277
 1522TIP3   OH225980   6.312   2.090  13.578 -0.2819  0.2423 -0.2215
 1522TIP3    H125981   6.285   2.083  13.669 -1.5151  2.2013 -0.3818
 1522TIP3    H225982   6.407   2.079  13.579 -0.2502  0.5165  1.3288
 1523TIP3   OH225983   0.338   0.453  16.725 -0.0455 -0.3736  0.3368
 1523TIP3    H125984   0.406   0.389  16.746  0.5430 -0.0693 -0.5910
 1523TIP3    H225985   0.318   0.495  16.809  0.4786 -0.8851  0.7240
 1524TIP3   OH225986   3.541   2.262  13.222 -0.1084  0.6479 -0.4594
 1524TIP3    H125987   3.572   2.288  13.309 -0.7735  0.7184 -0.2381
 1524TIP3    H225988   3.484   2.187  13.237  0.6140 -0.0293 -0.9520
 1525TIP3   OH225989   0.944   5.574   5.344 -0.3096  0.4130 -1.0994
 1525TIP3    H125990   0.901   5.489   5.360  0.4445  0.3124  0.6855
 1525TIP3    H225991   0.894   5.636   5.397  0.4841  0.6609 -0.6221
 1526TIP3   OH225992   2.091   4.640  16.604  0.0242 -0.4239  0.4761
 1526TIP3    H125993   2.003   4.664  16.573  0.4732  0.4658 -0.1635
 1526TIP3    H225994   2.137   4.724  16.611  0.8055 -0.8785  0.8857
 1527TIP3   OH225995   4.329   4.791  16.256  0.0239 -0.0264 -0.0180
 1527TIP3    H125996   4.338   4.703  16.220 -0.5587  0.2765 -0.9164
 1527TIP3    H225997   4.235   4.802  16.271  0.0284  0.6351 -0.4235
 1528TIP3   OH225998   0.851   3.031  15.550 -0.0215  0.4216 -0.4647
 1528TIP3    H125999   0.790   3.064  15.484 -0.5909 -2.5067 -1.5569
 1528TIP3    H226000   0.937   3.042  15.511  0.1138  3.1023  0.4125
 1529TIP3   OH226001   5.157   3.863   2.653  0.2209  0.1222  0.0085
 1529TIP3    H126002   5.175   3.952   2.685  1.9437  0.6134 -2.1273
 1529TIP3    H226003   5.114   3.876   2.569  1.3854 -1.0109 -0.7967
 1530TIP3   OH226004   5.279   1.356   1.341 -0.5160 -0.0600 -0.5728
 1530TIP3    H126005   5.280   1.317   1.428 -1.6125  0.5331 -0.2767
 1530TIP3    H226006   5.246   1.286   1.284 -0.9029 -0.0877 -0.3187
 1531TIP3   OH226007   6.073   0.589   5.364 -0.5534 -0.3387  0.3916
 1531TIP3    H126008   6.164   0.587   5.334 -1.6846  1.1253 -3.9915
 1531TIP3    H226009   6.048   0.497   5.372  0.6286 -0.8287 -1.0469
 1532TIP3   OH226010   2.981   0.530   3.614  0.1079  0.0901  0.0362
 1532TIP3    H126011   3.026   0.589   3.675 -0.5779  1.6104 -0.8737
 1532TIP3    H226012   2.969   0.581   3.535 -0.9243 -1.1304 -0.6440
 1533TIP3   OH226013   5.818   4.408   3.394 -0.2419  0.1899  0.1824
 1533TIP3    H126014   5.740   4.371   3.352  0.0433 -0.0025 -0.1814
 1533TIP3    H226015   5.888   4.395   3.330  0.9140 -2.9166  1.8914
 1534TIP3   OH226016   0.217   6.604  11.676 -0.3438  0.2046 -0.2742
 1534TIP3    H126017   0.134   6.584  11.632 -0.1046  1.0978 -1.1757
 1534TIP3    H226018   0.271   6.526  11.663 -0.4461  0.2740 -1.1838
 1535TIP3   OH226019   2.485   0.042   5.628 -0.2229 -0.2097 -0.6140
 1535TIP3    H126020   2.432  -0.036   5.642 -0.7943  0.2159 -0.3692
 1535TIP3    H226021   2.506   0.072   5.716 -1.1279  0.6616 -0.6807
 1536TIP3   OH226022   3.478   6.561   2.187 -0.0599  0.6333  0.0717
 1536TIP3    H126023   3.433   6.645   2.177 -0.5080  0.2724 -1.2534
 1536TIP3    H226024   3.530   6.570   2.266 -1.0137  1.7422  0.6056
 1537TIP3   OH226025   1.862   6.600   3.950 -0.4187  0.0990  0.1038
 1537TIP3    H126026   1.913   6.598   4.031 -2.5214 -0.4871  1.5181
 1537TIP3    H226027   1.772   6.612   3.979 -1.2143  0.3018 -2.2115
 1538TIP3   OH226028   2.864   2.653  15.884 -0.3083  0.2952 -0.2315
 1538TIP3    H126029   2.879   2.690  15.971  2.1449 -0.9525 -0.0560
 1538TIP3    H226030   2.930   2.693  15.829  0.2233 -1.2582 -0.7811
 1539TIP3   OH226031   0.243   4.553   0.277  0.4275 -0.0977  0.1422
 1539TIP3    H126032   0.163   4.594   0.309  0.2700 -1.7376  2.0975
 1539TIP3    H226033   0.263   4.599   0.196 -1.3339  1.7451  0.6602
 1540TIP3   OH226034   5.999   2.913   4.358  0.1248  0.2623  0.1057
 1540TIP3    H126035   6.033   2.995   4.394 -0.5177  0.3566  0.4992
 1540TIP3    H226036   6.075   2.854   4.356  0.7738  1.0945 -0.8878
 1541TIP3   OH226037   3.422   6.526  17.045 -0.3737  0.1130 -0.3176
 1541TIP3    H126038   3.413   6.497  16.953 -3.3408 -0.5429  0.0592
 1541TIP3    H226039   3.333   6.520  17.080  0.8001 -0.4735  2.8792
 1542TIP3   OH226040   5.635   6.768  15.052 -0.4871 -0.4163  0.5786
 1542TIP3    H126041   5.591   6.852  15.067 -2.4719 -0.7938 -2.3368
 1542TIP3    H226042   5.581   6.705  15.100  0.2028 -0.2222  1.6318
 1543TIP3   OH226043   3.797   2.282  13.127 -0.2293 -0.7774  0.2904
 1543TIP3    H126044   3.774   2.312  13.215 -0.4234 -1.3747  0.4474
 1543TIP3    H226045   3.713   2.257  13.088 -0.2627  0.3392 -0.3960
 1544TIP3   OH226046   5.569   0.548   3.290 -0.1112  0.5437  0.1468
 1544TIP3    H126047   5.543   0.612   3.356  3.5178  2.1452  0.2295
 1544TIP3    H226048   5.598   0.471   3.339  0.1418  0.7271  0.2818
 1545TIP3   OH226049   0.777   4.077  16.551 -0.2680 -0.6153 -0.0903
 1545TIP3    H126050   0.696   4.124  16.529 -0.3159  0.8445  2.7746
 1545TIP3    H226051   0.842   4.115  16.492 -1.2297 -0.2590 -0.9729
 1546TIP3   OH226052   2.334   0.623   4.583 -0.0710 -0.2705  0.2648
 1546TIP3    H126053   2.273   0.559   4.546 -1.6918  1.0020  0.6141
 1546TIP3    H226054   2.352   0.591   4.671 -0.2003 -0.6818  0.1443
 1547TIP3   OH226055   0.702   3.653   3.717 -0.2408  0.1310 -0.0475
 1547TIP3    H126056   0.772   3.625   3.776 -0.1225 -0.3231 -0.4004
 1547TIP3    H226057   0.674   3.573   3.673 -0.7767  0.3567 -0.1319
 1548TIP3   OH226058   5.496   2.562  15.841 -0.1759  0.5782 -0.1742
 1548TIP3    H126059   5.493   2.639  15.785 -1.2192  0.0856 -0.8414
 1548TIP3    H226060   5.584   2.527  15.830 -0.5976  0.0370 -2.1813
 1549TIP3   OH226061   2.103   1.881   4.334 -0.0448 -0.0033  0.0628
 1549TIP3    H126062   2.130   1.809   4.391  0.5133  2.0300  2.5594
 1549TIP3    H226063   2.008   1.873   4.329 -0.0680 -0.4600  0.9710
 1550TIP3   OH226064   3.940   0.934   5.705  0.3533  0.6058 -0.9494
 1550TIP3    H126065   3.935   1.017   5.752  1.4204  0.3171 -0.2717
 1550TIP3    H226066   3.939   0.958   5.613 -0.0534  1.3181 -0.7684
 1551TIP3   OH226067   3.564   3.570  13.891 -0.2266  0.9825  0.6278
 1551TIP3    H126068   3.487   3.515  13.877  0.3549  0.4842 -0.6912
 1551TIP3    H226069   3.530   3.645  13.941 -1.1777 -0.1503  1.7678
 1552TIP3   OH226070   1.675   1.764  14.889 -0.2379  0.0062 -0.0171
 1552TIP3    H126071   1.589   1.723  14.878  0.1093 -1.0354  0.8840
 1552TIP3    H226072   1.734   1.709  14.838 -0.1339  0.9016 -0.8914
 1553TIP3   OH226073   3.447   3.656   2.690 -0.4942 -0.1019  0.4791
 1553TIP3    H126074   3.486   3.695   2.768 -0.5613 -1.3157  1.1434
 1553TIP3    H226075   3.466   3.563   2.698 -3.3370 -0.7406  0.7298
 1554TIP3   OH226076   0.527   3.723  16.089  0.4891  0.3933 -0.0673
 1554TIP3    H126077   0.573   3.650  16.046  0.0250 -0.9890  1.6945
 1554TIP3    H226078   0.588   3.752  16.157 -0.1967  0.2567  0.6053
 1555TIP3   OH226079   2.994   3.738  15.209 -0.1475 -0.1337 -0.2477
 1555TIP3    H126080   3.026   3.668  15.265  0.2869  1.3684  1.4574
 1555TIP3    H226081   2.903   3.752  15.238 -0.2278  0.0281 -0.5698
 1556TIP3   OH226082   1.148   1.149   0.004 -0.0487  0.2050  0.4171
 1556TIP3    H126083   1.139   1.058   0.032  0.4089  0.1342  0.3325
 1556TIP3    H226084   1.144   1.200   0.086 -0.0817  0.0953  0.4831
 1557TIP3   OH226085   2.959   5.756  10.969  0.4335 -0.6346 -0.4712
 1557TIP3    H126086   3.003   5.736  11.052  1.2644 -0.5648 -0.8869
 1557TIP3    H226087   2.957   5.672  10.922 -0.4458 -0.7765 -0.2025
 1558TIP3   OH226088   1.866   1.953   1.998 -0.0506 -0.0209 -0.1752
 1558TIP3    H126089   1.799   1.899   1.956  0.0699  0.9194 -1.6704
 1558TIP3    H226090   1.938   1.954   1.935  0.2675  1.2056  0.1787
 1559TIP3   OH226091   2.146   4.419  11.425  0.5262  0.5205 -0.2869
 1559TIP3    H126092   2.222   4.392  11.373  0.6731 -0.5449  0.4227
 1559TIP3    H226093   2.113   4.498  11.383  1.5523  0.5394 -1.0776
 1560TIP3   OH226094   2.912   3.485  12.969  0.0808 -0.3119 -0.4938
 1560TIP3    H126095   2.887   3.548  12.902 -0.6259  0.7917  0.7722
 1560TIP3    H226096   2.991   3.521  13.008  0.5886 -1.0370 -0.8197
 1561TIP3   OH226097   2.148   3.003   5.244 -0.4616  0.4967 -0.2114
 1561TIP3    H126098   2.098   2.927   5.214  1.5013 -0.8449 -0.2577
 1561TIP3    H226099   2.138   3.003   5.339  0.4966 -0.5930 -0.0831
 1562TIP3   OH226100   2.851   0.258   5.670  0.1406 -0.0232 -0.5754
 1562TIP3    H126101   2.812   0.173   5.689 -0.9204  0.0547 -2.2001
 1562TIP3    H226102   2.886   0.250   5.581 -1.7353  1.7698 -1.5690
 1563TIP3   OH226103   2.475   0.525   4.938  0.0099  0.0921  0.3022
 1563TIP3    H126104   2.512   0.446   4.976  1.4924  0.4778 -0.2335
 1563TIP3    H226105   2.482   0.512   4.843 -0.8783  0.3652  0.1841
 1564TIP3   OH226106   5.639   2.994  13.922 -0.0202 -0.4740 -0.1850
 1564TIP3    H126107   5.631   3.079  13.879  0.3208 -0.3194  0.0576
 1564TIP3    H226108   5.573   2.996  13.991 -1.5758 -1.2638 -1.5583
 1565TIP3   OH226109   4.424   0.364  11.793 -1.0526 -0.5770 -0.0644
 1565TIP3    H126110   4.489   0.321  11.738 -1.9089 -1.5405 -0.3681
 1565TIP3    H226111   4.471   0.388  11.873 -0.6290 -2.6091  0.3553
 1566TIP3   OH226112   1.690   0.470   5.353 -0.1190  0.1662 -0.4102
 1566TIP3    H126113   1.686   0.414   5.431 -0.5989 -0.3718 -0.8114
 1566TIP3    H226114   1.669   0.558   5.386 -1.8758 -0.3012 -0.1506
 1567TIP3   OH226115   6.234   5.681   1.956 -0.0756  0.0221  0.1710
 1567TIP3    H126116   6.268   5.738   2.024  1.5122 -0.5274 -0.1162
 1567TIP3    H226117   6.278   5.711   1.876  0.6421 -1.4205 -0.0158
 1568TIP3   OH226118   3.615   1.394  15.253  0.6503 -0.3722  0.1330
 1568TIP3    H126119   3.579   1.307  15.235  0.9457 -0.3351 -0.7041
 1568TIP3    H226120   3.542   1.454  15.239  0.8526 -0.3494 -0.9849
 1569TIP3   OH226121   6.695   0.227  11.807 -0.7923 -0.3702  0.0513
 1569TIP3    H126122   6.613   0.195  11.843 -0.6630 -1.2504 -0.4183
 1569TIP3    H226123   6.751   0.150  11.800  0.3982  0.3451  1.1613
 1570TIP3   OH226124   5.669   3.098   6.112  0.5307  0.2255 -0.2991
 1570TIP3    H126125   5.655   3.089   6.206  1.6393  0.4791 -0.0992
 1570TIP3    H226126   5.617   3.174   6.087  1.7485  1.3523  0.4803
 1571TIP3   OH226127   1.675   2.250  12.153  0.3755 -0.2464 -0.1570
 1571TIP3    H126128   1.739   2.247  12.224  1.2617  1.2298 -0.8461
 1571TIP3    H226129   1.662   2.344  12.136 -2.0012 -0.4815 -0.0309
 1572TIP3   OH226130   5.223   6.501   3.849 -0.0375 -0.0272 -0.2965
 1572TIP3    H126131   5.183   6.488   3.935  1.0673 -1.5736  0.0266
 1572TIP3    H226132   5.237   6.596   3.842  1.1220  0.0167  1.8388
 1573TIP3   OH226133   6.127   5.012   6.229  0.3434 -0.2859 -0.7454
 1573TIP3    H126134   6.144   5.061   6.148 -3.0255 -1.6752 -2.5084
 1573TIP3    H226135   6.080   5.074   6.285 -1.2833 -0.5299 -1.7663
 1574TIP3   OH226136   6.545   3.294  16.744 -0.0115  0.3069  0.5499
 1574TIP3    H126137   6.520   3.370  16.691  1.2487  0.4728  0.1613
 1574TIP3    H226138   6.635   3.275  16.717  0.0671 -0.6431  1.4409
 1575TIP3   OH226139   3.093   2.236  15.889  0.7617 -0.0028 -0.0777
 1575TIP3    H126140   3.011   2.187  15.878 -0.1505  1.2574  0.7767
 1575TIP3    H226141   3.110   2.273  15.802  1.3428 -1.6203 -0.6691
 1576TIP3   OH226142   6.685   1.787   3.723  0.1978 -0.6817 -0.0205
 1576TIP3    H126143   6.701   1.823   3.810  2.9245  0.4184 -0.8663
 1576TIP3    H226144   6.637   1.856   3.677 -0.0033 -0.6903  0.1733
 1577TIP3   OH226145   5.823   4.877  12.651 -0.4392 -0.0900 -0.6241
 1577TIP3    H126146   5.757   4.946  12.640  0.0154  0.2121 -1.5226
 1577TIP3    H226147   5.850   4.855  12.562 -0.7080 -1.5767 -0.3545
 1578TIP3   OH226148   2.327   0.323  10.683 -0.2090 -0.5709  1.1677
 1578TIP3    H126149   2.364   0.385  10.746  0.4010  0.1450  0.1473
 1578TIP3    H226150   2.402   0.295  10.631 -0.9414  0.3904 -0.5134
 1579TIP3   OH226151   6.166   3.386   2.039  0.6686 -0.2061  0.1097
 1579TIP3    H126152   6.191   3.479   2.037  1.9349 -0.5180  0.4514
 1579TIP3    H226153   6.155   3.367   2.132  3.4824 -1.1233  0.3612
 1580TIP3   OH226154   1.870   4.052   4.727  0.0300  0.0788  0.2045
 1580TIP3    H126155   1.954   4.060   4.682 -0.3007 -0.3569 -0.4975
 1580TIP3    H226156   1.849   3.959   4.722 -1.2511  0.4234 -1.0040
 1581TIP3   OH226157   5.043   3.071   1.478 -0.3349 -0.2019  0.4299
 1581TIP3    H126158   5.022   3.141   1.540 -2.7656 -0.5058  0.0601
 1581TIP3    H226159   4.977   3.004   1.494  2.0383 -2.5901  0.8921
 1582TIP3   OH226160   4.159   0.175  15.658 -0.5302 -0.4348  0.0491
 1582TIP3    H126161   4.070   0.140  15.649 -0.8307  0.5499 -1.0983
 1582TIP3    H226162   4.146   0.269  15.673  0.3087 -0.4298  0.8117
 1583TIP3   OH226163   6.174   1.312   5.362 -0.6339  0.2317 -0.6452
 1583TIP3    H126164   6.096   1.367   5.356 -0.5986  0.2256 -1.2572
 1583TIP3    H226165   6.161   1.245   5.295 -0.8506 -0.7395  0.3503
 1584TIP3   OH226166   5.390   1.464  15.333  0.1778  1.0366  0.3624
 1584TIP3    H126167   5.342   1.381  15.333  1.1318  0.4772 -0.3798
 1584TIP3    H226168   5.461   1.450  15.395 -0.7338  1.9701  1.6909
 1585TIP3   OH226169   1.691   4.079   3.882  0.5875 -0.7606  0.2743
 1585TIP3    H126170   1.642   4.062   3.801  0.7700  0.6176 -0.1389
 1585TIP3    H226171   1.780   4.097   3.852  0.4682  0.6114  0.6950
 1586TIP3   OH226172   3.054   2.883  12.738 -0.6538 -0.2094  0.4133
 1586TIP3    H126173   3.010   2.912  12.817  0.1778 -1.5523  1.4324
 1586TIP3    H226174   3.145   2.870  12.765 -0.0021  0.7998 -1.1758
 1587TIP3   OH226175   0.971   0.617   3.748  0.7569  0.0836  0.0543
 1587TIP3    H126176   0.904   0.601   3.682  1.5798  2.1821 -1.4019
 1587TIP3    H226177   1.047   0.646   3.698  2.0011  0.0521  1.8265
 1588TIP3   OH226178   3.036   0.265  11.254  0.0079 -0.5919  0.3890
 1588TIP3    H126179   3.081   0.227  11.178 -0.1777 -0.7960  0.3802
 1588TIP3    H226180   3.090   0.340  11.279 -0.5548  0.2171 -0.6920
 1589TIP3   OH226181   2.139   2.432   0.516  0.2304 -0.1396  0.1553
 1589TIP3    H126182   2.131   2.357   0.456 -0.2561  0.1552 -0.1522
 1589TIP3    H226183   2.197   2.401   0.586  1.3382 -0.2794 -0.8003
 1590TIP3   OH226184   3.438   2.333  12.319  0.3548 -0.0668 -0.4187
 1590TIP3    H126185   3.410   2.331  12.227 -0.3380 -0.2918 -0.2113
 1590TIP3    H226186   3.532   2.318  12.316  0.2171 -0.8294 -1.0435
 1591TIP3   OH226187   6.650   5.454  12.582  0.2072 -0.0911 -0.2804
 1591TIP3    H126188   6.695   5.484  12.661  0.9383 -0.8833 -0.3823
 1591TIP3    H226189   6.711   5.472  12.511  0.2116 -0.8127 -0.4689
 1592TIP3   OH226190   6.719   6.454   6.258 -0.3049 -0.0453  0.3950
 1592TIP3    H126191   6.634   6.412   6.251  0.3933 -1.3856 -0.2775
 1592TIP3    H226192   6.715   6.501   6.342 -1.4015 -0.7563  0.7628
 1593TIP3   OH226193   1.048   1.367  16.745 -0.4556  0.1362  0.2723
 1593TIP3    H126194   1.108   1.321  16.804  0.4274  0.4914 -0.3297
 1593TIP3    H226195   1.076   1.340  16.657 -1.8826 -0.5486  0.0026
 1594TIP3   OH226196   4.469   2.984  10.985 -0.1357  0.0698  0.5818
 1594TIP3    H126197   4.412   2.910  10.968 -0.8268  0.7802 -0.2956
 1594TIP3    H226198   4.415   3.046  11.034 -0.9368  1.7062 -2.1341
 1595TIP3   OH226199   1.661   5.010  14.720 -0.0168  0.4905  0.1286
 1595TIP3    H126200   1.626   5.052  14.799 -0.9263 -0.3825  0.2106
 1595TIP3    H226201   1.583   4.979  14.673  0.5619  0.2325 -0.6811
 1596TIP3   OH226202   2.203   1.278   3.540  0.3419 -0.1542  0.7110
 1596TIP3    H126203   2.158   1.193   3.538  1.5374 -0.7935 -0.4571
 1596TIP3    H226204   2.294   1.256   3.560  0.2509  1.0875  2.6738
 1597TIP3   OH226205   5.389   2.541  13.447 -0.1740 -0.0424  0.1385
 1597TIP3    H126206   5.337   2.461  13.436 -1.1343  0.4050  1.2675
 1597TIP3    H226207   5.422   2.536  13.537 -1.9234  1.7688  0.9375
 1598TIP3   OH226208   5.491   2.995  11.566 -0.7601  0.1455  0.2618
 1598TIP3    H126209   5.482   3.091  11.567 -0.3963  0.1914 -0.2438
 1598TIP3    H226210   5.566   2.979  11.509  0.9370 -0.2990  2.4499
 1599TIP3   OH226211   0.160   4.560   3.694 -0.1054  0.9242 -0.3919
 1599TIP3    H126212   0.065   4.570   3.696 -0.6661 -2.9962  0.4968
 1599TIP3    H226213   0.184   4.540   3.784  0.9245 -1.6845 -1.1487
 1600TIP3   OH226214   1.840   2.580   1.880  0.5594 -0.4611 -0.7051
 1600TIP3    H126215   1.783   2.536   1.943 -1.3156 -1.1334 -2.7695
 1600TIP3    H226216   1.833   2.528   1.800  0.0969  2.2423 -2.5534
 1601TIP3   OH226217   3.447   1.496   3.046 -0.2844  0.6863 -0.7654
 1601TIP3    H126218   3.467   1.545   3.126  1.4005  1.6034 -1.6986
 1601TIP3    H226219   3.515   1.428   3.043 -1.2192 -0.2874 -0.6977
 1602TIP3   OH226220   3.006   5.536  16.374 -0.3194  0.2075 -0.1914
 1602TIP3    H126221   3.032   5.476  16.443  1.3902 -0.1945 -1.1240
 1602TIP3    H226222   2.911   5.539  16.379 -0.2447  0.2500  2.1912
 1603TIP3   OH226223   6.348   2.018  12.316 -0.0344  0.0816  0.3618
 1603TIP3    H126224   6.262   2.058  12.312  0.2069  0.5726  0.0409
 1603TIP3    H226225   6.355   1.986  12.406 -0.7346 -0.3824  0.2557
 1604TIP3   OH226226   2.305   2.584  13.360  0.2115  0.2369  0.2761
 1604TIP3    H126227   2.300   2.629  13.275  0.7686  1.1523  0.7029
 1604TIP3    H226228   2.377   2.522  13.350  0.4901  0.5697  0.1629
 1605TIP3   OH226229   5.570   1.843   0.147  0.3343 -0.5728  0.0248
 1605TIP3    H126230   5.612   1.804   0.070  0.9117  0.0580  0.0155
 1605TIP3    H226231   5.642   1.865   0.206 -0.0653 -0.5524  0.5162
 1606TIP3   OH226232   1.796   1.210   0.444  0.2746 -0.1338  0.1851
 1606TIP3    H126233   1.828   1.197   0.355 -2.7752 -1.2752 -0.8788
 1606TIP3    H226234   1.774   1.303   0.449  0.9052  0.0345 -0.0553
 1607TIP3   OH226235   6.470   0.706   4.609  0.5598  0.3769  0.4512
 1607TIP3    H126236   6.451   0.728   4.701  2.1834  0.2094  0.8565
 1607TIP3    H226237   6.517   0.623   4.614  1.4291  0.8015 -0.4638
 1608TIP3   OH226238   1.416   1.312   0.160 -0.4402  0.4899  0.6720
 1608TIP3    H126239   1.475   1.246   0.124 -1.0394 -0.0106  0.5903
 1608TIP3    H226240   1.376   1.270   0.236 -3.0790 -0.4031 -1.0748
 1609TIP3   OH226241   2.179   5.974  12.558  0.1748  0.1530  0.4045
 1609TIP3    H126242   2.136   6.008  12.636  1.0901 -1.0582  1.4788
 1609TIP3    H226243   2.212   6.051  12.512 -0.1930  0.8661  1.3136
 1610TIP3   OH226244   2.589   4.312   2.927 -0.1410  0.3010 -0.9002
 1610TIP3    H126245   2.635   4.358   2.997  0.7948  1.1010 -2.0090
 1610TIP3    H226246   2.507   4.284   2.967 -0.8018  3.0095 -0.2039
 1611TIP3   OH226247   1.422   0.685   5.173 -0.4512 -0.5671  0.8905
 1611TIP3    H126248   1.339   0.638   5.169  0.4997 -2.4320  1.7931
 1611TIP3    H226249   1.475   0.647   5.102 -1.0421  2.1673 -1.1844
 1612TIP3   OH226250   6.022   5.377  11.107 -0.0170 -0.4191  0.3850
 1612TIP3    H126251   6.053   5.454  11.059  0.4021 -0.0728  1.1807
 1612TIP3    H226252   6.094   5.356  11.167  0.1702 -1.8613 -0.2875
 1613TIP3   OH226253   3.500   1.201  13.719 -0.1706  0.1653 -0.7327
 1613TIP3    H126254   3.435   1.204  13.649  0.8131 -1.6147 -1.7732
 1613TIP3    H226255   3.555   1.126  13.698  2.0011  1.3750  0.3210
 1614TIP3   OH226256   1.290   6.762   5.176  0.5256 -0.2299  0.0153
 1614TIP3    H126257   1.203   6.748   5.139  0.0085 -1.4453  1.5821
 1614TIP3    H226258   1.278   6.835   5.237  0.4497 -0.7611  0.6491
 1615TIP3   OH226259   2.382   5.456  15.522  0.1275  0.1938  0.1786
 1615TIP3    H126260   2.455   5.466  15.583  1.1118  0.6662 -1.0455
 1615TIP3    H226261   2.420   5.471  15.435 -0.9709 -1.6305 -0.6872
 1616TIP3   OH226262   3.937   6.186   2.151  0.2108 -0.5338 -0.2299
 1616TIP3    H126263   3.995   6.212   2.223  0.3639  1.1328 -0.9166
 1616TIP3    H226264   3.855   6.233   2.168 -0.1078 -0.9601 -0.5840
 1617TIP3   OH226265   5.375   6.440  11.915  0.1444 -0.1572  0.3141
 1617TIP3    H126266   5.431   6.397  11.980  0.6238 -0.8563 -0.5438
 1617TIP3    H226267   5.416   6.525  11.900 -0.7852  0.6459  1.9930
 1618TIP3   OH226268   4.532   2.897  13.117  0.2131 -0.7637  0.2617
 1618TIP3    H126269   4.468   2.880  13.186  0.3142  3.4460  1.7154
 1618TIP3    H226270   4.614   2.912  13.163  0.7623  0.1274 -0.9352
 1619TIP3   OH226271   1.719   1.180   2.005  0.2810  0.1605 -0.0669
 1619TIP3    H126272   1.789   1.232   1.967 -0.4314  0.2795 -1.2864
 1619TIP3    H226273   1.650   1.243   2.025  0.6288  0.0963  1.4605
 1620TIP3   OH226274   4.569   5.186  16.003 -0.0782  0.5958  0.3025
 1620TIP3    H126275   4.602   5.185  15.913 -1.7853 -0.0603 -0.3435
 1620TIP3    H226276   4.529   5.100  16.015  1.4062  0.0984  2.2192
 1621TIP3   OH226277   5.280   5.409  16.394 -0.5622  0.1002 -0.1146
 1621TIP3    H126278   5.353   5.471  16.393 -1.6833  1.5743  1.9127
 1621TIP3    H226279   5.229   5.430  16.316 -0.1608  0.7668 -0.2074
 1622TIP3   OH226280   1.612   2.542  16.598  0.0759  0.0833  0.3742
 1622TIP3    H126281   1.690   2.488  16.610 -0.1045 -0.6392 -1.4137
 1622TIP3    H226282   1.643   2.620  16.552  0.0140  0.6619  1.2758
 1623TIP3   OH226283   4.182   2.109   3.235  0.6857  0.1644 -0.9025
 1623TIP3    H126284   4.106   2.128   3.179 -1.5992  1.0400  2.2115
 1623TIP3    H226285   4.235   2.189   3.231  0.7393  0.0980 -1.9740
 1624TIP3   OH226286   4.308   0.807  15.511 -0.1140  0.4588 -0.1829
 1624TIP3    H126287   4.266   0.785  15.427 -2.2009 -0.4455  1.0322
 1624TIP3    H226288   4.380   0.744  15.519 -1.5673 -1.2578 -0.0909
 1625TIP3   OH226289   6.394   5.279  16.480  0.1192 -0.3806 -0.2503
 1625TIP3    H126290   6.305   5.245  16.472  0.2906 -1.2574  1.2144
 1625TIP3    H226291   6.424   5.248  16.565  0.8535  2.2211  0.5199
 1626TIP3   OH226292   1.686   5.408   1.785  0.3025  0.3575  0.5218
 1626TIP3    H126293   1.618   5.469   1.813 -2.6522 -0.9433 -2.9127
 1626TIP3    H226294   1.673   5.331   1.841 -0.1556  0.6344  0.8046
 1627TIP3   OH226295   5.869   6.304  12.672 -0.4325 -0.0093  0.2781
 1627TIP3    H126296   5.877   6.324  12.579 -0.1363  0.9558  0.5025
 1627TIP3    H226297   5.819   6.223  12.675 -1.6457  0.6797 -0.6720
 1628TIP3   OH226298   2.962   2.862   5.109 -0.1143  0.2731 -0.4174
 1628TIP3    H126299   2.949   2.946   5.152 -0.0367 -0.0170  0.1857
 1628TIP3    H226300   3.035   2.821   5.156  1.8558  1.0835 -2.5444
 1629TIP3   OH226301   1.569   1.961   6.266  0.4488  0.4963  0.7702
 1629TIP3    H126302   1.646   1.923   6.224  0.7418  0.3154  1.4632
 1629TIP3    H226303   1.541   1.896   6.330 -1.5693 -0.3999 -0.9183
 1630TIP3   OH226304   4.869   0.087  11.340 -0.2086  0.3417 -0.0979
 1630TIP3    H126305   4.893   0.098  11.248 -0.5075 -1.9348 -0.5103
 1630TIP3    H226306   4.916   0.008  11.368 -3.8510 -1.9365  0.2126
 1631TIP3   OH226307   4.188   0.927   3.805  0.3768  0.0182 -0.5496
 1631TIP3    H126308   4.216   1.015   3.782 -1.9927  0.9814 -0.0392
 1631TIP3    H226309   4.133   0.938   3.883 -1.1499 -1.6890 -1.2960
 1632TIP3   OH226310   6.714   6.100  15.949  0.5760 -0.0048 -0.2444
 1632TIP3    H126311   6.692   6.081  16.040 -0.5409  0.0701 -0.4866
 1632TIP3    H226312   6.770   6.027  15.922 -2.4162 -2.3272 -0.7195
 1633TIP3   OH226313   2.811   4.825   0.711 -0.3134  0.1600 -0.6665
 1633TIP3    H126314   2.797   4.735   0.740 -0.9471  0.0886 -1.1636
 1633TIP3    H226315   2.745   4.838   0.643  0.2591  0.7591 -1.1153
 1634TIP3   OH226316   4.540   3.568   5.783 -0.0802  0.4199 -0.5424
 1634TIP3    H126317   4.536   3.661   5.761 -0.2098  0.4600 -0.3558
 1634TIP3    H226318   4.526   3.565   5.878 -0.2813  0.1966 -0.5778
 1635TIP3   OH226319   3.760   2.221  16.312 -0.2399 -0.6300  0.7714
 1635TIP3    H126320   3.693   2.241  16.247  0.0562  0.6277  0.8252
 1635TIP3    H226321   3.841   2.218  16.262  0.2982  2.2849  1.2507
 1636TIP3   OH226322   5.796   3.641  13.974  0.0220  0.7800 -0.2081
 1636TIP3    H126323   5.820   3.656  13.882  1.8683  1.4707  0.3293
 1636TIP3    H226324   5.795   3.729  14.013  2.1891  0.3107  1.0538
 1637TIP3   OH226325   6.098   2.085  11.168  0.0296 -0.0001  0.0288
 1637TIP3    H126326   6.125   2.093  11.259  0.2721 -0.8920  0.0420
 1637TIP3    H226327   6.020   2.141  11.161  0.4296  0.6420  0.5925
 1638TIP3   OH226328   6.141   5.998   3.268  0.1240 -0.2673  0.4646
 1638TIP3    H126329   6.115   5.906   3.263  0.6347 -0.3566 -0.8956
 1638TIP3    H226330   6.058   6.047   3.264 -0.0359 -0.6211 -0.9980
 1639TIP3   OH226331   5.141   6.504   2.972 -0.2603 -0.1508 -0.0320
 1639TIP3    H126332   5.175   6.417   2.953  0.5012  0.0149  0.5066
 1639TIP3    H226333   5.108   6.498   3.062  1.7018  0.6322  0.7974
 1640TIP3   OH226334   5.296   4.968   6.292 -0.5091  0.1814  0.1357
 1640TIP3    H126335   5.272   5.029   6.222 -0.6927  1.1808  1.0528
 1640TIP3    H226336   5.317   4.886   6.246  1.4366  1.3909 -1.2801
 1641TIP3   OH226337   2.592   3.232   4.135  0.1378  0.0764 -0.2787
 1641TIP3    H126338   2.555   3.299   4.192  2.1644  1.2498 -0.2569
 1641TIP3    H226339   2.523   3.215   4.070 -0.2049  2.6955 -0.6982
 1642TIP3   OH226340   0.035   0.049  11.528  0.0296 -0.2757 -0.2719
 1642TIP3    H126341   0.005   0.134  11.496 -0.0291  0.4364  1.5773
 1642TIP3    H226342   0.105   0.069  11.590 -0.6548 -1.4821  0.9658
 1643TIP3   OH226343   5.303   0.823  10.739  0.1224 -0.1007  0.1418
 1643TIP3    H126344   5.336   0.882  10.808 -0.1847 -0.7833  0.8867
 1643TIP3    H226345   5.208   0.825  10.750  0.0104  0.4671 -0.8420
 1644TIP3   OH226346   2.036   3.950  16.488 -0.3238  0.2365  0.9054
 1644TIP3    H126347   2.011   4.026  16.541 -0.3555  1.0268 -0.2227
 1644TIP3    H226348   1.969   3.885  16.508 -1.8106  1.4051 -0.0390
 1645TIP3   OH226349   1.705   1.059   3.431 -0.6938  0.0537  0.9818
 1645TIP3    H126350   1.709   0.966   3.456  0.2717 -0.4288 -0.8043
 1645TIP3    H226351   1.637   1.062   3.363 -0.5133  0.6032  0.8286
 1646TIP3   OH226352   6.691   4.478  15.870  0.3294 -0.2213 -0.5357
 1646TIP3    H126353   6.679   4.411  15.937  0.0840 -0.1748 -0.5325
 1646TIP3    H226354   6.773   4.521  15.894  0.1389 -0.0664 -0.1443
 1647TIP3   OH226355   6.565   5.714   1.666  0.2256  0.2250  0.4821
 1647TIP3    H126356   6.472   5.729   1.680 -0.0435  0.0148 -0.8970
 1647TIP3    H226357   6.600   5.802   1.648 -0.1009  0.0802 -0.9759
 1648TIP3   OH226358   6.281   1.313   5.993  0.2628  0.1389  0.0333
 1648TIP3    H126359   6.250   1.269   5.913 -0.1732 -1.1303  0.8711
 1648TIP3    H226360   6.369   1.277   6.008  1.1228  1.7628 -0.8700
 1649TIP3   OH226361   2.768   1.159  14.693 -0.1508  0.1511  0.1099
 1649TIP3    H126362   2.696   1.201  14.740  1.4306 -0.0303  2.8909
 1649TIP3    H226363   2.847   1.204  14.724  1.0221  0.4453 -2.9358
 1650TIP3   OH226364   2.826   5.922   0.369  0.2118 -0.0488 -0.2997
 1650TIP3    H126365   2.838   5.840   0.416 -0.5746  0.5581  1.0361
 1650TIP3    H226366   2.895   5.980   0.402 -0.6329  0.5311  0.5198
 1651TIP3   OH226367   1.836   2.036   4.111 -0.0801  0.2888  0.7231
 1651TIP3    H126368   1.744   2.013   4.101 -0.2804  1.1722  0.4040
 1651TIP3    H226369   1.882   1.953   4.112 -0.8634 -0.1539  0.6810
 1652TIP3   OH226370   1.434   4.672   3.539  0.1097 -0.2584  0.3186
 1652TIP3    H126371   1.493   4.676   3.464 -0.3930  2.0006 -0.0253
 1652TIP3    H226372   1.491   4.669   3.616  0.6257 -0.6897 -0.0714
 1653TIP3   OH226373   1.121   2.023   3.267  0.6890 -0.4911  0.0407
 1653TIP3    H126374   1.102   1.933   3.241 -0.1568 -0.6417  1.1119
 1653TIP3    H226375   1.059   2.076   3.217  0.4091 -0.6069  0.2633
 1654TIP3   OH226376   3.575   6.262   3.506  0.0267  0.5621 -0.7016
 1654TIP3    H126377   3.660   6.222   3.524 -0.9262 -0.5549  1.7823
 1654TIP3    H226378   3.538   6.210   3.435  1.0125  0.4674 -1.1599
 1655TIP3   OH226379   6.267   1.690   1.617  0.0816 -0.0553  0.5059
 1655TIP3    H126380   6.361   1.677   1.627  0.0807 -0.8953 -0.4145
 1655TIP3    H226381   6.258   1.730   1.530 -0.3693  0.6563  0.8705
 1656TIP3   OH226382   2.919   5.224  16.313 -0.7083 -0.0500 -0.1753
 1656TIP3    H126383   2.846   5.246  16.371 -0.0504  2.2387 -0.1040
 1656TIP3    H226384   2.992   5.205  16.372 -0.8161 -0.7411 -0.2568
 1657TIP3   OH226385   0.908   6.778  14.620  0.6157 -0.2455 -0.3590
 1657TIP3    H126386   0.855   6.830  14.559 -0.0145 -1.2385 -0.6692
 1657TIP3    H226387   0.980   6.744  14.567  1.4545  0.8744  0.0027
 1658TIP3   OH226388   1.550   1.811   3.317  0.0162  0.3160  0.1119
 1658TIP3    H126389   1.634   1.768   3.333  1.5971  2.3686 -2.0431
 1658TIP3    H226390   1.541   1.873   3.390  0.9326  0.8462 -0.2123
 1659TIP3   OH226391   4.867   4.425   1.658  0.4902  0.1083 -0.0476
 1659TIP3    H126392   4.954   4.435   1.619  0.7098 -0.6732  0.2232
 1659TIP3    H226393   4.862   4.333   1.683 -1.4584 -0.5698 -2.5050
 1660TIP3   OH226394   3.349   4.199   5.063  0.1289  0.0644 -0.0375
 1660TIP3    H126395   3.288   4.189   4.990 -0.5790  1.1301  0.3782
 1660TIP3    H226396   3.369   4.292   5.065  0.8126 -0.0867  0.5994
 1661TIP3   OH226397   3.545   0.773  11.625 -0.1183  0.1311 -0.0515
 1661TIP3    H126398   3.615   0.809  11.678 -0.4115  1.3850 -0.4834
 1661TIP3    H226399   3.481   0.844  11.617 -1.1209 -0.7555 -0.2358
 1662TIP3   OH226400   2.622   2.991   3.615  0.5570 -0.1690 -0.1916
 1662TIP3    H126401   2.554   2.926   3.632 -0.2759  0.9924  1.1474
 1662TIP3    H226402   2.667   3.002   3.698  1.8372 -0.2632 -0.8416
 1663TIP3   OH226403   3.236   4.698   2.469 -0.2850  0.0212 -0.1364
 1663TIP3    H126404   3.302   4.693   2.538  0.6688 -0.7022 -1.0796
 1663TIP3    H226405   3.233   4.610   2.432 -0.8600  0.3758 -0.9515
 1664TIP3   OH226406   2.170   4.081   2.144  0.1974 -0.2588  0.3671
 1664TIP3    H126407   2.186   4.169   2.177 -0.9983 -0.4041  1.4147
 1664TIP3    H226408   2.163   4.092   2.049 -0.3714  0.8683  0.5189
 1665TIP3   OH226409   1.104   1.676   2.816  0.2463 -0.6591  0.5528
 1665TIP3    H126410   1.052   1.648   2.891  0.4559 -1.5010  0.3947
 1665TIP3    H226411   1.176   1.727   2.854  0.9880 -2.0322  1.0337
 1666TIP3   OH226412   6.111   6.540  10.844  0.2533  0.0435  0.0305
 1666TIP3    H126413   6.071   6.467  10.797 -2.1481  0.3803  1.4044
 1666TIP3    H226414   6.152   6.499  10.920 -0.8607  0.0582  0.6582
 1667TIP3   OH226415   2.231   0.121   5.878 -0.9068  0.2083 -0.5198
 1667TIP3    H126416   2.316   0.120   5.834 -1.7502  0.7162 -2.2563
 1667TIP3    H226417   2.247   0.167   5.961  0.6448 -0.3592 -0.4773
 1668TIP3   OH226418   5.131   1.483  13.312 -0.1407  0.2670 -0.1486
 1668TIP3    H126419   5.158   1.572  13.291 -1.3908  0.1803 -2.4211
 1668TIP3    H226420   5.039   1.491  13.336  0.0039 -0.3034  0.6400
 1669TIP3   OH226421   4.255   6.449   0.491 -0.4506  0.4630  0.1150
 1669TIP3    H126422   4.161   6.458   0.472 -0.9122 -2.3055  0.5723
 1669TIP3    H226423   4.260   6.453   0.587 -0.4584 -1.3275  0.2354
 1670TIP3   OH226424   5.657   6.009   2.510 -0.3755  0.2902 -0.3247
 1670TIP3    H126425   5.693   5.930   2.551  0.5539  1.1165  0.4846
 1670TIP3    H226426   5.686   6.081   2.566 -0.7507  1.2672 -1.3505
 1671TIP3   OH226427   4.012   5.987   2.440  0.1995  0.4827  0.0076
 1671TIP3    H126428   3.954   5.921   2.402 -1.2226  0.7841  1.5348
 1671TIP3    H226429   4.099   5.946   2.437 -0.3470 -0.6919 -0.7724
 1672TIP3   OH226430   3.442   5.014   0.432  0.4425  0.6556 -0.3322
 1672TIP3    H126431   3.469   5.099   0.466 -1.7859  0.8223  1.1733
 1672TIP3    H226432   3.398   4.971   0.505  0.5122 -1.3542 -1.3920
 1673TIP3   OH226433   5.162   1.387   5.171 -0.0947  0.1337  0.5491
 1673TIP3    H126434   5.204   1.312   5.213 -0.2439 -0.0742  0.3295
 1673TIP3    H226435   5.144   1.448   5.243 -0.1684 -0.1341  0.7582
 1674TIP3   OH226436   2.170   2.819   0.482  0.0506 -0.3651  0.5344
 1674TIP3    H126437   2.084   2.778   0.470 -1.7147  3.2482 -0.3863
 1674TIP3    H226438   2.178   2.832   0.576 -0.0450 -1.3407  0.6892
 1675TIP3   OH226439   3.718   2.266   4.040  0.6608  0.2252  0.2758
 1675TIP3    H126440   3.636   2.281   3.993  0.3621 -1.7760  0.0992
 1675TIP3    H226441   3.692   2.261   4.132  0.6276 -0.0851  0.2499
 1676TIP3   OH226442   5.536   3.790   2.909  0.6404 -0.1492  0.1576
 1676TIP3    H126443   5.527   3.706   2.864  0.6370 -0.4493  0.7094
 1676TIP3    H226444   5.512   3.855   2.843  0.1407 -0.6091 -0.1272
 1677TIP3   OH226445   0.144   2.147   4.168 -0.1874  0.0279  0.1960
 1677TIP3    H126446   0.050   2.134   4.162 -0.1736  0.5940 -2.8527
 1677TIP3    H226447   0.170   2.180   4.081  2.6393  1.0501  1.2870
 1678TIP3   OH226448   5.599   6.273   0.690  0.0665 -0.4754  0.4447
 1678TIP3    H126449   5.634   6.195   0.732  1.1562  0.3988  1.2161
 1678TIP3    H226450   5.590   6.337   0.761 -0.7428  0.1335 -0.1795
 1679TIP3   OH226451   5.560   5.005  13.326 -0.2899 -0.5159 -0.2880
 1679TIP3    H126452   5.652   4.980  13.321 -0.3146 -0.4390 -1.3211
 1679TIP3    H226453   5.541   5.007  13.420  0.5402 -1.3150 -0.0858
 1680TIP3   OH226454   4.815   3.736  11.992 -0.6211  0.2758  0.4014
 1680TIP3    H126455   4.778   3.659  11.948 -0.1720 -0.1887  0.8387
 1680TIP3    H226456   4.762   3.809  11.959 -0.2756 -0.0533 -0.9442
 1681TIP3   OH226457   4.660   0.424   1.309  0.8108  0.1792  0.1041
 1681TIP3    H126458   4.615   0.502   1.343 -0.5007 -0.9450  1.0582
 1681TIP3    H226459   4.604   0.351   1.335  1.4714 -1.0197 -1.6797
 1682TIP3   OH226460   5.676   6.484  12.341 -0.0108 -0.0614 -0.2691
 1682TIP3    H126461   5.660   6.527  12.425  1.3052  0.5178 -0.2900
 1682TIP3    H226462   5.766   6.452  12.347 -0.0247 -0.3321 -1.3265
 1683TIP3   OH226463   6.027   5.629  11.359 -0.1545 -0.1929  0.1169
 1683TIP3    H126464   6.104   5.685  11.368 -1.0409  1.1010  0.1255
 1683TIP3    H226465   5.997   5.643  11.269 -0.4752 -0.5443  0.1647
 1684TIP3   OH226466   6.204   0.033   0.663  0.2598  0.5193 -0.0673
 1684TIP3    H126467   6.111   0.025   0.683 -0.0126  1.0550 -1.0509
 1684TIP3    H226468   6.246   0.049   0.748 -0.5155  0.0894  0.4046
 1685TIP3   OH226469   3.680   3.151   2.299 -0.4641  0.0508  0.8582
 1685TIP3    H126470   3.736   3.220   2.335  0.9356  1.0255 -2.7768
 1685TIP3    H226471   3.731   3.070   2.309  0.3543  0.4725  0.1609
 1686TIP3   OH226472   5.511   3.107  12.533 -0.6471  0.0674  0.0348
 1686TIP3    H126473   5.576   3.177  12.526 -0.1603 -0.4697 -1.0734
 1686TIP3    H226474   5.475   3.099  12.444 -2.4022  0.5076  0.6655
 1687TIP3   OH226475   2.410   1.113  11.088  0.1322 -0.6864  0.2029
 1687TIP3    H126476   2.408   1.062  11.007  2.4741  0.0637 -0.3984
 1687TIP3    H226477   2.470   1.185  11.070 -2.2809  1.8110  1.3444
 1688TIP3   OH226478   1.609   3.163   2.503  0.2558 -0.3770  0.6405
 1688TIP3    H126479   1.549   3.124   2.440  0.9279 -0.6579  0.1528
 1688TIP3    H226480   1.563   3.240   2.537  0.1884  0.2376 -0.7766
 1689TIP3   OH226481   5.329   0.840  11.983 -0.0151  0.0988 -0.1130
 1689TIP3    H126482   5.386   0.768  11.956 -0.3179 -0.9761  1.8978
 1689TIP3    H226483   5.335   0.903  11.912  2.6845 -0.5382 -0.5555
 1690TIP3   OH226484   1.780   2.325  11.797 -0.8299 -0.5205  0.1261
 1690TIP3    H126485   1.860   2.275  11.782 -0.6823 -0.4032  0.5099
 1690TIP3    H226486   1.810   2.407  11.837 -0.9996  0.1833 -1.1477
 1691TIP3   OH226487   5.317   6.211   3.214  0.0755 -0.4174  0.0621
 1691TIP3    H126488   5.360   6.252   3.138 -1.0280 -1.2887 -1.0710
 1691TIP3    H226489   5.352   6.259   3.289  0.7260  0.9165 -1.0304
 1692TIP3   OH226490   3.987   6.624  13.012  0.0356  0.5500 -0.5600
 1692TIP3    H126491   3.936   6.610  12.932 -0.2599 -1.2801 -0.0803
 1692TIP3    H226492   4.077   6.637  12.981 -0.1013 -0.0017 -1.1982
 1693TIP3   OH226493   1.166   5.148  16.654 -0.1139 -0.5805 -0.5728
 1693TIP3    H126494   1.103   5.077  16.647  0.8795 -1.3942 -1.6880
 1693TIP3    H226495   1.177   5.180  16.565  1.9897 -1.3373 -0.6494
 1694TIP3   OH226496   6.221   5.604  13.816  0.2799 -0.3303 -0.2679
 1694TIP3    H126497   6.312   5.634  13.810 -0.0052  0.7988  0.6785
 1694TIP3    H226498   6.169   5.684  13.810 -0.5696 -0.7612  0.9227
 1695TIP3   OH226499   3.823   6.771   5.523  0.4521 -0.1320 -0.1125
 1695TIP3    H126500   3.804   6.831   5.595 -1.4977  2.0796 -2.2712
 1695TIP3    H226501   3.768   6.695   5.539  0.0125  0.3522  0.7206
 1696TIP3   OH226502   3.826   4.141   1.247 -0.4109  0.5755 -0.0281
 1696TIP3    H126503   3.731   4.144   1.263 -0.2732 -0.3419  1.1179
 1696TIP3    H226504   3.834   4.136   1.152 -1.5791 -1.0076 -0.0845
 1697TIP3   OH226505   1.071   3.630  17.022 -0.0331 -0.5948 -0.1185
 1697TIP3    H126506   1.163   3.629  16.997 -0.3207 -0.5502 -1.2455
 1697TIP3    H226507   1.043   3.539  17.015 -0.3121 -0.4648 -0.7285
 1698TIP3   OH226508   2.301   4.696   1.941 -0.0316  0.5856  0.1560
 1698TIP3    H126509   2.326   4.631   1.876  0.7552  1.1476 -0.1246
 1698TIP3    H226510   2.318   4.654   2.025 -1.1068 -0.1661  0.0181
 1699TIP3   OH226511   1.689   2.511  10.851 -0.1005  0.1838 -0.3421
 1699TIP3    H126512   1.665   2.420  10.873 -0.4623  0.9436  3.0091
 1699TIP3    H226513   1.609   2.548  10.813 -0.0148 -0.8287 -1.5521
 1700TIP3   OH226514   4.857   1.337   4.405 -0.5634  0.2380 -0.0739
 1700TIP3    H126515   4.910   1.293   4.339 -1.0595 -0.3450 -0.0859
 1700TIP3    H226516   4.837   1.423   4.366 -0.8269 -0.0866 -0.6738
 1701TIP3   OH226517   2.805   3.425   6.415 -0.2963 -0.5802 -0.7606
 1701TIP3    H126518   2.713   3.420   6.443 -0.8940 -1.4738 -2.6514
 1701TIP3    H226519   2.835   3.334   6.418  0.4598 -0.3216 -0.3917
 1702TIP3   OH226520   4.438   1.154   1.381  0.0638  0.1811 -0.8352
 1702TIP3    H126521   4.438   1.082   1.444  1.9517  0.6940 -0.1816
 1702TIP3    H226522   4.524   1.196   1.393 -0.5482  1.8469 -1.9730
 1703TIP3   OH226523   4.206   2.972  16.926 -0.2970  0.0871  0.3875
 1703TIP3    H126524   4.218   2.891  16.976  0.8414 -0.1813 -0.2995
 1703TIP3    H226525   4.250   3.039  16.979  0.8623 -0.1881 -0.2036
 1704TIP3   OH226526   6.656   2.211   3.383  0.2303 -0.0696 -0.0047
 1704TIP3    H126527   6.741   2.246   3.356  0.0535  0.3386 -0.0291
 1704TIP3    H226528   6.609   2.286   3.420  0.5076 -0.6311  1.5637
 1705TIP3   OH226529   5.678   1.429  11.277 -0.4405 -0.0417 -0.2367
 1705TIP3    H126530   5.729   1.355  11.244 -1.0018  0.1229 -1.5475
 1705TIP3    H226531   5.703   1.437  11.369  1.6368 -0.1558 -0.7502
 1706TIP3   OH226532   5.767   0.499   5.699 -0.0017  0.3256  0.1511
 1706TIP3    H126533   5.860   0.490   5.721 -0.1116  0.7137  0.8033
 1706TIP3    H226534   5.746   0.589   5.722 -0.4771  0.3183 -0.2524
 1707TIP3   OH226535   6.034   0.658  11.471  0.1187  0.3465 -0.8953
 1707TIP3    H126536   5.970   0.590  11.492  1.0967 -0.2265  0.3642
 1707TIP3    H226537   6.068   0.633  11.385  1.4262 -1.6080  0.0871
 1708TIP3   OH226538   5.422   1.449   3.447  0.5704 -0.0430  0.2677
 1708TIP3    H126539   5.434   1.409   3.361  4.4067 -0.0532  0.6371
 1708TIP3    H226540   5.412   1.374   3.507 -1.9180 -0.0376 -0.0106
 1709TIP3   OH226541   5.663   5.073   1.099  0.4044 -0.5240 -0.0575
 1709TIP3    H126542   5.605   5.145   1.071  0.8753  0.9095  2.4060
 1709TIP3    H226543   5.604   5.005   1.131 -0.0048 -0.8077 -1.3488
 1710TIP3   OH226544   4.815   1.765  13.078 -0.0417  0.1605  0.1887
 1710TIP3    H126545   4.772   1.849  13.060  0.5393  0.3712 -0.2406
 1710TIP3    H226546   4.786   1.742  13.166  0.1169  1.0173  0.4770
 1711TIP3   OH226547   0.857   5.126   1.918 -0.2898  0.5889  0.3778
 1711TIP3    H126548   0.947   5.111   1.889 -0.7556 -1.2513 -0.1820
 1711TIP3    H226549   0.862   5.122   2.014  0.0911 -0.3240  0.3207
 1712TIP3   OH226550   0.535   5.067   2.493 -0.1095 -0.2924 -0.1157
 1712TIP3    H126551   0.612   5.028   2.451  0.1335  2.1498 -2.1706
 1712TIP3    H226552   0.572   5.127   2.558 -0.2459  0.7658 -0.9968
 1713TIP3   OH226553   5.281   5.748  15.480 -0.5302 -0.3062  0.1750
 1713TIP3    H126554   5.213   5.732  15.415 -1.8091 -1.1676  1.6508
 1713TIP3    H226555   5.333   5.667  15.480 -1.4063 -0.8921  1.1925
 1714TIP3   OH226556   1.765   6.714   5.364 -0.1251 -0.4037 -0.5850
 1714TIP3    H126557   1.682   6.684   5.327 -1.8553  1.0601  1.8042
 1714TIP3    H226558   1.773   6.805   5.334 -0.9282  0.3941  1.4509
 1715TIP3   OH226559   3.537   5.701  17.010  0.4566  0.6735 -0.5395
 1715TIP3    H126560   3.482   5.697  16.932  0.1821 -0.8524 -0.2977
 1715TIP3    H226561   3.609   5.640  16.992 -0.1993 -0.5732  0.8060
 1716TIP3   OH226562   5.607   6.503  13.211 -0.2014 -0.1531 -0.2664
 1716TIP3    H126563   5.636   6.558  13.138  0.5155  0.6556  0.6098
 1716TIP3    H226564   5.543   6.557  13.258 -1.8842 -1.2679 -1.1716
 1717TIP3   OH226565   5.065   5.222   4.583 -0.0293 -0.2300 -0.4278
 1717TIP3    H126566   5.090   5.236   4.674 -0.5463 -1.5372 -0.0550
 1717TIP3    H226567   5.138   5.255   4.532 -0.2887  1.7566  0.3903
 1718TIP3   OH226568   1.119   4.571   1.086 -0.0676 -0.3752  0.0383
 1718TIP3    H126569   1.167   4.553   1.005 -1.3374 -1.2072 -0.5729
 1718TIP3    H226570   1.171   4.637   1.131 -0.1090  1.2812 -2.1906
 1719TIP3   OH226571   5.529   5.655  12.625  0.2615 -0.0265 -0.3676
 1719TIP3    H126572   5.535   5.703  12.543 -1.8461 -0.4455 -0.8236
 1719TIP3    H226573   5.439   5.668  12.655  0.7161 -0.6271  1.4254
 1720TIP3   OH226574   4.234   3.602   2.979  0.9094  0.1233 -0.0074
 1720TIP3    H126575   4.293   3.587   2.905  1.3338 -0.4476  0.4354
 1720TIP3    H226576   4.276   3.672   3.029 -0.2145  1.7062 -1.1661
 1721TIP3   OH226577   0.759   4.651  11.412 -0.5013  0.3255  0.4866
 1721TIP3    H126578   0.759   4.565  11.371  0.7963 -0.2932  1.7345
 1721TIP3    H226579   0.786   4.711  11.342  0.2899 -0.5141  0.0593
 1722TIP3   OH226580   2.164   0.745   4.929  0.4563  0.5696  0.7490
 1722TIP3    H126581   2.227   0.804   4.887  0.6609  0.2536  0.6022
 1722TIP3    H226582   2.079   0.780   4.904  0.5760  0.6903  0.4964
 1723TIP3   OH226583   1.373   2.371  16.516  0.5117 -0.4480  0.7405
 1723TIP3    H126584   1.366   2.409  16.604  0.4109 -2.0558  1.4658
 1723TIP3    H226585   1.364   2.277  16.530  0.6452 -0.7497 -0.9920
 1724TIP3   OH226586   4.654   3.063   6.077 -0.2226  0.0610  0.0892
 1724TIP3    H126587   4.611   2.992   6.126  0.1207  1.3023  2.3258
 1724TIP3    H226588   4.730   3.087   6.131 -0.1038  1.8813 -0.8083
 1725TIP3   OH226589   3.020   1.771  16.721  0.1215 -0.6271  0.0072
 1725TIP3    H126590   3.044   1.847  16.668 -0.6230 -0.8043 -0.5988
 1725TIP3    H226591   2.950   1.803  16.778  0.7563 -0.5012  0.7309
 1726TIP3   OH226592   5.102   4.253   4.400 -0.0626  0.2099  0.0772
 1726TIP3    H126593   5.178   4.290   4.445  0.6540 -0.8292 -0.2368
 1726TIP3    H226594   5.116   4.158   4.404 -1.8334 -0.0511  0.8487
 1727TIP3   OH226595   3.295   5.334   4.834  0.2094 -0.0892 -0.7425
 1727TIP3    H126596   3.363   5.386   4.876  0.3090  0.4405 -1.5425
 1727TIP3    H226597   3.338   5.293   4.759 -0.0875 -0.6294 -0.6253
 1728TIP3   OH226598   3.946   4.294  13.732 -0.1480 -0.1528  0.2432
 1728TIP3    H126599   3.901   4.224  13.685 -0.4658  1.0659 -1.3829
 1728TIP3    H226600   3.913   4.288  13.822 -1.5247 -0.9645 -0.2866
 1729TIP3   OH226601   5.231   0.765  15.133  0.1748 -0.2062 -0.6663
 1729TIP3    H126602   5.285   0.839  15.160 -0.2533 -0.1153 -0.0377
 1729TIP3    H226603   5.293   0.701  15.099  1.0622 -1.3278  2.6874
 1730TIP3   OH226604   4.332   4.809   1.358 -0.7523 -0.3518  0.5799
 1730TIP3    H126605   4.422   4.802   1.326 -0.4782 -1.1505  1.5013
 1730TIP3    H226606   4.320   4.903   1.376 -0.3572 -0.1377 -0.2375
 1731TIP3   OH226607   5.781   4.471   1.579  0.2860  0.1767 -0.1173
 1731TIP3    H126608   5.703   4.508   1.537 -0.4393  1.5287  2.2218
 1731TIP3    H226609   5.770   4.376   1.571 -0.0547  0.3524 -2.4142
 1732TIP3   OH226610   1.079   0.814  16.265 -0.0339 -0.2763  0.5528
 1732TIP3    H126611   1.130   0.820  16.346 -0.5922 -0.9132  0.9546
 1732TIP3    H226612   1.076   0.721  16.245 -0.5600 -0.1905  0.2205
 1733TIP3   OH226613   6.439   5.003  11.498  0.1527  0.1575  0.1056
 1733TIP3    H126614   6.533   5.019  11.505  0.0785  1.7615 -1.6644
 1733TIP3    H226615   6.399   5.074  11.547 -0.1532 -0.1182  0.2609
 1734TIP3   OH226616   1.587   0.313  14.473  0.7402 -0.2002  0.1119
 1734TIP3    H126617   1.543   0.383  14.520 -0.0599 -0.8379  0.3408
 1734TIP3    H226618   1.671   0.351  14.445  1.8903 -0.2195  3.2105
 1735TIP3   OH226619   0.240   4.960  12.898  0.6307 -0.9521 -0.2949
 1735TIP3    H126620   0.199   4.882  12.862  2.2539 -0.9246 -2.3755
 1735TIP3    H226621   0.167   5.013  12.929 -0.5229 -3.4006  1.5905
 1736TIP3   OH226622   0.408   4.855  14.631 -0.3084  0.2054  0.0959
 1736TIP3    H126623   0.504   4.863  14.634 -0.2451 -0.7040  1.1860
 1736TIP3    H226624   0.382   4.905  14.554  0.9405  1.4526  0.4524
 1737TIP3   OH226625   5.484   2.811   0.680 -0.0956 -0.2927  0.6183
 1737TIP3    H126626   5.412   2.810   0.617  0.0813  0.5515  0.3957
 1737TIP3    H226627   5.452   2.863   0.753  0.2571  0.0182  0.5544
 1738TIP3   OH226628   4.084   2.194   0.418  0.7419 -0.1005  0.4282
 1738TIP3    H126629   4.134   2.210   0.498 -1.2900 -0.3204  1.8118
 1738TIP3    H226630   3.998   2.163   0.448 -0.3423  0.4733 -1.8044
 1739TIP3   OH226631   3.971   6.329   2.684  0.0682 -0.4528  0.2501
 1739TIP3    H126632   3.988   6.249   2.734  0.0354 -1.4610 -1.2816
 1739TIP3    H226633   3.892   6.310   2.634 -0.2273  0.7359  0.2257
 1740TIP3   OH226634   0.352   3.778  15.214 -0.0288  0.4073 -0.0951
 1740TIP3    H126635   0.309   3.802  15.296 -0.4809  0.8996 -0.4647
 1740TIP3    H226636   0.322   3.844  15.151 -2.0647 -1.6077 -1.4003
 1741TIP3   OH226637   3.658   2.367   3.150  0.0881 -0.2559  0.0900
 1741TIP3    H126638   3.667   2.440   3.211  2.1825 -0.3126 -0.1028
 1741TIP3    H226639   3.607   2.402   3.077  0.3292  0.7485  0.3944
 1742TIP3   OH226640   4.366   1.626   1.688  0.4937 -0.3416 -0.0961
 1742TIP3    H126641   4.378   1.591   1.599 -1.0311 -1.6973  0.1731
 1742TIP3    H226642   4.439   1.589   1.738  0.7484 -0.4668 -0.5508
 1743TIP3   OH226643   5.637   1.120   3.224 -0.1285  0.5184 -0.1553
 1743TIP3    H126644   5.707   1.161   3.276  0.2763  0.4196 -0.6138
 1743TIP3    H226645   5.597   1.057   3.283  0.5230  0.1929 -0.0506
 1744TIP3   OH226646   1.593   2.914  11.794 -0.2483  0.1288 -0.2768
 1744TIP3    H126647   1.584   2.926  11.699  0.2131 -0.4823 -0.4034
 1744TIP3    H226648   1.628   2.998  11.825  1.7237 -0.3887 -0.9668
 1745TIP3   OH226649   0.917   3.282   1.698  0.3191  0.0442  0.3526
 1745TIP3    H126650   0.955   3.369   1.713  0.8575 -0.1531  0.1557
 1745TIP3    H226651   0.988   3.221   1.717 -0.2465 -0.3939  1.1350
 1746TIP3   OH226652   1.243   2.620  10.991 -0.2334  0.4462  0.2703
 1746TIP3    H126653   1.205   2.540  10.956  1.6458 -0.2343 -0.3646
 1746TIP3    H226654   1.250   2.679  10.916 -0.4135  0.7241  0.4682
 1747TIP3   OH226655   0.925   1.391   5.286 -0.2606 -0.4375  0.4128
 1747TIP3    H126656   1.011   1.408   5.324 -0.1062  0.9141 -0.4524
 1747TIP3    H226657   0.881   1.335   5.350  1.2344 -1.1283  0.8804
 1748TIP3   OH226658   1.391   6.663   5.531  0.2205 -0.3877  0.2787
 1748TIP3    H126659   1.376   6.686   5.623 -1.1082  0.7548 -0.1844
 1748TIP3    H226660   1.313   6.693   5.486  2.2461  2.3334 -1.7696
 1749TIP3   OH226661   3.712   3.384  16.945  0.1988 -0.2971  0.4209
 1749TIP3    H126662   3.752   3.331  16.877 -1.2170  1.2106 -1.7243
 1749TIP3    H226663   3.784   3.405  17.005  1.2915 -2.4561 -0.0323
 1750TIP3   OH226664   2.989   4.820   6.414 -0.6538  0.8908  0.0411
 1750TIP3    H126665   3.081   4.808   6.388 -0.8028  0.2494 -0.1914
 1750TIP3    H226666   2.989   4.805   6.508 -1.0425 -2.3822 -0.3806
 1751TIP3   OH226667   1.879   2.381   1.410 -0.4372 -0.0182  0.6349
 1751TIP3    H126668   1.923   2.304   1.374 -0.7172 -0.1196  0.5066
 1751TIP3    H226669   1.903   2.452   1.351 -1.6778 -0.3654 -0.3528
 1752TIP3   OH226670   0.399   0.383  12.807  0.0821 -0.2048  0.1394
 1752TIP3    H126671   0.336   0.402  12.876 -0.2914 -1.4078  0.1570
 1752TIP3    H226672   0.379   0.293  12.780  1.7670 -0.6144  0.1358
 1753TIP3   OH226673   3.041   5.109  12.187  0.4936 -0.0240  0.1675
 1753TIP3    H126674   3.112   5.055  12.222  0.5938 -0.6472 -0.9330
 1753TIP3    H226675   2.995   5.051  12.126 -0.0784  0.8028 -0.2069
 1754TIP3   OH226676   5.598   4.378   2.941 -0.3994 -0.1967  0.4926
 1754TIP3    H126677   5.604   4.462   2.986  0.8498 -0.6208  1.1852
 1754TIP3    H226678   5.538   4.394   2.868  0.2957  1.4726  0.2254
 1755TIP3   OH226679   2.930   3.316  13.758 -0.4870 -0.5009 -0.3344
 1755TIP3    H126680   2.836   3.302  13.767 -0.3253 -1.5936 -0.1894
 1755TIP3    H226681   2.948   3.392  13.813 -1.3540  0.0233 -0.7503
 1756TIP3   OH226682   1.196   0.011  13.537 -0.2426  0.6854  0.8309
 1756TIP3    H126683   1.162   0.077  13.598 -0.0505  1.5813 -0.0280
 1756TIP3    H226684   1.220   0.060  13.459 -0.7464 -0.4880 -0.0842
 1757TIP3   OH226685   5.711   3.005   3.338 -0.3927 -0.3437 -0.2067
 1757TIP3    H126686   5.633   2.959   3.368 -1.6364  0.0208 -2.6563
 1757TIP3    H226687   5.724   3.075   3.402 -1.3320 -1.1438  0.9020
 1758TIP3   OH226688   0.680   4.111  15.608  0.6056 -0.4470 -0.5191
 1758TIP3    H126689   0.642   4.023  15.603  0.8632 -0.6153  0.3375
 1758TIP3    H226690   0.649   4.145  15.692 -1.3870  1.1869 -1.8326
 1759TIP3   OH226691   0.818   5.874   2.342 -0.6905  0.4559  0.4509
 1759TIP3    H126692   0.878   5.868   2.267 -2.6431  1.2165 -1.2764
 1759TIP3    H226693   0.817   5.967   2.365 -2.6389  0.8122 -0.8598
 1760TIP3   OH226694   1.221   3.223  15.734 -0.6036  0.1134 -0.5896
 1760TIP3    H126695   1.157   3.281  15.775 -2.1394 -0.7559 -1.6693
 1760TIP3    H226696   1.218   3.143  15.787  2.1140  1.1681  1.4107
 1761TIP3   OH226697   5.644   5.479  16.009 -0.2019  0.2661 -0.0395
 1761TIP3    H126698   5.738   5.486  16.026 -0.1310  0.3681 -0.4759
 1761TIP3    H226699   5.617   5.568  15.984 -0.5361  0.3774  0.6935
 1762TIP3   OH226700   0.486   3.430   2.684  0.3814 -0.2731 -0.0129
 1762TIP3    H126701   0.534   3.507   2.715 -0.5863  0.8177 -1.1163
 1762TIP3    H226702   0.431   3.405   2.758 -0.0392  0.7309  0.0329
 1763TIP3   OH226703   6.388   4.107   0.618  0.3367  0.2220  0.0896
 1763TIP3    H126704   6.437   4.181   0.582  0.9865 -0.5230 -0.5703
 1763TIP3    H226705   6.432   4.086   0.701  2.7279 -1.9633 -1.5808
 1764TIP3   OH226706   0.788   2.188  15.555  0.3350  0.0519  0.1824
 1764TIP3    H126707   0.860   2.190  15.618 -0.4485 -1.1841  1.1747
 1764TIP3    H226708   0.715   2.150  15.604  0.0949 -2.3156 -1.8362
 1765TIP3   OH226709   6.079   5.966  12.134  0.3038  0.5979  0.3629
 1765TIP3    H126710   6.085   6.036  12.069 -0.2136  1.6915  1.4498
 1765TIP3    H226711   6.159   5.915  12.122  0.0982  0.6126 -1.2842
 1766TIP3   OH226712   2.915   4.045  16.967  0.0084  0.3361 -0.0134
 1766TIP3    H126713   2.949   4.130  16.995  1.5752 -0.2565  0.0323
 1766TIP3    H226714   2.925   4.045  16.872  1.7714 -0.4471  0.1250
 1767TIP3   OH226715   4.620   4.469   4.400 -0.3019 -0.1326  0.2303
 1767TIP3    H126716   4.624   4.509   4.313  2.1893  2.9130  1.5703
 1767TIP3    H226717   4.686   4.399   4.397  0.4277  0.5548 -0.0777
 1768TIP3   OH226718   4.884   1.421  17.138 -0.9819 -0.3518 -0.5184
 1768TIP3    H126719   4.892   1.512  17.167 -1.5624 -0.1769 -0.9021
 1768TIP3    H226720   4.943   1.372  17.196  0.1484  0.4165 -0.9993
 1769TIP3   OH226721   3.971   2.997  12.785  0.4729 -0.3909 -0.3823
 1769TIP3    H126722   4.060   3.029  12.772  1.1111 -0.5283  2.8460
 1769TIP3    H226723   3.982   2.910  12.824 -0.9405  0.3697  1.9099
 1770TIP3   OH226724   1.365   5.679  11.464  0.2479  0.1793  0.1214
 1770TIP3    H126725   1.292   5.677  11.401 -0.6441  0.8445  1.0988
 1770TIP3    H226726   1.341   5.614  11.530  0.6806  0.2226  0.3214
 1771TIP3   OH226727   6.111   3.854  11.983  0.7463 -0.1860  0.1523
 1771TIP3    H126728   6.201   3.885  11.968 -0.2166  1.7156 -2.4062
 1771TIP3    H226729   6.065   3.930  12.018 -0.3369 -0.5073 -0.5329
 1772TIP3   OH226730   0.580   3.080  14.090  0.2038 -0.1100 -0.3003
 1772TIP3    H126731   0.600   2.991  14.063  1.9063  0.0869  0.1873
 1772TIP3    H226732   0.540   3.071  14.177  1.8550 -0.3373  0.4644
 1773TIP3   OH226733   4.035   0.831  16.028 -0.1437  0.4136  0.1431
 1773TIP3    H126734   3.992   0.755  15.989 -1.2393  1.1584 -0.1453
 1773TIP3    H226735   4.087   0.795  16.100  2.1645 -1.0478 -2.0729
 1774TIP3   OH226736   1.401   1.055   1.087  0.4146  0.7410  0.5216
 1774TIP3    H126737   1.352   1.099   1.156  0.3499  0.8398  0.4129
 1774TIP3    H226738   1.425   1.125   1.026 -0.3883  0.5068 -0.0789
 1775TIP3   OH226739   6.563   2.644   1.149  0.4083 -0.4120 -0.0136
 1775TIP3    H126740   6.648   2.607   1.126  0.1402 -0.5609 -0.7838
 1775TIP3    H226741   6.563   2.730   1.108 -0.1420 -0.7500 -0.7392
 1776TIP3   OH226742   6.495   1.117   1.396 -0.1686  0.1326  0.2652
 1776TIP3    H126743   6.535   1.202   1.375  2.1237 -0.8705  0.2149
 1776TIP3    H226744   6.426   1.106   1.331  1.4759  0.6582 -1.6875
 1777TIP3   OH226745   1.286   0.036  11.617 -0.5280  0.5132 -0.2653
 1777TIP3    H126746   1.301  -0.059  11.617  1.0710  0.5314  3.8621
 1777TIP3    H226747   1.331   0.068  11.539  0.0836 -2.0202 -1.0299
 1778TIP3   OH226748   5.420   0.947   4.383  0.4594  0.1592  0.0850
 1778TIP3    H126749   5.351   1.008   4.357 -0.6990 -0.7465  0.9102
 1778TIP3    H226750   5.375   0.863   4.394  1.5323 -0.2750  1.4512
 1779TIP3   OH226751   5.001   4.080   2.925 -0.1856  0.3955 -0.5653
 1779TIP3    H126752   5.051   4.112   2.850  0.8593  0.2091  0.0288
 1779TIP3    H226753   5.056   4.103   3.001 -1.5676  1.2765  0.2106
 1780TIP3   OH226754   3.120   1.251   1.378  0.0518 -0.0575  0.6990
 1780TIP3    H126755   3.185   1.241   1.448  0.4926 -0.6879  0.2182
 1780TIP3    H226756   3.169   1.237   1.297  0.4422  4.6198 -0.1181
 1781TIP3   OH226757   3.529   3.430   4.886 -0.3169  0.0697  0.5801
 1781TIP3    H126758   3.476   3.358   4.920  0.5884 -1.9469 -1.9885
 1781TIP3    H226759   3.466   3.487   4.842 -0.8987  0.2427  1.6123
 1782TIP3   OH226760   5.400   4.493   4.233 -0.0364 -0.2717 -0.2573
 1782TIP3    H126761   5.361   4.427   4.176  0.0816 -0.2682 -0.3441
 1782TIP3    H226762   5.373   4.469   4.321 -0.7110  0.0648 -0.3686
 1783TIP3   OH226763   5.400   2.470  17.058 -0.1026  0.0368  0.1735
 1783TIP3    H126764   5.447   2.530  17.001 -1.3349  0.8453 -0.0383
 1783TIP3    H226765   5.465   2.441  17.122  0.2167  2.8629  1.3006
 1784TIP3   OH226766   6.554   1.470   2.147 -0.0713 -0.5196  0.3094
 1784TIP3    H126767   6.598   1.506   2.070  0.8191 -1.6091  0.2806
 1784TIP3    H226768   6.561   1.539   2.213 -0.1800  0.1324 -0.3462
 1785TIP3   OH226769   2.205   2.152  10.902  0.2359 -0.2471 -0.3519
 1785TIP3    H126770   2.138   2.108  10.850 -0.1440  0.2185 -0.2632
 1785TIP3    H226771   2.287   2.137  10.854 -0.1926  0.7100 -1.4299
 1786TIP3   OH226772   2.091   6.530  12.585 -0.0708 -0.4109 -0.2135
 1786TIP3    H126773   2.022   6.466  12.572  0.6045 -0.7642 -2.5075
 1786TIP3    H226774   2.075   6.597  12.518  0.4991  0.6875  0.7063
 1787TIP3   OH226775   3.892   3.501  14.727 -0.4174 -0.6886 -0.8506
 1787TIP3    H126776   3.987   3.499  14.713 -0.7230 -1.5279 -3.1349
 1787TIP3    H226777   3.881   3.559  14.802  1.9274 -0.9501 -0.2067
 1788TIP3   OH226778   6.573   3.528  15.076 -0.2472 -0.1778  0.4870
 1788TIP3    H126779   6.565   3.435  15.057  0.7793 -0.0037 -0.9880
 1788TIP3    H226780   6.490   3.566  15.046 -1.1823 -0.7370  2.2292
 1789TIP3   OH226781   2.592   2.320  16.965 -0.5228  0.5833  0.3938
 1789TIP3    H126782   2.576   2.268  17.044 -0.2524  1.7349  1.2164
 1789TIP3    H226783   2.580   2.257  16.893  1.5796 -1.1133  1.4081
 1790TIP3   OH226784   6.376   1.189   0.644  0.0103 -0.0250  0.2707
 1790TIP3    H126785   6.440   1.145   0.699  1.1635  0.8810 -0.2864
 1790TIP3    H226786   6.301   1.205   0.701 -0.6616 -3.0361  0.3692
 1791TIP3   OH226787   0.533   0.077  13.595  0.0282  0.2393  0.3384
 1791TIP3    H126788   0.618   0.100  13.559 -0.4487 -0.6831 -1.4984
 1791TIP3    H226789   0.509  -0.004  13.549 -2.4311  1.2016 -0.1945
 1792TIP3   OH226790   3.842   4.680  15.656 -0.6442  0.2621 -0.1237
 1792TIP3    H126791   3.924   4.631  15.649 -0.3112  0.8627 -0.5204
 1792TIP3    H226792   3.781   4.633  15.598 -0.1651  0.6260 -0.9432
 1793TIP3   OH226793   1.542   0.518   4.950  0.0346  0.1290  0.1495
 1793TIP3    H126794   1.572   0.548   4.864 -1.5479 -0.8007 -0.7647
 1793TIP3    H226795   1.608   0.454   4.977  0.8250  0.8060 -0.0990
 1794TIP3   OH226796   4.437   3.048  11.831 -0.4977  0.0455 -0.1066
 1794TIP3    H126797   4.418   3.082  11.918 -1.1426  1.0384 -0.6260
 1794TIP3    H226798   4.528   3.073  11.814 -0.1607 -0.7092  0.5259
 1795TIP3   OH226799   6.708   6.272   0.417 -0.3275  0.1220 -0.5717
 1795TIP3    H126800   6.645   6.217   0.462 -0.4982  0.4020 -0.4671
 1795TIP3    H226801   6.683   6.268   0.325 -0.8387  0.6736 -0.4616
 1796TIP3   OH226802   6.449   1.542  16.039 -0.4860 -0.1810 -0.0061
 1796TIP3    H126803   6.370   1.559  15.988 -0.2339 -0.5538 -0.5263
 1796TIP3    H226804   6.497   1.476  15.989 -0.2108 -0.5242  0.6868
 1797TIP3   OH226805   6.023   0.086  14.692  0.0310  0.4305 -0.5950
 1797TIP3    H126806   5.977   0.010  14.658  0.2780  0.3384 -0.7245
 1797TIP3    H226807   5.980   0.105  14.776  1.0338 -0.8466  0.2361
 1798TIP3   OH226808   2.693   3.973   0.764 -0.3783  0.0216  0.3344
 1798TIP3    H126809   2.724   3.884   0.779  1.1879  0.1628 -1.5300
 1798TIP3    H226810   2.745   4.028   0.822  0.3198 -0.0840 -0.1846
 1799TIP3   OH226811   2.064   1.025  12.443 -0.3099 -0.0206  0.4808
 1799TIP3    H126812   2.076   0.971  12.365  0.1223  1.7673 -0.7364
 1799TIP3    H226813   1.973   1.054  12.439  0.4114  2.3455 -0.9682
 1800TIP3   OH226814   3.098   6.433   3.696 -0.0004 -0.0517  0.2553
 1800TIP3    H126815   3.156   6.358   3.683 -2.3733 -1.6041 -2.3112
 1800TIP3    H226816   3.150   6.508   3.667  1.3399 -1.1321 -0.2293
 1801TIP3   OH226817   4.263   3.216   1.904 -0.1183 -0.0617 -0.0592
 1801TIP3    H126818   4.261   3.274   1.828 -1.0257 -0.8402 -0.6546
 1801TIP3    H226819   4.198   3.148   1.884  0.9853 -1.3474  0.5576
 1802TIP3   OH226820   3.064   5.050   5.801  0.1457 -0.3894  0.1285
 1802TIP3    H126821   2.999   5.032   5.734  1.2350 -0.8429 -0.8358
 1802TIP3    H226822   3.033   5.129   5.845 -1.2950 -0.8731  0.0306
 1803TIP3   OH226823   4.871   1.286  14.385 -0.0600  0.0089 -0.1659
 1803TIP3    H126824   4.820   1.351  14.433 -0.5224  0.6268 -1.4666
 1803TIP3    H226825   4.820   1.205  14.391 -0.2661  0.1583  0.0922
 1804TIP3   OH226826   3.789   0.206   4.233  0.2143 -0.1215 -0.0089
 1804TIP3    H126827   3.854   0.269   4.202 -0.3226  1.3688  1.7456
 1804TIP3    H226828   3.720   0.208   4.166  1.6204 -1.2931 -1.5925
 1805TIP3   OH226829   4.950   3.442  14.666  0.0162 -0.1137  0.0688
 1805TIP3    H126830   5.039   3.467  14.687  0.2066 -0.7670  0.0703
 1805TIP3    H226831   4.920   3.508  14.604  0.0079  0.9154  1.1289
 1806TIP3   OH226832   2.505   4.192  13.772  0.0986 -0.3582 -0.1567
 1806TIP3    H126833   2.430   4.252  13.767  0.3996  0.2311  1.5440
 1806TIP3    H226834   2.571   4.241  13.822  0.9760 -1.5062 -0.1451
 1807TIP3   OH226835   1.474   3.452   0.908 -0.1002  0.0902 -0.3563
 1807TIP3    H126836   1.513   3.377   0.954  1.7571  1.7264  0.9003
 1807TIP3    H226837   1.499   3.439   0.816 -0.9585 -1.4848 -0.4045
 1808TIP3   OH226838   3.035   1.640  12.823  0.4746 -0.3874  0.3137
 1808TIP3    H126839   3.058   1.637  12.730  1.2191 -1.5082  0.5163
 1808TIP3    H226840   2.940   1.630  12.824  0.5728 -1.5563 -0.2907
 1809TIP3   OH226841   5.083   2.189   6.505 -0.7490 -0.4678  0.2299
 1809TIP3    H126842   5.169   2.191   6.548 -1.2390  0.2122  1.2108
 1809TIP3    H226843   5.101   2.153   6.418  0.8672  1.4989 -0.3335
 1810TIP3   OH226844   0.001   3.375   5.992  0.3299  0.0032 -0.0106
 1810TIP3    H126845  -0.007   3.392   5.898  1.1004  2.4325  0.2699
 1810TIP3    H226846   0.065   3.440   6.021  0.2467 -0.8337  2.1697
 1811TIP3   OH226847   6.744   3.211   3.892 -0.6920 -0.5206  0.0903
 1811TIP3    H126848   6.775   3.268   3.962  0.0898 -0.5988 -0.1845
 1811TIP3    H226849   6.738   3.124   3.933 -1.5600 -0.3206  0.4167
 1812TIP3   OH226850   4.618   1.369  16.268  0.3973  1.0232  0.5807
 1812TIP3    H126851   4.609   1.279  16.298 -0.1051  0.4229 -1.2286
 1812TIP3    H226852   4.687   1.407  16.323 -0.3400 -0.0265  2.2731
 1813TIP3   OH226853   1.740   5.385  17.056 -0.4537 -0.0835 -0.2920
 1813TIP3    H126854   1.657   5.350  17.024 -0.6525  0.1164 -0.0010
 1813TIP3    H226855   1.785   5.417  16.978 -0.9459  0.4285 -0.3653
 1814TIP3   OH226856   3.643   3.748  16.947  0.1804  0.7124  0.3397
 1814TIP3    H126857   3.680   3.706  16.869 -1.8900  1.4337 -1.1154
 1814TIP3    H226858   3.561   3.787  16.917 -0.2374  1.8348  2.6930
 1815TIP3   OH226859   1.211   5.609   5.661 -0.0131 -0.0622 -0.0302
 1815TIP3    H126860   1.194   5.567   5.576  2.9003 -0.5418 -0.4802
 1815TIP3    H226861   1.189   5.542   5.725 -2.1709  0.2727 -0.3315
 1816TIP3   OH226862   1.692   1.677  16.641  0.1330 -0.3687 -0.6437
 1816TIP3    H126863   1.740   1.640  16.566  1.1321 -0.0474 -0.1776
 1816TIP3    H226864   1.611   1.625  16.645  0.7535 -1.4105 -1.0151
 1817TIP3   OH226865   5.927   2.938  13.942 -0.2680 -0.4889  0.0064
 1817TIP3    H126866   5.834   2.963  13.935 -0.0797  0.2763  0.0772
 1817TIP3    H226867   5.947   2.952  14.035  0.8271  2.8552 -0.5974
 1818TIP3   OH226868   2.685   4.342   5.158  0.3868 -0.4164  0.3557
 1818TIP3    H126869   2.685   4.335   5.254  0.5479  1.4380  0.5336
 1818TIP3    H226870   2.664   4.434   5.141  0.3942 -0.7075 -1.4045
 1819TIP3   OH226871   4.217   6.648  16.874 -0.4453  0.4428  0.0238
 1819TIP3    H126872   4.165   6.585  16.924  0.7297 -0.2504  0.4365
 1819TIP3    H226873   4.214   6.615  16.784  1.5707 -1.2914  0.4999
 1820TIP3   OH226874   0.445   1.716  16.487  0.5000  0.1947  0.3732
 1820TIP3    H126875   0.507   1.672  16.545 -0.8845 -1.5286  0.6320
 1820TIP3    H226876   0.380   1.649  16.465 -0.1262  1.3460 -1.5822
 1821TIP3   OH226877   0.608   6.612   5.170 -0.0701 -0.3403 -0.0350
 1821TIP3    H126878   0.657   6.532   5.185 -0.0841 -0.6583 -1.5088
 1821TIP3    H226879   0.569   6.600   5.083  0.6247  1.6009 -0.6636
 1822TIP3   OH226880   4.118   2.682  14.478  0.0217 -0.7457 -0.2593
 1822TIP3    H126881   4.038   2.711  14.433  0.8149 -0.3297 -1.4677
 1822TIP3    H226882   4.101   2.591  14.501 -0.2974 -1.0993 -1.7586
 1823TIP3   OH226883   3.801   5.051   0.340 -0.0862 -0.5207  0.0549
 1823TIP3    H126884   3.770   4.979   0.285  2.3255 -1.9655  0.4143
 1823TIP3    H226885   3.750   5.043   0.420 -1.2473 -0.5408 -0.6616
 1824TIP3   OH226886   1.957   5.269   1.516 -0.5137 -0.1979  0.4113
 1824TIP3    H126887   1.867   5.238   1.509 -0.1508 -1.1489 -0.2365
 1824TIP3    H226888   2.010   5.189   1.518  0.2821  0.3337  1.4460
 1825TIP3   OH226889   0.873   3.975  15.898  0.0258 -0.5690  0.3467
 1825TIP3    H126890   0.944   3.934  15.946 -0.2958 -0.2776  1.0883
 1825TIP3    H226891   0.915   4.012  15.819  0.5410 -1.1162  0.3612
 1826TIP3   OH226892   4.505   1.318   0.179  0.0274  0.2072 -0.0402
 1826TIP3    H126893   4.413   1.344   0.186  0.5519  1.9156  1.2684
 1826TIP3    H226894   4.523   1.320   0.085 -1.1040  0.4610 -0.2673
 1827TIP3   OH226895   1.659   0.849   5.094 -0.4582  0.0927 -0.4920
 1827TIP3    H126896   1.714   0.927   5.088 -0.6846  0.1491 -2.1235
 1827TIP3    H226897   1.614   0.859   5.178  0.8139  0.8316  0.1372
 1828TIP3   OH226898   5.240   5.999  12.454  0.4275 -0.1219 -0.6569
 1828TIP3    H126899   5.330   6.030  12.458  1.0574 -1.6789 -1.7882
 1828TIP3    H226900   5.224   5.960  12.540  0.7292  0.4136 -0.3549
 1829TIP3   OH226901   1.476   4.630  16.957  0.9823  0.0202 -0.1230
 1829TIP3    H126902   1.505   4.545  16.922  0.9731 -0.2200  0.4392
 1829TIP3    H226903   1.387   4.613  16.987  1.1691  0.0861  0.4800
 1830TIP3   OH226904   5.593   0.090   4.611  0.1275 -0.2781 -0.2502
 1830TIP3    H126905   5.643   0.025   4.659  0.2112 -0.3997 -0.4993
 1830TIP3    H226906   5.602   0.170   4.663  2.4358  0.2905 -1.3769
 1831TIP3   OH226907   4.162   0.425   1.014 -0.1747 -0.0161  0.0608
 1831TIP3    H126908   4.244   0.451   0.972 -0.3455  0.9254  0.2889
 1831TIP3    H226909   4.116   0.374   0.947  1.2290 -1.8752  0.4262
 1832TIP3   OH226910   4.163   0.963   2.133  0.1822 -0.3138 -0.0321
 1832TIP3    H126911   4.250   0.960   2.172 -0.0337  1.8371  0.7575
 1832TIP3    H226912   4.173   1.020   2.057 -0.8002  1.3409  1.0022
 1833TIP3   OH226913   6.323   2.267  13.360 -0.4150 -0.3336 -0.0865
 1833TIP3    H126914   6.334   2.205  13.432  0.0403  0.1782  0.2886
 1833TIP3    H226915   6.327   2.353  13.401 -1.5201 -0.0527 -0.5422
 1834TIP3   OH226916   2.740   5.951   5.531  0.3677 -0.2937  0.1102
 1834TIP3    H126917   2.720   6.006   5.607  2.6601  0.9703 -0.0957
 1834TIP3    H226918   2.674   5.974   5.466  0.6909  1.5469  0.3839
 1835TIP3   OH226919   5.121   6.697  12.898 -1.0562  0.7131  0.2992
 1835TIP3    H126920   5.126   6.628  12.832 -1.7400  1.7361 -0.8621
 1835TIP3    H226921   5.166   6.772  12.859 -1.0313  1.1951  1.2110
 1836TIP3   OH226922   2.829   3.616  10.907  0.3935  0.1599  0.1551
 1836TIP3    H126923   2.899   3.554  10.891  3.0899  2.8280  0.6685
 1836TIP3    H226924   2.834   3.679  10.835 -0.7698  1.0228  0.7729
 1837TIP3   OH226925   4.435   0.244   1.435  0.7253 -0.3148  0.1921
 1837TIP3    H126926   4.389   0.279   1.511  1.3488 -1.6568  1.2438
 1837TIP3    H226927   4.384   0.272   1.360 -0.5976  0.0200  1.1857
 1838TIP3   OH226928   3.729   6.218  10.840 -0.4830  0.1323  0.1541
 1838TIP3    H126929   3.643   6.194  10.805 -1.0661  2.6416 -0.3556
 1838TIP3    H226930   3.786   6.224  10.763 -0.2056 -0.1843  0.3325
 1839TIP3   OH226931   6.094   0.880   2.986  0.2510  0.0754 -0.2765
 1839TIP3    H126932   6.101   0.823   2.909 -0.4275 -0.5277  0.0991
 1839TIP3    H226933   6.002   0.903   2.990  0.2127 -0.2258  0.5965
 1840TIP3   OH226934   1.854   3.159   2.307  0.4015 -0.8468  0.5007
 1840TIP3    H126935   1.780   3.152   2.368  0.2385 -1.3996  0.2450
 1840TIP3    H226936   1.873   3.068   2.282 -0.4806 -0.5466 -1.4221
 1841TIP3   OH226937   2.799   4.041  12.644 -0.8281 -0.3791 -0.3576
 1841TIP3    H126938   2.781   4.054  12.551 -0.7102 -2.6369 -0.7545
 1841TIP3    H226939   2.892   4.019  12.647 -0.6919  0.2793  0.3724
 1842TIP3   OH226940   2.634   0.516   5.220  0.0756  0.2207 -0.7188
 1842TIP3    H126941   2.721   0.557   5.211  0.5448 -0.3760  0.7874
 1842TIP3    H226942   2.649   0.424   5.197  0.0941 -0.1023  0.4934
 1843TIP3   OH226943   2.919   1.994  12.297 -0.2684 -0.1113 -0.0657
 1843TIP3    H126944   3.003   1.953  12.316  0.0460  0.0389 -1.0853
 1843TIP3    H226945   2.872   1.992  12.381  0.7031 -0.2840  0.4902
 1844TIP3   OH226946   1.688   6.573   0.462  0.4536  0.6919 -0.1975
 1844TIP3    H126947   1.768   6.621   0.440  0.6767  1.0704  1.2852
 1844TIP3    H226948   1.671   6.597   0.554 -0.3679 -0.7674  0.0580
 1845TIP3   OH226949   6.518   3.095  12.513  0.8117 -0.0475 -0.3122
 1845TIP3    H126950   6.586   3.034  12.540  0.6178  0.3801  1.2734
 1845TIP3    H226951   6.437   3.043  12.512  0.3493  0.4318  2.6628
 1846TIP3   OH226952   3.997   4.080   4.033 -0.3581 -0.0707 -0.4305
 1846TIP3    H126953   4.003   4.051   3.941 -1.5382 -0.0384 -0.5435
 1846TIP3    H226954   3.916   4.040   4.064 -0.9218  1.3865  0.0522
 1847TIP3   OH226955   0.945   4.524   5.041 -0.0872 -0.4027 -0.0661
 1847TIP3    H126956   0.881   4.540   4.972  0.3585  3.0554  0.1691
 1847TIP3    H226957   1.028   4.558   5.006  1.2636 -2.8938  0.4377
 1848TIP3   OH226958   0.887   5.224  16.176 -0.1636 -0.3716 -0.7842
 1848TIP3    H126959   0.885   5.320  16.169 -0.7095 -0.0427  2.2206
 1848TIP3    H226960   0.946   5.196  16.107  3.0281  2.4688  0.4923
 1849TIP3   OH226961   4.451   6.139  11.520  0.0731 -0.0631 -0.1576
 1849TIP3    H126962   4.516   6.089  11.571  0.8243  0.5057 -0.5329
 1849TIP3    H226963   4.423   6.079  11.451  0.0915 -0.3609  0.0906
 1850TIP3   OH226964   1.598   0.639  15.823  0.2402 -0.1065  0.6096
 1850TIP3    H126965   1.576   0.698  15.895 -1.9763  2.5004 -1.9350
 1850TIP3    H226966   1.517   0.590  15.807 -0.0477  0.9294 -1.3849
 1851TIP3   OH226967   0.062   0.838  14.964 -0.4293 -0.1827  0.1459
 1851TIP3    H126968   0.155   0.840  14.941 -0.0677  1.5449  1.5723
 1851TIP3    H226969   0.059   0.790  15.047 -0.3557  2.2226  1.6353
 1852TIP3   OH226970   4.591   1.671   0.885 -0.7305  0.2537 -0.4703
 1852TIP3    H126971   4.649   1.725   0.938 -1.7267 -0.0377  0.9528
 1852TIP3    H226972   4.648   1.602   0.850  0.0519  0.7851 -0.2851
 1853TIP3   OH226973   2.298   0.464   3.575  0.1079  0.5602 -0.3988
 1853TIP3    H126974   2.250   0.409   3.514  0.7121  0.1702 -0.5238
 1853TIP3    H226975   2.311   0.409   3.652  2.8754 -0.3804 -1.4370
 1854TIP3   OH226976   3.964   6.613   3.156 -0.7186 -0.6179  0.1912
 1854TIP3    H126977   4.028   6.542   3.144 -0.9820 -0.6370 -1.3261
 1854TIP3    H226978   3.964   6.659   3.072  0.7352  2.3042  1.6530
 1855TIP3   OH226979   6.072   5.937  15.482 -0.1931 -0.7541 -0.0386
 1855TIP3    H126980   6.041   5.870  15.421  2.3433 -1.3415 -0.8098
 1855TIP3    H226981   6.160   5.908  15.507  0.2306  1.3132  1.1201
 1856TIP3   OH226982   0.602   2.469   5.926 -0.5546 -0.7094 -0.5609
 1856TIP3    H126983   0.530   2.531   5.927  1.7704  2.3029 -2.9714
 1856TIP3    H226984   0.654   2.490   6.003  0.4927  0.8054 -1.6335
 1857TIP3   OH226985   0.338   2.267  12.478 -0.4191 -0.5643 -0.0650
 1857TIP3    H126986   0.260   2.244  12.529 -0.5901 -1.2184 -0.6092
 1857TIP3    H226987   0.376   2.183  12.453  0.3635 -0.2498  0.0361
 1858TIP3   OH226988   2.070   6.793   6.340  0.7429 -0.1026  0.1584
 1858TIP3    H126989   2.139   6.771   6.403  1.3653  0.8195 -0.1792
 1858TIP3    H226990   2.004   6.837   6.392  0.7513 -0.3239  0.3580
 1859TIP3   OH226991   4.063   0.075   4.159  0.7092 -0.0075 -0.2879
 1859TIP3    H126992   4.050   0.161   4.198  1.1634  0.0950 -0.3627
 1859TIP3    H226993   4.122   0.030   4.219 -0.8871 -0.8984  0.6711
 1860TIP3   OH226994   6.055   1.649  16.857  0.2116  0.2140  0.1599
 1860TIP3    H126995   6.075   1.742  16.866 -0.8708  0.5722 -0.8015
 1860TIP3    H226996   6.100   1.623  16.776  2.1409 -0.6232  1.4307
 1861TIP3   OH226997   2.531   5.509   3.020 -0.0780  0.3856 -0.1769
 1861TIP3    H126998   2.490   5.450   2.957  0.8066 -1.9797  1.3299
 1861TIP3    H226999   2.470   5.511   3.094  1.2651 -1.1610  1.0390
 1862TIP3   OH227000   1.450   3.636   4.534  0.2886 -0.6053 -0.6062
 1862TIP3    H127001   1.493   3.622   4.450 -0.0721  0.7013 -1.0491
 1862TIP3    H227002   1.378   3.697   4.514  1.3571  1.3012  0.9299
 1863TIP3   OH227003   2.147   0.001  11.129  0.3100  0.1499  0.5963
 1863TIP3    H127004   2.221  -0.011  11.188  1.8873 -0.5222 -1.3846
 1863TIP3    H227005   2.148  -0.076  11.072 -0.9014  0.9225 -0.5444
 1864TIP3   OH227006   3.457   4.445  16.404  0.2054 -0.3016  0.5459
 1864TIP3    H127007   3.528   4.486  16.453  0.2298 -1.0207  1.1228
 1864TIP3    H227008   3.431   4.511  16.340  2.4946 -0.6217 -0.7948
 1865TIP3   OH227009   2.509   1.653  12.861 -0.1453  0.1131 -0.4414
 1865TIP3    H127010   2.547   1.667  12.948  2.5601  1.1576 -1.6768
 1865TIP3    H227011   2.537   1.565  12.836 -0.0096  0.2209 -0.6707
 1866TIP3   OH227012   2.428   0.861   6.295 -0.0467 -0.0438 -0.0439
 1866TIP3    H127013   2.395   0.834   6.380 -0.9225  1.4110  0.1148
 1866TIP3    H227014   2.512   0.902   6.313  0.3033 -0.7407 -0.0401
 1867TIP3   OH227015   6.297   4.750   5.036  0.1369 -0.0670  0.1421
 1867TIP3    H127016   6.345   4.732   4.956 -0.2901 -1.1689  0.1148
 1867TIP3    H227017   6.210   4.776   5.007  0.4613  1.1493  0.2141
 1868TIP3   OH227018   1.710   6.443  12.259  0.2295  0.1219 -0.1873
 1868TIP3    H127019   1.679   6.474  12.174 -0.1952 -0.4617 -0.2509
 1868TIP3    H227020   1.687   6.350  12.261  0.8697 -0.0365  0.2810
 1869TIP3   OH227021   0.350   4.263   2.348 -0.2245 -0.3025 -0.1616
 1869TIP3    H127022   0.332   4.184   2.399  2.3060 -0.0577  1.3151
 1869TIP3    H227023   0.418   4.237   2.286 -0.3358  0.4100 -0.5935
 1870TIP3   OH227024   3.390   3.171   3.258  0.7817  0.4564  0.2588
 1870TIP3    H127025   3.442   3.114   3.315  0.3145  0.1458  0.3777
 1870TIP3    H227026   3.363   3.243   3.315  0.6037  0.3211  0.3497
 1871TIP3   OH227027   5.471   4.157   6.577 -0.3612 -0.2152  0.1220
 1871TIP3    H127028   5.544   4.147   6.638 -1.1990  0.0971  1.2116
 1871TIP3    H227029   5.485   4.243   6.537  0.3977 -0.5826 -0.4236
 1872TIP3   OH227030   4.110   3.167  10.974  0.1481 -0.0905  0.0644
 1872TIP3    H127031   4.079   3.255  10.994 -0.6139  0.0641 -1.6461
 1872TIP3    H227032   4.156   3.140  11.053  0.3063  1.7877  0.6703
 1873TIP3   OH227033   3.501   0.725  16.545  0.2279  0.0841 -0.2905
 1873TIP3    H127034   3.591   0.745  16.517  0.8331  1.5071  2.3285
 1873TIP3    H227035   3.507   0.637  16.581  0.8320  0.5018  0.6811
 1874TIP3   OH227036   5.420   4.318   0.794  0.3479 -0.3939 -0.2586
 1874TIP3    H127037   5.343   4.373   0.811 -1.0691 -2.4839  0.4557
 1874TIP3    H227038   5.488   4.355   0.850 -0.8505  0.0904  0.9470
 1875TIP3   OH227039   5.319   1.957   0.992  0.3375  0.2064 -0.1193
 1875TIP3    H127040   5.290   2.030   1.046  2.1333  0.2880  0.8021
 1875TIP3    H227041   5.373   1.904   1.050 -1.2616 -2.1587 -0.6179
 1876TIP3   OH227042   5.669   3.251   3.994  0.4153  0.2073 -0.1139
 1876TIP3    H127043   5.631   3.208   4.071  1.2974 -3.3695 -1.4681
 1876TIP3    H227044   5.600   3.247   3.928  0.9140 -0.2690 -0.6167
 1877TIP3   OH227045   0.299   4.039  13.052  0.3508 -0.5170  0.4430
 1877TIP3    H127046   0.298   4.037  13.148  1.4721 -1.4554  0.4591
 1877TIP3    H227047   0.377   4.091  13.030  0.2176 -0.4831  0.0364
 1878TIP3   OH227048   0.723   2.474   2.559 -0.0168 -0.2868 -0.4054
 1878TIP3    H127049   0.629   2.474   2.538 -0.2047  0.8942  0.3231
 1878TIP3    H227050   0.764   2.426   2.487 -1.0714  0.0643 -1.2624
 1879TIP3   OH227051   2.373   3.353   2.097 -0.4301 -0.4789  0.3587
 1879TIP3    H127052   2.370   3.410   2.174 -1.0194 -0.2479  0.1671
 1879TIP3    H227053   2.408   3.408   2.028  0.9436 -0.9303  0.6555
 1880TIP3   OH227054   3.725   0.114  15.120  0.0423 -0.0455 -0.0456
 1880TIP3    H127055   3.682   0.191  15.081  1.4285  1.3543  1.0722
 1880TIP3    H227056   3.776   0.077  15.048  1.8237  1.9466  0.0931
 1881TIP3   OH227057   4.280   0.205  13.873  0.4177 -0.4045  0.2600
 1881TIP3    H127058   4.191   0.180  13.898  0.7129 -1.6600  0.1067
 1881TIP3    H227059   4.286   0.183  13.780  0.6723  0.3360  0.0933
 1882TIP3   OH227060   3.333   1.566  14.593 -0.2964  0.8131 -0.0759
 1882TIP3    H127061   3.269   1.535  14.657  0.8042 -0.0743  0.6181
 1882TIP3    H227062   3.292   1.645  14.556 -1.5852  0.5321  0.6649
 1883TIP3   OH227063   4.210   3.722  11.282  0.1131  0.3325 -0.1909
 1883TIP3    H127064   4.206   3.718  11.377  0.2551 -2.1306 -0.2263
 1883TIP3    H227065   4.303   3.730  11.262  0.1868 -0.2788 -0.1173
 1884TIP3   OH227066   5.568   3.537   4.265  0.0649  0.5680  0.1207
 1884TIP3    H127067   5.644   3.595   4.273  1.5796 -1.0248 -1.5988
 1884TIP3    H227068   5.586   3.466   4.327  0.8161 -0.5874 -1.3541
 1885TIP3   OH227069   4.252   5.482  11.106 -0.3043  0.0831 -0.4880
 1885TIP3    H127070   4.174   5.522  11.145  0.1422 -0.1480  0.6836
 1885TIP3    H227071   4.263   5.527  11.022 -2.0107 -0.2709 -0.9396
 1886TIP3   OH227072   3.672   6.024   2.426  0.5008  0.2123  0.2038
 1886TIP3    H127073   3.617   5.978   2.489  0.9021 -0.7665 -0.1407
 1886TIP3    H227074   3.619   6.031   2.347  0.5571  0.0489  0.1514
 1887TIP3   OH227075   1.753   4.210   1.108  0.0608  0.5086  0.1186
 1887TIP3    H127076   1.711   4.296   1.102  0.3763  0.6326 -0.3325
 1887TIP3    H227077   1.831   4.217   1.053 -0.3866 -0.3381 -0.6638
 1888TIP3   OH227078   5.870   1.293   4.335  0.1259  0.3677  0.4935
 1888TIP3    H127079   5.941   1.237   4.366  1.1813  0.7125 -1.1820
 1888TIP3    H227080   5.878   1.292   4.240 -2.7241 -0.3469  0.1574
 1889TIP3   OH227081   3.081   3.991   1.202 -0.2848  0.3819 -1.0793
 1889TIP3    H127082   2.997   3.981   1.157 -0.6496  2.0758 -0.8198
 1889TIP3    H227083   3.088   4.084   1.221  1.0904  0.0945  0.0202
 1890TIP3   OH227084   6.341   2.286   3.993 -0.2124 -0.3764 -0.2016
 1890TIP3    H127085   6.250   2.307   3.973  0.4400  2.4077 -0.5686
 1890TIP3    H227086   6.392   2.320   3.919  1.1918 -1.4123  0.2307
 1891TIP3   OH227087   5.083   0.158   3.342  0.2630  0.1685  0.0159
 1891TIP3    H127088   5.098   0.173   3.248  0.4479 -0.7100 -0.1028
 1891TIP3    H227089   5.171   0.148   3.378  0.1414 -1.3508 -0.0483
 1892TIP3   OH227090   0.861   0.333  17.061 -0.1870 -0.2418 -0.2034
 1892TIP3    H127091   0.826   0.244  17.066  0.7430 -0.5369  2.5988
 1892TIP3    H227092   0.814   0.381  17.129 -0.8221  1.5112 -1.8180
 1893TIP3   OH227093   0.705   6.585   4.391  0.3486  0.3033  0.1451
 1893TIP3    H127094   0.776   6.554   4.336  2.1464  0.9648  1.9816
 1893TIP3    H227095   0.629   6.589   4.332  1.7258 -0.6724 -1.8067
 1894TIP3   OH227096   6.723   6.428   3.384  0.1293  0.6199  0.4064
 1894TIP3    H127097   6.790   6.407   3.450  0.0222  0.5467  0.4919
 1894TIP3    H227098   6.772   6.468   3.313  0.9257 -2.9704 -1.2907
 1895TIP3   OH227099   3.392   5.385   5.201  0.0983  0.3230 -0.2282
 1895TIP3    H127100   3.435   5.338   5.129 -0.2017  1.0811 -0.9206
 1895TIP3    H227101   3.355   5.316   5.256  0.3591 -0.2769 -0.7916
 1896TIP3   OH227102   6.140   5.901   5.161 -0.7252  0.0775  0.1658
 1896TIP3    H127103   6.119   5.989   5.192  0.3738  0.4851 -0.1943
 1896TIP3    H227104   6.208   5.915   5.095 -0.4821 -1.0503  0.1637
 1897TIP3   OH227105   0.062   4.615  13.031  0.4500  0.4552  0.2454
 1897TIP3    H127106   0.006   4.684  13.067  1.9940  2.3438 -0.7730
 1897TIP3    H227107   0.049   4.621  12.936 -0.3712 -1.6005  0.1792
 1898TIP3   OH227108   5.500   2.889   4.724  0.2131  0.2957 -0.1497
 1898TIP3    H127109   5.487   2.800   4.691  0.0344  0.2996 -0.0902
 1898TIP3    H227110   5.440   2.897   4.798  2.0477 -0.3906  1.4930
 1899TIP3   OH227111   6.762   3.122  16.625 -0.0646  0.0608 -0.2565
 1899TIP3    H127112   6.697   3.053  16.640 -1.7114  1.2423 -1.4877
 1899TIP3    H227113   6.845   3.084  16.651 -1.2646 -1.4890  1.5320
 1900TIP3   OH227114   6.283   3.912  13.995  0.1621 -0.4301  0.4241
 1900TIP3    H127115   6.259   3.866  13.915 -1.0801  0.3004  0.3436
 1900TIP3    H227116   6.263   3.849  14.065  2.3977 -1.5280  0.1485
 1901TIP3   OH227117   4.163   0.922  13.293  0.1225 -0.2545  0.3934
 1901TIP3    H127118   4.142   1.012  13.317  0.4690 -0.5599  1.9563
 1901TIP3    H227119   4.256   0.913  13.312  0.5211 -0.4641 -1.4247
 1902TIP3   OH227120   0.760   3.365  16.941  0.1832 -0.4827  0.2333
 1902TIP3    H127121   0.697   3.404  16.881  0.2426 -1.2331 -0.3305
 1902TIP3    H227122   0.725   3.385  17.028 -0.2189  0.0994 -0.0499
 1903TIP3   OH227123   2.480   5.885  13.890  0.9760 -0.1294  0.1038
 1903TIP3    H127124   2.494   5.979  13.902 -0.3391 -0.0980  1.9759
 1903TIP3    H227125   2.385   5.874  13.900  1.0287 -1.5784 -0.7278
 1904TIP3   OH227126   1.334   1.020  10.758  0.1063 -0.1801 -0.3222
 1904TIP3    H127127   1.373   1.107  10.749 -2.1745  0.8865 -0.4678
 1904TIP3    H227128   1.299   1.019  10.847 -0.5881 -0.6520 -0.5976
 1905TIP3   OH227129   3.570   0.139  13.504 -0.2892  0.2115 -0.1500
 1905TIP3    H127130   3.640   0.085  13.468  1.3396  2.3546 -0.4246
 1905TIP3    H227131   3.501   0.137  13.438  0.1054 -0.7841 -0.5453
 1906TIP3   OH227132   2.601   1.409   4.371 -0.4493 -0.0258  0.2451
 1906TIP3    H127133   2.644   1.335   4.414  0.1076 -0.1035 -0.4364
 1906TIP3    H227134   2.672   1.472   4.355 -0.8327  0.4479  0.3705
 1907TIP3   OH227135   4.884   2.898   3.561 -0.4700 -0.5224 -0.4848
 1907TIP3    H127136   4.943   2.938   3.497  0.5939 -0.6817  0.3679
 1907TIP3    H227137   4.916   2.808   3.570 -0.2189 -0.3378  0.6907
 1908TIP3   OH227138   1.506   3.719   0.966  0.1617 -0.7143  0.1479
 1908TIP3    H127139   1.491   3.625   0.954 -3.4203 -0.3613  0.7200
 1908TIP3    H227140   1.498   3.756   0.878  0.8457 -0.8429  0.0254
 1909TIP3   OH227141   2.674   4.561  11.452  0.0970 -0.2791 -0.1500
 1909TIP3    H127142   2.730   4.635  11.477 -0.8153 -0.2067  1.9259
 1909TIP3    H227143   2.643   4.526  11.536 -0.7020 -2.0752 -1.1500
 1910TIP3   OH227144   1.360   2.251   0.925 -0.1885  0.6935 -0.5560
 1910TIP3    H127145   1.432   2.308   0.952 -0.8458  1.0358  0.5235
 1910TIP3    H227146   1.286   2.310   0.910 -0.3638  0.3078 -1.2524
 1911TIP3   OH227147   3.365   4.577   3.646 -0.3338 -0.2826 -0.3191
 1911TIP3    H127148   3.383   4.666   3.615 -2.3526  0.2465 -0.1292
 1911TIP3    H227149   3.446   4.529   3.630  1.4611  2.0014  1.2325
 1912TIP3   OH227150   5.352   2.077  16.815 -0.4349 -0.1166  0.2100
 1912TIP3    H127151   5.308   1.994  16.833 -1.5268  0.5502  0.6713
 1912TIP3    H227152   5.399   2.098  16.896  1.8849 -1.4556 -0.6700
 1913TIP3   OH227153   5.278   3.079  12.685 -0.1058 -0.0486  0.5916
 1913TIP3    H127154   5.328   3.081  12.767  0.6923 -3.0083  0.2992
 1913TIP3    H227155   5.343   3.097  12.617  0.1272 -1.5737  0.3781
 1914TIP3   OH227156   3.146   2.607   3.739 -0.6215  0.1344  0.1368
 1914TIP3    H127157   3.176   2.631   3.826 -1.0185  3.0002 -0.4315
 1914TIP3    H227158   3.054   2.583   3.751 -0.4682 -0.2426  0.5982
 1915TIP3   OH227159   6.713   5.888   0.581  0.2288 -0.3674  0.5343
 1915TIP3    H127160   6.660   5.821   0.623 -1.9276  2.0861  2.0787
 1915TIP3    H227161   6.662   5.969   0.592  2.2279  1.3994 -1.9754
 1916TIP3   OH227162   1.109   5.055  16.080  0.1301  0.4978 -0.0286
 1916TIP3    H127163   1.062   4.978  16.111  0.5761  0.6561  1.0910
 1916TIP3    H227164   1.200   5.040  16.107  0.3465  1.1005 -0.4028
 1917TIP3   OH227165   2.110   5.891  16.481 -0.4529  0.5589  0.0934
 1917TIP3    H127166   2.133   5.980  16.508 -0.3518  0.5622 -0.0057
 1917TIP3    H227167   2.091   5.898  16.388  0.4595  0.3035 -0.1186
 1918TIP3   OH227168   2.623   2.563  14.966 -0.0837 -0.0527  0.4031
 1918TIP3    H127169   2.595   2.591  14.879 -0.1142 -0.9539  0.1056
 1918TIP3    H227170   2.713   2.534  14.953 -0.4514 -1.2506  0.4189
 1919TIP3   OH227171   6.219   2.717   2.260  0.3523 -0.5430 -0.5033
 1919TIP3    H127172   6.251   2.670   2.337  1.5612  1.5779  0.3852
 1919TIP3    H227173   6.297   2.760   2.224 -0.6184  0.4643 -1.4715
 1920TIP3   OH227174   4.930   6.364  15.287 -0.3947 -0.0492 -0.5068
 1920TIP3    H127175   4.985   6.441  15.273 -0.5464  0.0163 -0.7413
 1920TIP3    H227176   4.840   6.396  15.277 -0.5461  0.1126  1.0764
 1921TIP3   OH227177   3.820   4.818   5.634  0.4506 -0.3083 -0.4654
 1921TIP3    H127178   3.898   4.767   5.612  0.6295  0.4719 -1.7246
 1921TIP3    H227179   3.853   4.904   5.657 -0.0724  0.3606 -2.0772
 1922TIP3   OH227180   3.478   2.586  16.780  0.2188  1.1855 -0.0676
 1922TIP3    H127181   3.403   2.554  16.730  0.5870 -0.8138  0.5475
 1922TIP3    H227182   3.443   2.605  16.867  0.3024  0.7699  0.0612
 1923TIP3   OH227183   2.243   0.810   3.969 -0.0681 -0.2983 -0.4419
 1923TIP3    H127184   2.311   0.799   3.902 -0.5427 -0.9952 -0.8241
 1923TIP3    H227185   2.287   0.854   4.041  1.0069 -1.4665 -0.3497
 1924TIP3   OH227186   3.719   0.422   5.099 -0.7437 -1.2225  0.5441
 1924TIP3    H127187   3.644   0.463   5.143 -1.4306 -0.8079 -0.9388
 1924TIP3    H227188   3.793   0.442   5.156 -0.6532  3.8156 -0.8462
 1925TIP3   OH227189   5.748   4.205   3.815 -0.1579 -0.6324  0.2469
 1925TIP3    H127190   5.700   4.172   3.891 -1.1506 -0.2405 -0.1827
 1925TIP3    H227191   5.681   4.216   3.747  0.2973  1.1603  0.0139
 1926TIP3   OH227192   0.097   6.181  15.307  0.0423  0.0458  0.1555
 1926TIP3    H127193   0.176   6.192  15.253  0.9651  0.0178  1.4284
 1926TIP3    H227194   0.132   6.167  15.395 -1.3350 -2.4904  0.3636
 1927TIP3   OH227195   1.795   0.914  10.368 -0.4786  0.5540 -0.4140
 1927TIP3    H127196   1.805   0.820  10.378  0.3989  0.5328 -1.3400
 1927TIP3    H227197   1.881   0.945  10.339 -1.0993  1.4635 -1.3596
 1928TIP3   OH227198   0.113   1.970   3.379  0.1603 -0.7281 -0.0754
 1928TIP3    H127199   0.077   2.058   3.379 -0.6810 -1.0478 -1.7370
 1928TIP3    H227200   0.184   1.972   3.314  0.4726 -1.1582  0.2374
 1929TIP3   OH227201   3.378   3.774   3.572  0.4607  0.5601  0.1822
 1929TIP3    H127202   3.326   3.854   3.566 -0.8512 -0.3286 -0.9449
 1929TIP3    H227203   3.464   3.804   3.600 -0.3992  2.1904  1.2767
 1930TIP3   OH227204   0.735   5.169  14.277 -0.2461 -0.4938 -0.1586
 1930TIP3    H127205   0.731   5.180  14.182 -0.8604  0.1762 -0.0626
 1930TIP3    H227206   0.764   5.254  14.310 -2.0374 -0.0494  0.3850
 1931TIP3   OH227207   2.189   6.080  16.834 -0.4433  0.9798 -0.7299
 1931TIP3    H127208   2.248   6.008  16.814 -2.2693 -0.4242 -1.3059
 1931TIP3    H227209   2.183   6.081  16.930  1.0118  1.6202 -0.6144
 1932TIP3   OH227210   5.564   2.225  14.324 -0.5109 -0.4938 -0.1544
 1932TIP3    H127211   5.492   2.217  14.262 -1.3334 -1.9558  0.9154
 1932TIP3    H227212   5.525   2.205  14.409  1.0819 -0.9983  0.5033
 1933TIP3   OH227213   3.084   1.898  12.992  0.0911  0.0276  0.1178
 1933TIP3    H127214   3.030   1.887  13.070 -2.4457  2.3133 -1.1404
 1933TIP3    H227215   3.088   1.810  12.952 -0.9949 -0.5998  1.3286
 1934TIP3   OH227216   2.235   3.691   5.600 -0.2709  0.6418 -0.9483
 1934TIP3    H127217   2.195   3.745   5.531 -0.7345  0.0078 -1.1854
 1934TIP3    H227218   2.196   3.604   5.588  1.0831  0.0349 -1.1018
 1935TIP3   OH227219   3.433   3.252   1.081 -0.1576 -0.0615 -0.4856
 1935TIP3    H127220   3.455   3.325   1.024  0.0039  0.5127  0.2884
 1935TIP3    H227221   3.462   3.280   1.168  0.6881 -1.4012 -0.3124
 1936TIP3   OH227222   6.558   5.322  11.747 -0.2240  0.1536 -0.1798
 1936TIP3    H127223   6.648   5.300  11.773 -0.2566 -1.0567 -1.0279
 1936TIP3    H227224   6.564   5.341  11.654 -0.9369 -0.5227 -0.3758
 1937TIP3   OH227225   1.916   5.521  10.368 -0.1301 -0.4308 -0.1758
 1937TIP3    H127226   1.940   5.602  10.413  0.9165  0.1179 -1.6488
 1937TIP3    H227227   1.823   5.530  10.351 -0.3159 -0.1717  0.8955
 1938TIP3   OH227228   3.020   2.865  14.331 -0.1177  0.4643  0.3107
 1938TIP3    H127229   2.995   2.939  14.276 -1.2834  0.2942  0.5838
 1938TIP3    H227230   3.063   2.904  14.407 -0.3100  0.8215  0.2360
 1939TIP3   OH227231   1.477   3.307   3.713  0.3453 -0.5880 -0.5403
 1939TIP3    H127232   1.438   3.332   3.629  1.4680 -1.4856 -1.3569
 1939TIP3    H227233   1.533   3.381   3.737  2.3015 -1.4764 -2.0763
 1940TIP3   OH227234   2.614   6.735  13.425  0.6395  0.0949  0.3622
 1940TIP3    H127235   2.702   6.727  13.462  1.3192  2.2259 -0.6240
 1940TIP3    H227236   2.610   6.825  13.392 -0.9335 -0.7787 -2.0856
 1941TIP3   OH227237   5.533   5.908  13.123 -0.2962  0.3153  0.3768
 1941TIP3    H127238   5.570   5.984  13.168  1.9992 -0.4693 -0.0258
 1941TIP3    H227239   5.606   5.846  13.119 -1.5074 -1.0721 -1.1609
 1942TIP3   OH227240   2.421   4.019   0.074 -0.1988 -0.2892 -0.5223
 1942TIP3    H127241   2.478   3.954   0.034  0.6238  0.8078 -1.1699
 1942TIP3    H227242   2.468   4.102   0.066 -1.8121  0.6346 -0.9305
 1943TIP3   OH227243   4.755   3.230   5.580  0.1437  0.2021  0.0667
 1943TIP3    H127244   4.805   3.158   5.618  1.9098  0.8506 -0.9377
 1943TIP3    H227245   4.679   3.238   5.637  0.5009 -1.6714  0.8867
 1944TIP3   OH227246   3.723   4.443   1.397  0.6925 -0.0997  0.0547
 1944TIP3    H127247   3.680   4.368   1.439  1.4754 -0.5019  0.1403
 1944TIP3    H227248   3.714   4.427   1.303  0.1265  0.1248  0.0656
 1945TIP3   OH227249   2.018   3.308   5.715 -0.7507 -0.0381  0.0524
 1945TIP3    H127250   1.953   3.356   5.766 -1.2254 -0.4574 -0.1464
 1945TIP3    H227251   2.101   3.349   5.738 -1.1762  1.1499 -0.4353
 1946TIP3   OH227252   0.821   5.529   0.724  0.0048 -0.4914 -0.2019
 1946TIP3    H127253   0.775   5.454   0.686 -0.3106 -0.1851 -0.4341
 1946TIP3    H227254   0.894   5.546   0.665  0.3982 -0.9523  0.1442
 1947TIP3   OH227255   5.961   1.532  17.090  0.7344 -0.4052 -0.4543
 1947TIP3    H127256   5.994   1.564  17.006 -2.6149  0.1937 -1.6954
 1947TIP3    H227257   5.926   1.610  17.132  1.5051 -0.8727  1.1202
 1948TIP3   OH227258   4.427   3.294  16.090  0.4690  0.5598  0.1748
 1948TIP3    H127259   4.401   3.203  16.104 -0.5953  1.1271  2.2741
 1948TIP3    H227260   4.523   3.293  16.093  0.4723 -0.5289 -0.1444
 1949TIP3   OH227261   6.607   2.378   2.183  0.1190 -0.3451 -0.3928
 1949TIP3    H127262   6.527   2.327   2.193 -0.0045 -0.2450 -0.8671
 1949TIP3    H227263   6.587   2.443   2.116  0.9471 -1.0423 -1.3433
 1950TIP3   OH227264   3.072   5.538   2.510 -0.0287 -0.3260 -0.1248
 1950TIP3    H127265   3.045   5.629   2.498  2.0077  0.4167  0.4346
 1950TIP3    H227266   2.996   5.495   2.549 -0.9867  1.1663 -0.2713
 1951TIP3   OH227267   5.583   0.608  15.744  0.8618  0.1598  0.3676
 1951TIP3    H127268   5.651   0.653  15.794  1.4139  0.9486 -1.0675
 1951TIP3    H227269   5.630   0.564  15.673 -0.1213  0.7796 -0.6905
 1952TIP3   OH227270   0.858   4.640   6.849 -0.0827 -0.2760 -0.4446
 1952TIP3    H127271   0.949   4.663   6.834  0.0753 -1.9423 -2.6194
 1952TIP3    H227272   0.823   4.621   6.761 -2.3893 -0.1648  0.3718
 1953TIP3   OH227273   6.796   2.989  15.978  0.1006 -0.5772 -0.4925
 1953TIP3    H127274   6.733   2.926  16.012 -0.7772  0.4319 -0.2092
 1953TIP3    H227275   6.746   3.070  15.967  1.2312  0.1119 -0.7322
 1954TIP3   OH227276   6.334   3.526   2.510 -0.3262 -0.1914 -0.5658
 1954TIP3    H127277   6.366   3.523   2.600  1.3153 -1.3025 -1.1252
 1954TIP3    H227278   6.240   3.541   2.518 -0.8051 -3.2525  1.5078
 1955TIP3   OH227279   0.058   0.496  17.032 -0.9393 -0.3657 -0.4114
 1955TIP3    H127280   0.054   0.417  16.978 -0.4767 -1.3941  0.9876
 1955TIP3    H227281   0.142   0.537  17.008 -0.5871 -0.9823 -0.2587
 1956TIP3   OH227282   2.565   4.752  13.411  0.3950  0.0381  0.2061
 1956TIP3    H127283   2.594   4.761  13.320 -0.5478 -1.9817 -0.3654
 1956TIP3    H227284   2.643   4.726  13.458  0.9139  1.1907  0.0144
 1957TIP3   OH227285   2.192   6.551   2.843 -0.3061  0.3447 -0.2161
 1957TIP3    H127286   2.112   6.515   2.806  0.0166 -1.3318  0.5773
 1957TIP3    H227287   2.259   6.535   2.776  0.2236 -2.4441  0.8149
 1958TIP3   OH227288   0.364   2.672  13.324 -0.1365 -0.2963  0.4561
 1958TIP3    H127289   0.283   2.624  13.340 -0.7441  0.6946  0.4443
 1958TIP3    H227290   0.414   2.662  13.405 -0.2911 -0.8628  0.4855
 1959TIP3   OH227291   6.155   5.130  13.403  0.1763 -0.5961  0.3012
 1959TIP3    H127292   6.066   5.104  13.423 -0.8765  2.0982 -0.4170
 1959TIP3    H227293   6.150   5.225  13.390  3.0755 -0.4097 -0.1692
 1960TIP3   OH227294   1.888   5.123  15.751 -0.1268 -0.3779  0.0103
 1960TIP3    H127295   1.914   5.215  15.755 -0.2175 -0.2684 -1.4730
 1960TIP3    H227296   1.793   5.125  15.763 -0.1200 -0.2759  0.0496
 1961TIP3   OH227297   1.599   5.113  15.229 -0.0793  0.2695  0.3278
 1961TIP3    H127298   1.585   5.038  15.286  0.7922  1.8111  2.7643
 1961TIP3    H227299   1.693   5.131  15.235 -0.5003  2.5140  1.2011
 1962TIP3   OH227300   3.142   5.442   3.706 -0.0669 -0.4327 -0.2827
 1962TIP3    H127301   3.211   5.413   3.647 -0.5788 -1.7762 -0.2373
 1962TIP3    H227302   3.064   5.395   3.678 -0.8607  0.6668  0.0048
 1963TIP3   OH227303   3.274   2.118   2.535 -0.3538  0.3711  0.0600
 1963TIP3    H127304   3.246   2.197   2.490 -0.1427  1.4507  1.7209
 1963TIP3    H227305   3.364   2.103   2.504 -0.6036  0.4318 -0.7064
 1964TIP3   OH227306   5.870   5.401   5.675 -0.0741  0.2326  0.1864
 1964TIP3    H127307   5.781   5.432   5.654 -1.2898 -1.3452  2.5980
 1964TIP3    H227308   5.917   5.480   5.702 -1.4088  0.7996  0.9333
 1965TIP3   OH227309   5.887   4.694   5.172  0.1460 -0.2487  0.0906
 1965TIP3    H127310   5.805   4.741   5.155  0.2688 -0.5957 -1.5783
 1965TIP3    H227311   5.945   4.720   5.100  0.8870 -1.4377  0.2349
 1966TIP3   OH227312   3.691   0.003  12.656  0.0965 -0.5091 -0.2846
 1966TIP3    H127313   3.676   0.049  12.738 -1.0122 -0.0829 -0.7106
 1966TIP3    H227314   3.697   0.072  12.590  2.3474 -0.7483 -0.4164
 1967TIP3   OH227315   4.103   5.420  14.105  0.2014 -0.4791  0.2697
 1967TIP3    H127316   4.128   5.401  14.196  0.6887 -1.3340 -0.0224
 1967TIP3    H227317   4.071   5.336  14.071 -1.9590  0.3071  0.2502
 1968TIP3   OH227318   2.949   3.227   3.012 -0.1375 -0.0808 -0.5548
 1968TIP3    H127319   2.991   3.296   2.960 -0.1287 -0.3857 -0.9584
 1968TIP3    H227320   3.013   3.156   3.013 -0.9408 -0.8625 -1.8401
 1969TIP3   OH227321   4.192   0.651  11.859  0.3676 -0.3238 -0.0048
 1969TIP3    H127322   4.268   0.672  11.804 -0.0267  0.1152 -0.3782
 1969TIP3    H227323   4.206   0.701  11.939  0.4050 -0.1456 -0.1230
 1970TIP3   OH227324   3.589   0.955  16.227  0.6591  0.0246  0.3007
 1970TIP3    H127325   3.504   0.920  16.255 -0.7718  1.0529 -2.3661
 1970TIP3    H227326   3.636   0.878  16.194 -0.0404 -0.2779 -0.0162
 1971TIP3   OH227327   1.714   5.716   3.071  0.1568 -0.4597  0.1063
 1971TIP3    H127328   1.784   5.659   3.041  1.0721  0.1471  1.0287
 1971TIP3    H227329   1.756   5.775   3.133 -1.0972  0.1688  0.3897
 1972TIP3   OH227330   1.884   5.438   1.326  0.0205 -0.4267  0.0949
 1972TIP3    H127331   1.854   5.519   1.366  0.2582 -0.1072 -0.3636
 1972TIP3    H227332   1.919   5.387   1.398  0.9647  0.3715  0.2195
 1973TIP3   OH227333   4.695   4.847   2.440  0.1920  0.3703 -0.3760
 1973TIP3    H127334   4.698   4.939   2.465  1.8962  0.5343 -1.0048
 1973TIP3    H227335   4.774   4.834   2.388 -0.6050 -1.1767 -1.2887
 1974TIP3   OH227336   3.262   0.506  13.430 -0.4565  0.1259 -0.4753
 1974TIP3    H127337   3.279   0.415  13.407 -0.3136 -0.1378  0.5874
 1974TIP3    H227338   3.303   0.516  13.517 -0.2079  1.2804 -0.7055
 1975TIP3   OH227339   3.735   6.558  13.734  0.2273 -0.4848  0.4350
 1975TIP3    H127340   3.741   6.462  13.740  1.1842 -0.5751 -1.3200
 1975TIP3    H227341   3.793   6.581  13.661 -2.0015  1.1868 -0.9562
 1976TIP3   OH227342   2.250   4.873   3.077 -0.6937 -0.2183 -0.5878
 1976TIP3    H127343   2.308   4.931   3.125 -0.3523 -1.2262  0.2550
 1976TIP3    H227344   2.309   4.824   3.018 -0.8305 -0.4818 -0.5063
 1977TIP3   OH227345   3.234   4.438   0.997  0.0068  0.1293  0.3914
 1977TIP3    H127346   3.292   4.454   0.922 -0.4252  0.1490  0.0554
 1977TIP3    H227347   3.171   4.374   0.964 -0.3067  0.2891  0.6819
 1978TIP3   OH227348   1.583   0.162   0.531 -0.2291  0.2050 -0.1113
 1978TIP3    H127349   1.610   0.126   0.616 -0.0135 -0.4985 -0.4713
 1978TIP3    H227350   1.553   0.251   0.551  0.0441  0.1290  0.6663
 1979TIP3   OH227351   4.530   1.142   1.947 -0.4457  0.3273 -0.0113
 1979TIP3    H127352   4.440   1.175   1.955 -0.1005  1.8332 -1.8380
 1979TIP3    H227353   4.584   1.212   1.982  0.0921 -0.0276 -0.1232
 1980TIP3   OH227354   1.723   5.620  12.087  0.6389  0.0138  0.2155
 1980TIP3    H127355   1.681   5.534  12.078  2.2856 -0.9013  0.9620
 1980TIP3    H227356   1.651   5.679  12.111 -0.0629 -1.7489  2.8614
 1981TIP3   OH227357   2.906   0.174   0.931  0.4362 -0.1034  0.3151
 1981TIP3    H127358   2.877   0.153   1.019  1.6439 -0.1082  0.7202
 1981TIP3    H227359   2.847   0.124   0.874 -0.9279  0.5829  1.0671
 1982TIP3   OH227360   2.548   0.665  11.866 -0.1036  0.0041 -0.2108
 1982TIP3    H127361   2.643   0.666  11.874 -0.1819  2.2035  1.1589
 1982TIP3    H227362   2.521   0.586  11.913  0.9728  0.1029  0.6118
 1983TIP3   OH227363   3.531   1.629   3.264 -0.1686  0.0212 -0.1439
 1983TIP3    H127364   3.552   1.556   3.323  2.3874 -0.1724 -1.1920
 1983TIP3    H227365   3.608   1.685   3.266 -0.6003  0.7782 -2.1879
 1984TIP3   OH227366   1.768   0.348   5.001  0.4442 -0.8582 -0.2876
 1984TIP3    H127367   1.759   0.291   4.925 -1.3018 -1.8857  0.6138
 1984TIP3    H227368   1.838   0.308   5.053  2.6210  0.6234 -1.9194
 1985TIP3   OH227369   2.566   5.329  11.543  0.0421 -0.0563  0.1786
 1985TIP3    H127370   2.599   5.239  11.540 -0.3334 -0.1949  0.2036
 1985TIP3    H227371   2.546   5.344  11.636  0.8734  0.3353  0.3084
 1986TIP3   OH227372   4.584   3.900   0.239 -0.7883  0.2167  0.5631
 1986TIP3    H127373   4.609   3.992   0.242  4.6681 -0.9538  3.0756
 1986TIP3    H227374   4.546   3.882   0.325  3.2136 -0.6857  2.3609
 1987TIP3   OH227375   6.185   5.811  10.751 -0.2806  0.1070 -0.0054
 1987TIP3    H127376   6.274   5.795  10.783 -1.1176 -0.1104  2.3574
 1987TIP3    H227377   6.183   5.905  10.735  0.0161  0.3160  1.1189
 1988TIP3   OH227378   5.744   6.546   4.283  0.3523  0.0194  0.8899
 1988TIP3    H127379   5.714   6.590   4.203  2.4119  1.2258  0.7244
 1988TIP3    H227380   5.729   6.609   4.353  3.6686  1.3426  0.6014
 1989TIP3   OH227381   1.034   5.768  15.122  0.3458 -0.3417  0.0228
 1989TIP3    H127382   1.104   5.736  15.065  0.6849 -0.6867  0.6204
 1989TIP3    H227383   1.017   5.857  15.091 -0.1938 -0.8796 -1.2696
 1990TIP3   OH227384   4.358   5.028  13.783  0.0335  0.5240 -0.1976
 1990TIP3    H127385   4.403   5.025  13.699  0.5243  0.2595  0.0705
 1990TIP3    H227386   4.355   4.937  13.812  0.9000  0.7350  0.6090
 1991TIP3   OH227387   0.749   4.196   1.995  0.1655 -0.1388  0.0144
 1991TIP3    H127388   0.814   4.227   1.932  0.9589 -1.4440  0.1645
 1991TIP3    H227389   0.799   4.184   2.076 -0.7355  1.0336  0.7890
 1992TIP3   OH227390   5.207   2.178   2.711 -0.6510  0.0012 -0.4900
 1992TIP3    H127391   5.269   2.204   2.644  1.6896 -0.8384  1.2013
 1992TIP3    H227392   5.230   2.087   2.731 -1.7621 -0.0120  0.9016
 1993TIP3   OH227393   6.793   3.624  12.324 -0.3683  0.4088  0.3732
 1993TIP3    H127394   6.781   3.626  12.229  1.7485  0.9238  0.0772
 1993TIP3    H227395   6.838   3.542  12.341 -0.6682  0.3537  0.9352
 1994TIP3   OH227396   0.129   2.784   2.872 -0.7628  0.7838 -0.4459
 1994TIP3    H127397   0.045   2.829   2.867 -1.5868 -0.4444  1.1584
 1994TIP3    H227398   0.143   2.771   2.966  0.6398 -0.0904 -0.7504
 1995TIP3   OH227399   0.507   5.362   2.427 -0.5890  0.0840  0.3959
 1995TIP3    H127400   0.453   5.438   2.451 -3.1929 -0.5663 -2.8281
 1995TIP3    H227401   0.451   5.287   2.443  0.4337 -0.8639 -0.3820
 1996TIP3   OH227402   1.651   3.038  10.863 -0.2573 -0.0265 -0.2872
 1996TIP3    H127403   1.648   3.031  10.767 -2.9256  2.0976 -0.4731
 1996TIP3    H227404   1.671   3.131  10.879 -0.5650 -0.2013  1.2214
 1997TIP3   OH227405   2.800   0.547  13.622  0.3554 -0.4321  0.1053
 1997TIP3    H127406   2.881   0.579  13.662  0.3125  2.2131 -1.7233
 1997TIP3    H227407   2.809   0.451  13.625  3.0916 -0.2407  0.7987
 1998TIP3   OH227408   2.102   1.726   2.179 -0.0017  0.6174 -0.5235
 1998TIP3    H127409   2.066   1.806   2.140 -0.4453 -0.0280 -1.4738
 1998TIP3    H227410   2.162   1.692   2.113  0.0406  0.0736 -0.2109
 1999TIP3   OH227411   5.853   0.925   2.359  0.0379  0.2353  0.3064
 1999TIP3    H127412   5.859   1.009   2.313  0.4850 -0.1289 -0.3161
 1999TIP3    H227413   5.759   0.906   2.364 -0.2460  1.8183  2.4087
 2000TIP3   OH227414   2.426   4.723   4.097  0.7055 -0.3408 -0.3835
 2000TIP3    H127415   2.482   4.646   4.097  0.8995 -0.2087 -1.0350
 2000TIP3    H227416   2.351   4.699   4.151  1.5230 -0.4135  0.7412
 2001TIP3   OH227417   4.269   2.675  17.024 -0.2364 -0.3912 -0.1998
 2001TIP3    H127418   4.334   2.682  16.954 -0.4429 -0.5852 -0.4117
 2001TIP3    H227419   4.320   2.683  17.104 -0.3241  3.0201 -0.3431
 2002TIP3   OH227420   0.645   2.147   3.432 -0.3422  0.7352  0.6299
 2002TIP3    H127421   0.702   2.215   3.469  2.1024 -0.2244 -1.1118
 2002TIP3    H227422   0.633   2.084   3.503  0.4666  1.1372  1.1361
 2003TIP3   OH227423   1.753   6.172  13.529 -1.1100 -0.0545  0.3696
 2003TIP3    H127424   1.683   6.235  13.515 -2.0858 -1.0541  0.6665
 2003TIP3    H227425   1.711   6.086  13.523  0.1737 -0.6922  0.0662
 2004TIP3   OH227426   2.503   3.029   6.065  0.3002  0.1011 -0.0892
 2004TIP3    H127427   2.463   3.082   5.996  1.9911  1.7830  0.1537
 2004TIP3    H227428   2.597   3.038   6.051  0.6783 -2.3703  0.3690
 2005TIP3   OH227429   1.410   2.837  14.792  0.4152 -0.3709  0.7145
 2005TIP3    H127430   1.317   2.831  14.813  0.4759 -1.3963  0.7489
 2005TIP3    H227431   1.446   2.752  14.819  1.1883 -0.3240 -0.1208
 2006TIP3   OH227432   0.343   0.071   3.247  0.1658  0.1563  0.0668
 2006TIP3    H127433   0.430   0.057   3.283 -0.3332  0.6606  1.5243
 2006TIP3    H227434   0.359   0.112   3.162  1.3454  0.3358  0.3587
 2007TIP3   OH227435   0.280   3.626  13.537 -0.3372  0.2448  0.7838
 2007TIP3    H127436   0.284   3.605  13.630 -1.8231  0.7600  0.9924
 2007TIP3    H227437   0.366   3.663  13.518  1.3955 -3.2655  1.0099
 2008TIP3   OH227438   6.349   2.638  12.477 -0.3706 -0.6535 -0.3351
 2008TIP3    H127439   6.340   2.621  12.383 -3.2456 -0.6578 -0.1354
 2008TIP3    H227440   6.308   2.562  12.519  1.2669 -0.8637  0.9824
 2009TIP3   OH227441   6.756   5.818  13.071 -0.6610 -0.0643 -0.2223
 2009TIP3    H127442   6.755   5.873  13.150  0.1531 -0.0215 -0.2338
 2009TIP3    H227443   6.788   5.876  13.002  1.4183 -0.8552  0.0181
 2010TIP3   OH227444   1.886   1.484  16.438 -0.2771 -0.1486 -0.7773
 2010TIP3    H127445   1.898   1.426  16.513  0.7959  0.0585 -0.7770
 2010TIP3    H227446   1.883   1.425  16.363  0.9973 -0.2076 -0.7950
 2011TIP3   OH227447   2.618   2.062  11.990 -0.5688  0.5123 -0.1080
 2011TIP3    H127448   2.655   1.981  12.025  0.2755  1.0906  0.3919
 2011TIP3    H227449   2.625   2.053  11.895  0.5964  0.4770 -0.0285
 2012TIP3   OH227450   4.122   1.031   3.074 -0.0506 -0.2510  0.1530
 2012TIP3    H127451   4.158   1.005   2.989  0.6865  1.5289 -0.1254
 2012TIP3    H227452   4.052   1.093   3.053  1.1127  1.3522  0.8306
 2013TIP3   OH227453   3.212   2.734  11.738  0.0210  0.0603 -0.3276
 2013TIP3    H127454   3.249   2.797  11.800 -1.3747  1.3201 -0.7447
 2013TIP3    H227455   3.120   2.758  11.731 -0.7011 -2.3833 -0.0838
 2014TIP3   OH227456   5.807   3.318   5.696 -0.1194  0.1298 -0.1254
 2014TIP3    H127457   5.893   3.285   5.723  0.0095  0.4183 -0.1717
 2014TIP3    H227458   5.786   3.269   5.616 -0.5450 -0.7943  0.5410
 2015TIP3   OH227459   0.404   1.949   3.278  0.4818  0.2342 -0.2114
 2015TIP3    H127460   0.413   2.044   3.276 -0.2945  0.3180 -0.1924
 2015TIP3    H227461   0.448   1.923   3.359 -0.9544  0.8017  0.8137
 2016TIP3   OH227462   4.951   5.397  10.111  0.3774 -0.5949 -0.6684
 2016TIP3    H127463   4.869   5.354  10.088 -0.3768 -0.8960  2.1951
 2016TIP3    H227464   4.925   5.479  10.153  1.2896 -1.6809  2.3081
 2017TIP3   OH227465   4.355   6.284   5.286  0.0515 -0.0104 -0.2051
 2017TIP3    H127466   4.332   6.224   5.215  1.3411 -1.3268  0.4356
 2017TIP3    H227467   4.450   6.294   5.279 -0.2638  3.3796 -1.3299
 2018TIP3   OH227468   2.117   4.049  11.412  0.2063  0.3290 -0.3572
 2018TIP3    H127469   2.040   4.104  11.427 -0.1310 -0.3593  0.5318
 2018TIP3    H227470   2.178   4.072  11.482  1.0888  1.3054 -1.4051
 2019TIP3   OH227471   1.044   5.447  11.702 -0.2821 -0.0201  0.1095
 2019TIP3    H127472   1.075   5.385  11.635 -1.0439 -0.9728  0.6187
 2019TIP3    H227473   1.119   5.504  11.719  0.7363 -1.3717  0.2752
 2020TIP3   OH227474   4.307   4.006   4.527 -0.0056 -0.3299  0.5216
 2020TIP3    H127475   4.402   4.015   4.516  0.0851  0.7018  1.8990
 2020TIP3    H227476   4.281   4.086   4.571 -1.8975  0.4489 -1.8172
 2021TIP3   OH227477   1.638   5.356   0.318 -0.2016  0.4249  0.1990
 2021TIP3    H127478   1.726   5.395   0.315 -0.1718  0.3725  0.3495
 2021TIP3    H227479   1.654   5.262   0.325 -0.2246  0.5101  2.1480
 2022TIP3   OH227480   4.822   2.058  13.765  0.3445 -0.2361 -0.2261
 2022TIP3    H127481   4.736   2.031  13.799 -0.3170  0.0602 -1.5962
 2022TIP3    H227482   4.803   2.134  13.711  1.4629 -0.2721 -0.6809
 2023TIP3   OH227483   0.972   3.407  14.964  0.0239 -0.2387 -0.6185
 2023TIP3    H127484   0.997   3.499  14.954 -0.9647 -0.0122 -1.1493
 2023TIP3    H227485   1.046   3.358  14.926  0.0946  0.3780 -1.3085
 2024TIP3   OH227486   1.438   5.558   6.147 -0.3790  0.3648 -0.5017
 2024TIP3    H127487   1.452   5.648   6.175  1.1547 -0.5066  1.7783
 2024TIP3    H227488   1.525   5.527   6.121 -0.3320 -1.1965  1.2729
 2025TIP3   OH227489   0.604   1.450   0.273  0.2859 -0.2536  0.2738
 2025TIP3    H127490   0.677   1.462   0.211 -0.4400  1.8487 -0.2591
 2025TIP3    H227491   0.531   1.421   0.218  0.0884 -0.0492  0.4292
 2026TIP3   OH227492   6.069   2.146   0.484  0.3844 -0.2338 -0.7175
 2026TIP3    H127493   6.073   2.071   0.544  0.4154  0.1627 -0.2206
 2026TIP3    H227494   5.990   2.193   0.511  0.2270 -0.2237 -1.1939
 2027TIP3   OH227495   2.627   2.114   2.541 -0.1788  0.3979  0.0733
 2027TIP3    H127496   2.704   2.135   2.594 -0.4314 -0.6632  0.9138
 2027TIP3    H227497   2.559   2.091   2.606 -0.1306 -2.1866 -0.6684
 2028TIP3   OH227498   6.474   3.280  14.197  0.0258  0.8408  0.0213
 2028TIP3    H127499   6.416   3.209  14.171  2.2921 -1.0220 -0.2219
 2028TIP3    H227500   6.476   3.275  14.293 -0.6059  1.2617  0.0619
 2029TIP3   OH227501   5.118   3.305   4.842 -0.0247 -0.4259  0.2083
 2029TIP3    H127502   5.100   3.326   4.750  0.2212 -0.6281  0.1119
 2029TIP3    H227503   5.126   3.390   4.885 -1.7239 -0.3119  0.3718
 2030TIP3   OH227504   1.563   3.719  16.192  0.2726 -0.5660  0.2094
 2030TIP3    H127505   1.486   3.686  16.237 -1.6482  0.7367 -1.9525
 2030TIP3    H227506   1.538   3.722  16.100  1.8499  2.6468 -0.2420
 2031TIP3   OH227507   1.280   2.823   1.122 -0.3936  0.4472 -0.2712
 2031TIP3    H127508   1.213   2.890   1.139  0.7494  1.4545  0.3973
 2031TIP3    H227509   1.363   2.867   1.140  0.4165 -1.0192 -0.3095
 2032TIP3   OH227510   4.407   0.055   2.782 -0.1859 -0.2983  0.5140
 2032TIP3    H127511   4.346   0.003   2.729 -1.3629  1.3354  0.1859
 2032TIP3    H227512   4.486   0.060   2.730 -0.5784 -0.5244 -0.1163
 2033TIP3   OH227513   2.875   1.454   3.527  0.2878  0.0648 -0.4710
 2033TIP3    H127514   2.804   1.397   3.556 -1.1875  0.1456 -3.4924
 2033TIP3    H227515   2.909   1.412   3.449  1.8320  1.3771 -0.5453
 2034TIP3   OH227516   3.582   0.173  14.762  0.3065  0.0541  0.3240
 2034TIP3    H127517   3.524   0.246  14.784  2.1283  1.0405  2.2278
 2034TIP3    H227518   3.538   0.096  14.797 -1.5246  0.1880 -1.4877
 2035TIP3   OH227519   1.727   0.670   2.557 -0.7894  0.0214  0.2727
 2035TIP3    H127520   1.708   0.639   2.468 -1.2085 -0.0769  0.3981
 2035TIP3    H227521   1.817   0.704   2.551 -0.1889 -1.4651  0.1834
 2036TIP3   OH227522   1.547   6.303   2.470  0.0793  0.4552 -0.2256
 2036TIP3    H127523   1.592   6.388   2.463 -0.6625  0.9879  1.0726
 2036TIP3    H227524   1.457   6.326   2.492 -0.1731 -0.6880 -0.0197
 2037TIP3   OH227525   3.146   2.583  14.362  0.2628 -0.0937 -0.0983
 2037TIP3    H127526   3.094   2.662  14.373  0.4435  0.3153 -1.8613
 2037TIP3    H227527   3.206   2.583  14.436  0.0220  1.2315  0.1212
 2038TIP3   OH227528   2.999   3.270   5.824  0.2272  0.0415  0.4408
 2038TIP3    H127529   3.043   3.217   5.890 -0.4481 -1.0081  0.0839
 2038TIP3    H227530   3.035   3.358   5.835 -1.3455  0.4160  3.5939
 2039TIP3   OH227531   6.207   3.852   1.754 -0.3509 -0.1071  0.3345
 2039TIP3    H127532   6.175   3.933   1.713  0.0676  0.3484  0.8813
 2039TIP3    H227533   6.301   3.866   1.762 -0.4976  0.0856  2.0096
 2040TIP3   OH227534   3.527   0.489   4.642 -0.8788  0.4397 -0.1977
 2040TIP3    H127535   3.537   0.461   4.551 -1.4085 -1.4174  0.2673
 2040TIP3    H227536   3.494   0.579   4.636  0.3030  0.8269 -1.8060
 2041TIP3   OH227537   2.266   3.948  16.313  0.2624  0.2355 -0.1258
 2041TIP3    H127538   2.199   3.945  16.381  0.1178 -0.4046 -0.2985
 2041TIP3    H227539   2.338   3.996  16.354 -0.0519  0.3687  0.2774
 2042TIP3   OH227540   0.798   3.530  16.614 -0.0311  0.3807  0.2205
 2042TIP3    H127541   0.844   3.446  16.617 -1.2215 -0.3340 -0.7151
 2042TIP3    H227542   0.849   3.587  16.672  1.2517 -0.7466  0.2560
 2043TIP3   OH227543   5.138   2.481   4.061 -0.2042  0.5424 -0.4104
 2043TIP3    H127544   5.207   2.481   3.995  1.3056 -1.0787  1.0492
 2043TIP3    H227545   5.073   2.543   4.029 -0.1712 -1.0683 -4.0497
 2044TIP3   OH227546   3.189   5.642  11.496  0.5167  0.1005  1.0714
 2044TIP3    H127547   3.249   5.712  11.520  0.1972  0.5526  0.5751
 2044TIP3    H227548   3.125   5.640  11.568 -0.4592  1.4721  0.2963
 2045TIP3   OH227549   3.641   1.164   2.715  0.3003  0.5866 -0.3274
 2045TIP3    H127550   3.728   1.157   2.755  0.2091  1.0321 -0.0438
 2045TIP3    H227551   3.617   1.074   2.693  0.9416  0.4858 -0.6376
 2046TIP3   OH227552   5.408   1.130  10.580  0.5487 -0.0918 -0.4947
 2046TIP3    H127553   5.349   1.116  10.654  0.1051  0.1345 -0.8032
 2046TIP3    H227554   5.393   1.055  10.523  3.3718 -2.1499  1.2221
 2047TIP3   OH227555   1.675   4.377   3.709 -0.5417  0.9358 -0.0924
 2047TIP3    H127556   1.627   4.459   3.719 -0.3421  1.0645 -0.1884
 2047TIP3    H227557   1.724   4.367   3.790 -2.0999 -0.0961  0.7619
 2048TIP3   OH227558   0.408   4.712   5.598  0.2550 -0.0519 -0.5924
 2048TIP3    H127559   0.341   4.763   5.643 -1.5471 -2.7526  0.0094
 2048TIP3    H227560   0.450   4.660   5.666  1.3220 -0.1519 -1.2943
 2049TIP3   OH227561   3.094   6.040  12.099 -0.0498  0.7736  0.7025
 2049TIP3    H127562   3.109   6.130  12.127  1.6839  0.6448  0.2636
 2049TIP3    H227563   3.042   6.001  12.169  0.8008  1.5840  1.8055
 2050TIP3   OH227564   5.714   1.706  11.147  0.5528  0.3166  0.1912
 2050TIP3    H127565   5.723   1.627  11.202 -1.2028  0.3431  0.5741
 2050TIP3    H227566   5.629   1.743  11.172  0.7021  1.5469 -1.0161
 2051TIP3   OH227567   6.525   0.976  11.771  0.1018 -0.1079  1.0582
 2051TIP3    H127568   6.498   0.888  11.798  0.1985  0.3114  2.6178
 2051TIP3    H227569   6.617   0.981  11.795 -0.1587  0.7626  1.9265
 2052TIP3   OH227570   4.281   1.210   4.386  0.3645 -0.2431 -0.0475
 2052TIP3    H127571   4.248   1.125   4.359  1.9601 -0.7068 -0.6819
 2052TIP3    H227572   4.275   1.264   4.308 -0.4062  0.1551  0.2831
 2053TIP3   OH227573   6.189   4.067   3.673  0.1264 -0.2514  0.1689
 2053TIP3    H127574   6.140   4.001   3.722 -0.6383  1.1449  1.3416
 2053TIP3    H227575   6.208   4.136   3.736  1.3070  0.4673 -0.9177
 2054TIP3   OH227576   0.576   5.070   3.464  0.5387 -0.2691  0.5906
 2054TIP3    H127577   0.666   5.038   3.470  0.8790 -0.0516 -2.1707
 2054TIP3    H227578   0.584   5.161   3.436 -0.5460 -0.0762  0.8537
 2055TIP3   OH227579   0.596   4.093  11.243 -0.0526 -0.1574  0.4947
 2055TIP3    H127580   0.540   4.045  11.183 -0.5817 -0.4218  1.1777
 2055TIP3    H227581   0.677   4.108  11.195 -0.6649  0.1252 -0.4712
 2056TIP3   OH227582   4.730   0.667  16.330 -0.6633  0.3885  0.4569
 2056TIP3    H127583   4.708   0.759  16.317 -1.3543  0.3749  1.4607
 2056TIP3    H227584   4.824   0.662  16.312 -0.5401  1.3625  0.7955
 2057TIP3   OH227585   3.591   0.194  11.491 -0.1987  0.3478  0.3586
 2057TIP3    H127586   3.581   0.113  11.441  0.8732 -1.0980  2.3436
 2057TIP3    H227587   3.533   0.256  11.447 -1.2011 -1.5216 -1.1453
 2058TIP3   OH227588   0.006   1.713   3.008 -0.8314  0.5534 -0.1440
 2058TIP3    H127589   0.014   1.672   3.095 -0.5490 -1.8684 -1.2450
 2058TIP3    H227590  -0.017   1.641   2.949  0.5924  1.7977 -2.3645
 2059TIP3   OH227591   1.236   6.076   4.084 -0.2967  0.4683 -0.3555
 2059TIP3    H127592   1.190   6.034   4.157  0.8017 -0.5572 -0.2063
 2059TIP3    H227593   1.318   6.108   4.122 -0.2662  1.0397 -0.8848
 2060TIP3   OH227594   1.683   1.430   2.705 -0.1402  0.3562  0.6056
 2060TIP3    H127595   1.636   1.496   2.757 -1.7545  0.8124 -1.3221
 2060TIP3    H227596   1.619   1.360   2.691  1.0309 -0.8775  1.2027
 2061TIP3   OH227597   0.193   4.793  13.689  0.2702  0.6406  0.4503
 2061TIP3    H127598   0.249   4.848  13.743 -0.2476 -1.0397  2.8680
 2061TIP3    H227599   0.119   4.849  13.666  1.7116  2.1492 -0.7194
 2062TIP3   OH227600   2.232   4.393  11.766 -0.2737 -0.0164 -0.2423
 2062TIP3    H127601   2.138   4.388  11.750 -0.1897 -1.4851 -0.3666
 2062TIP3    H227602   2.269   4.428  11.685 -0.5746 -0.7473 -0.6986
 2063TIP3   OH227603   0.295   4.085   1.682  0.2543 -0.4827  0.0910
 2063TIP3    H127604   0.222   4.131   1.723  0.4033  0.0585 -0.2365
 2063TIP3    H227605   0.371   4.139   1.702  0.2245  0.2012 -1.5001
 2064TIP3   OH227606   5.528   6.696  17.001  0.2293  0.0765  0.5574
 2064TIP3    H127607   5.468   6.763  16.970  0.9357  0.9257  0.9781
 2064TIP3    H227608   5.493   6.614  16.967 -1.1340  0.5553  0.7516
 2065TIP3   OH227609   2.137   0.793  11.341 -0.4397  0.1685 -0.3371
 2065TIP3    H127610   2.041   0.801  11.344 -0.6767 -2.0163 -0.1788
 2065TIP3    H227611   2.154   0.752  11.256  0.2844 -0.2211 -0.0061
 2066TIP3   OH227612   1.732   4.706   3.412  0.5150  0.6128 -0.4662
 2066TIP3    H127613   1.812   4.702   3.464 -0.2462 -2.3012  0.7309
 2066TIP3    H227614   1.757   4.672   3.326  0.7418  0.4683 -0.3436
 2067TIP3   OH227615   1.466   2.428  11.924  0.5739  0.4902 -0.0700
 2067TIP3    H127616   1.526   2.503  11.921 -1.5067  2.2465 -0.6846
 2067TIP3    H227617   1.452   2.405  11.832  0.7762 -0.3274  0.0970
 2068TIP3   OH227618   0.304   6.564   1.195  0.0083  0.4243  0.1275
 2068TIP3    H127619   0.398   6.546   1.187 -0.0227  0.9945 -2.4644
 2068TIP3    H227620   0.294   6.603   1.282  2.3911  1.5704 -0.0391
 2069TIP3   OH227621   1.902   4.581  11.993 -0.5327  0.2077 -0.2200
 2069TIP3    H127622   1.973   4.574  12.057 -1.2119 -0.2817  0.4984
 2069TIP3    H227623   1.902   4.673  11.967 -0.0558  0.3467  0.2567
 2070TIP3   OH227624   1.127   6.345  14.822  0.2252 -0.3504  0.3139
 2070TIP3    H127625   1.035   6.320  14.826  0.1252 -0.7728 -2.4152
 2070TIP3    H227626   1.126   6.441  14.822 -0.3606 -0.3343 -0.9371
 2071TIP3   OH227627   1.961   5.874   5.833 -0.4668  0.2897 -0.1157
 2071TIP3    H127628   2.048   5.833   5.825 -0.3265  0.7950 -1.4403
 2071TIP3    H227629   1.976   5.953   5.885 -0.6616 -1.0157  2.0774
 2072TIP3   OH227630   6.218   6.332  14.781  0.3917 -0.2545  0.1115
 2072TIP3    H127631   6.198   6.424  14.765 -1.8697 -0.2474  2.3549
 2072TIP3    H227632   6.258   6.301  14.699 -1.0437  2.0966 -1.5950
 2073TIP3   OH227633   2.702   6.173  14.259 -0.4796 -0.0267  0.2905
 2073TIP3    H127634   2.698   6.263  14.292 -1.1091  0.1935 -0.3573
 2073TIP3    H227635   2.740   6.123  14.331 -1.4228  0.5063  1.1926
 2074TIP3   OH227636   2.825   2.031   1.371 -0.5123 -0.0883 -0.0556
 2074TIP3    H127637   2.754   2.092   1.350 -1.7548 -0.2979  3.0298
 2074TIP3    H227638   2.893   2.086   1.410 -0.8286 -0.3942  0.9561
 2075TIP3   OH227639   0.999   5.160  15.348 -0.0618 -0.2083  0.3784
 2075TIP3    H127640   0.949   5.086  15.312 -1.3111  0.4693  0.6700
 2075TIP3    H227641   1.060   5.183  15.278 -0.2058 -1.0137 -0.0243
 2076TIP3   OH227642   0.718   4.746   5.221  0.1206  0.0151  0.4532
 2076TIP3    H127643   0.730   4.808   5.149 -1.8456 -0.3399 -0.2601
 2076TIP3    H227644   0.796   4.691   5.220 -0.9882 -1.8450 -3.3778
 2077TIP3   OH227645   6.234   4.293  16.343  0.2147  0.2010  0.2321
 2077TIP3    H127646   6.199   4.379  16.367 -0.5039 -0.0303  0.0327
 2077TIP3    H227647   6.223   4.288  16.248 -0.2084 -0.2997  0.2980
 2078TIP3   OH227648   1.147   0.362  11.800 -0.0415 -0.7598  0.1572
 2078TIP3    H127649   1.184   0.441  11.840  1.6045 -2.0088  1.1829
 2078TIP3    H227650   1.123   0.390  11.712 -0.1049  1.0534  0.7006
 2079TIP3   OH227651   1.682   2.591  15.299 -0.2627 -0.0906 -0.1968
 2079TIP3    H127652   1.716   2.655  15.237 -1.7221  0.1186 -0.8103
 2079TIP3    H227653   1.752   2.526  15.308 -0.3119 -0.5981 -2.7271
 2080TIP3   OH227654   6.146   0.090   3.920 -0.0121  0.0363 -0.0682
 2080TIP3    H127655   6.123   0.154   3.988  0.9771  0.9792 -0.5998
 2080TIP3    H227656   6.233   0.115   3.891  0.3228 -1.4402 -0.4510
 2081TIP3   OH227657   2.139   0.213   4.286  0.8237 -0.7713  0.1834
 2081TIP3    H127658   2.083   0.281   4.325  0.5990 -0.9824  0.2307
 2081TIP3    H227659   2.170   0.162   4.361  0.3999 -1.1721  0.0906
 2082TIP3   OH227660   6.514   6.605   0.717  0.8537 -0.4174  0.1390
 2082TIP3    H127661   6.467   6.533   0.676  1.9471 -1.1712  0.1773
 2082TIP3    H227662   6.451   6.643   0.779  0.1302 -1.0612 -0.1866
 2083TIP3   OH227663   2.441   4.515   0.825  0.1307 -0.2085  0.0893
 2083TIP3    H127664   2.414   4.528   0.735  0.9144 -2.1166 -0.4750
 2083TIP3    H227665   2.375   4.561   0.877 -0.6359  0.4683 -1.4183
 2084TIP3   OH227666   4.925   2.163  10.653  0.6308 -0.2459 -0.2926
 2084TIP3    H127667   4.914   2.072  10.680  2.4795 -1.0501 -1.9395
 2084TIP3    H227668   5.014   2.186  10.681  0.0541  1.2313  0.4591
 2085TIP3   OH227669   1.008   3.498   3.026  0.3973 -0.3957 -0.4166
 2085TIP3    H127670   1.074   3.448   2.977  1.4895  1.6410 -1.1635
 2085TIP3    H227671   1.041   3.588   3.025 -1.8588  0.5036  0.1831
 2086TIP3   OH227672   6.440   5.827  10.844 -0.5316  0.3313  0.0909
 2086TIP3    H127673   6.534   5.837  10.830 -0.8235  0.1993 -2.4959
 2086TIP3    H227674   6.418   5.893  10.910  1.2814  0.7211  0.3559
 2087TIP3   OH227675   2.953   0.925   5.989  0.1042  0.7740 -0.4681
 2087TIP3    H127676   2.909   0.980   6.054  0.0565  0.9210 -0.6233
 2087TIP3    H227677   2.940   0.835   6.021 -2.9741  0.5139 -2.0541
 2088TIP3   OH227678   3.858   6.179  12.238 -0.0215  0.0686  0.6034
 2088TIP3    H127679   3.821   6.101  12.197  0.1787 -0.8006  1.9964
 2088TIP3    H227680   3.782   6.233  12.259 -0.1881  0.1064 -0.0714
 2089TIP3   OH227681   5.064   2.417   3.673  0.2561  0.2434 -0.1875
 2089TIP3    H127682   4.995   2.351   3.676 -1.1991  1.7080  0.7773
 2089TIP3    H227683   5.142   2.372   3.706 -0.7780 -0.9047  0.7993
 2090TIP3   OH227684   1.117   6.529  12.629 -0.1848  0.2149  0.2314
 2090TIP3    H127685   1.136   6.449  12.679  1.2645  1.9602  2.6586
 2090TIP3    H227686   1.042   6.568  12.674 -0.0568  0.8951 -0.1296
 2091TIP3   OH227687   3.832   5.360   1.682  0.1738 -0.6679 -0.2676
 2091TIP3    H127688   3.891   5.435   1.673 -1.1186  0.2200 -2.1156
 2091TIP3    H227689   3.753   5.396   1.723 -0.1715 -1.1590 -0.4877
 2092TIP3   OH227690   3.167   3.164  11.705 -0.0685 -0.3352 -0.3271
 2092TIP3    H127691   3.083   3.160  11.750 -0.0859  0.2540 -0.3052
 2092TIP3    H227692   3.194   3.255  11.712  1.5566 -0.8997  1.4622
 2093TIP3   OH227693   2.502   3.173   1.220 -0.0665  0.6650  0.1297
 2093TIP3    H127694   2.592   3.206   1.216 -0.3623  1.4738  0.1008
 2093TIP3    H227695   2.452   3.232   1.164 -0.2710 -0.9429 -1.4521
 2094TIP3   OH227696   2.291   6.666   1.425 -0.3843 -0.2389 -0.2131
 2094TIP3    H127697   2.322   6.581   1.457  1.9455  0.2616 -0.9382
 2094TIP3    H227698   2.294   6.723   1.502  0.0491 -0.3270 -0.1614
 2095TIP3   OH227699   2.630   3.428   0.164  0.2547 -0.2242  0.7544
 2095TIP3    H127700   2.667   3.342   0.149  0.5713  0.2810 -1.7974
 2095TIP3    H227701   2.682   3.464   0.237  2.1413 -1.0488 -0.1085
 2096TIP3   OH227702   4.190   4.121   3.494 -0.3889  0.3132 -0.0131
 2096TIP3    H127703   4.232   4.040   3.467  0.9580  1.0002 -0.0746
 2096TIP3    H227704   4.153   4.157   3.413 -0.2516  0.1653 -0.1431
 2097TIP3   OH227705   3.355   2.075   3.301  0.3715 -0.0025  0.1937
 2097TIP3    H127706   3.383   2.167   3.300 -2.6699  1.0609  1.2689
 2097TIP3    H227707   3.374   2.043   3.213  1.7125  1.5865 -0.1367
 2098TIP3   OH227708   5.946   5.036  14.488 -0.2357  0.3425 -0.0409
 2098TIP3    H127709   5.856   5.054  14.462 -0.3334  0.6881  0.5211
 2098TIP3    H227710   5.999   5.086  14.425 -0.2651 -2.7043 -2.7264
 2099TIP3   OH227711   2.984   1.421   2.945  0.7267 -0.0404 -0.5237
 2099TIP3    H127712   3.051   1.464   2.998 -0.7212  0.1385  1.2666
 2099TIP3    H227713   2.933   1.492   2.907 -1.8154  0.0550  2.6261
 2100TIP3   OH227714   3.844   5.435   5.932  0.2295  0.8751  0.1525
 2100TIP3    H127715   3.938   5.452   5.942  0.3588  0.6142 -0.5708
 2100TIP3    H227716   3.819   5.486   5.855 -0.2011  0.8590  0.2801
 2101TIP3   OH227717   3.182   4.839  12.010 -1.0577  0.5475 -0.1447
 2101TIP3    H127718   3.250   4.846  12.077  0.0028 -0.8868 -1.0168
 2101TIP3    H227719   3.189   4.920  11.960 -0.7768  0.9115  0.4692
 2102TIP3   OH227720   2.457   1.137   2.407  0.0809 -0.1757 -0.0897
 2102TIP3    H127721   2.496   1.058   2.445 -2.4100 -2.2639 -1.5262
 2102TIP3    H227722   2.451   1.199   2.480 -2.3530 -3.1202  2.4543
 2103TIP3   OH227723   2.748   6.314  10.824  0.8662 -0.0961  0.2691
 2103TIP3    H127724   2.708   6.236  10.863  1.3254 -0.2421  0.4494
 2103TIP3    H227725   2.840   6.292  10.816  0.7426 -0.1854 -1.1658
 2104TIP3   OH227726   3.226   3.560  15.851  0.0614 -0.3336 -0.5329
 2104TIP3    H127727   3.137   3.573  15.817  0.9331 -0.6031 -3.1843
 2104TIP3    H227728   3.221   3.477  15.899 -0.9401 -0.8634 -1.4984
 2105TIP3   OH227729   1.279   4.795  14.717 -0.3772  0.2143  0.2513
 2105TIP3    H127730   1.321   4.849  14.783 -0.2363  1.9566 -1.1898
 2105TIP3    H227731   1.247   4.719  14.765 -1.2858  1.9331  2.5203
 2106TIP3   OH227732   1.944   5.689  12.457  0.3393 -0.1608 -0.6308
 2106TIP3    H127733   1.881   5.635  12.504 -0.2365  0.6446 -0.4669
 2106TIP3    H227734   2.022   5.690  12.513 -0.2230  0.5165  0.1584
 2107TIP3   OH227735   0.531   0.661   4.309 -0.2580  0.7922  0.1180
 2107TIP3    H127736   0.521   0.716   4.387 -0.1905  1.5482 -0.3964
 2107TIP3    H227737   0.626   0.654   4.297 -0.2348 -0.5399  0.9367
 2108TIP3   OH227738   4.269   6.232   2.496 -0.0557 -0.3641  0.2197
 2108TIP3    H127739   4.304   6.192   2.416  0.2957 -0.6932  0.5336
 2108TIP3    H227740   4.178   6.253   2.475 -0.1313 -0.9697 -0.0830
 2109TIP3   OH227741   3.456   1.082   2.921 -0.1448 -0.5787  0.0697
 2109TIP3    H127742   3.472   1.170   2.887 -0.8905 -0.2799  0.4678
 2109TIP3    H227743   3.395   1.042   2.859 -1.5882  0.0033  1.0419
 2110TIP3   OH227744   0.283   5.267   5.287 -0.3962  0.0447 -0.0486
 2110TIP3    H127745   0.266   5.184   5.241 -1.0597 -0.0471  0.3447
 2110TIP3    H227746   0.320   5.241   5.371  0.3921  0.1957 -0.3424
 2111TIP3   OH227747   4.615   6.254   5.353  0.3422  0.2299  0.2275
 2111TIP3    H127748   4.690   6.234   5.297 -0.5753  0.4587 -1.1344
 2111TIP3    H227749   4.650   6.254   5.442  1.2429 -3.3826  0.0283
 2112TIP3   OH227750   0.256   0.906  12.264  0.8363  0.2129 -0.0322
 2112TIP3    H127751   0.298   0.929  12.347  1.3739 -0.1541 -0.1988
 2112TIP3    H227752   0.229   0.815  12.275  0.7922  0.2036 -0.2120
 2113TIP3   OH227753   0.409   3.902   0.245  0.3406 -0.5012  0.0354
 2113TIP3    H127754   0.469   3.828   0.253  1.8769  0.8486  1.8861
 2113TIP3    H227755   0.343   3.887   0.312  0.5038 -0.3241  0.2357
 2114TIP3   OH227756   1.855   0.859   5.822  0.0055 -0.0032  0.4079
 2114TIP3    H127757   1.782   0.882   5.881 -0.7653  1.3595 -1.0090
 2114TIP3    H227758   1.925   0.831   5.881 -0.3344  2.3428  2.0976
 2115TIP3   OH227759   4.216   3.357   2.137 -0.4744 -0.0901  0.1282
 2115TIP3    H127760   4.269   3.301   2.192  1.6542  1.5717 -0.0780
 2115TIP3    H227761   4.225   3.320   2.049  2.1907  1.2692 -0.2881
 2116TIP3   OH227762   4.981   2.595  12.258  0.3191 -0.5547 -0.3060
 2116TIP3    H127763   5.022   2.569  12.175 -0.8669 -0.9608 -0.7765
 2116TIP3    H227764   5.006   2.527  12.320 -0.3849 -1.2884 -0.8190
 2117TIP3   OH227765   5.387   3.238   1.990 -1.0044 -0.2950  0.1230
 2117TIP3    H127766   5.389   3.253   2.085 -2.7122 -1.8097  0.4484
 2117TIP3    H227767   5.408   3.145   1.981 -1.5105 -0.3128 -0.9413
 2118TIP3   OH227768   1.130   3.158   0.590 -0.0223  0.3412 -0.5458
 2118TIP3    H127769   1.089   3.243   0.574 -0.4200  0.1588 -0.5044
 2118TIP3    H227770   1.065   3.094   0.563  0.2019  0.0465 -0.3976
 2119TIP3   OH227771   1.785   2.903  16.731 -0.4787 -0.4163  0.2920
 2119TIP3    H127772   1.818   2.963  16.798  0.5570  1.5735 -1.8729
 2119TIP3    H227773   1.851   2.834  16.726  0.3253  0.3523  0.1406
 2120TIP3   OH227774   3.391   0.994  13.043 -0.3263  0.1511  0.0894
 2120TIP3    H127775   3.323   1.056  13.069  0.0443  0.1317  1.1505
 2120TIP3    H227776   3.458   1.001  13.112  0.4356 -0.3068 -0.5863
 2121TIP3   OH227777   4.143   5.090   3.091  0.7305 -0.3100 -0.4910
 2121TIP3    H127778   4.231   5.119   3.067 -0.1019  1.9456 -1.0001
 2121TIP3    H227779   4.084   5.155   3.052 -1.2519 -2.3270 -1.0960
 2122TIP3   OH227780   5.045   4.333  13.173  0.0490  0.2097  0.5496
 2122TIP3    H127781   5.032   4.319  13.080 -1.4687 -1.6368  0.9770
 2122TIP3    H227782   5.115   4.272  13.196 -2.5154 -2.7302  1.3094
 2123TIP3   OH227783   6.342   0.291   4.021  0.1875  0.0407 -0.0516
 2123TIP3    H127784   6.294   0.229   4.075  0.6870  1.1436  1.7440
 2123TIP3    H227785   6.346   0.371   4.074  1.6108  0.8413 -1.2809
 2124TIP3   OH227786   5.144   6.390  16.648  0.1288 -0.1825  0.1683
 2124TIP3    H127787   5.055   6.398  16.611 -0.2002 -2.8880  0.1531
 2124TIP3    H227788   5.202   6.403  16.573 -0.4775 -3.2701 -0.9979
 2125TIP3   OH227789   4.564   6.726  11.098 -0.1226 -0.6233 -0.0709
 2125TIP3    H127790   4.554   6.681  11.014 -0.0277 -0.5324 -0.1309
 2125TIP3    H227791   4.571   6.818  11.075  0.8491 -0.6754 -0.0310
 2126TIP3   OH227792   2.430   4.423  10.966  0.2550 -0.6062 -0.3653
 2126TIP3    H127793   2.464   4.502  10.925  0.1974  0.2263  1.1156
 2126TIP3    H227794   2.360   4.454  11.023 -0.4154 -1.8503 -0.4777
 2127TIP3   OH227795   2.911   1.065   1.356 -0.8497  0.1091 -0.2061
 2127TIP3    H127796   2.975   1.136   1.363 -0.8510  0.0751  0.1388
 2127TIP3    H227797   2.830   1.102   1.390 -1.0210  0.1581 -0.6616
 2128TIP3   OH227798   4.679   2.600  12.808  0.0095  0.1090  0.1496
 2128TIP3    H127799   4.686   2.521  12.861  0.1751  1.5495  2.4306
 2128TIP3    H227800   4.598   2.642  12.837  0.0828  0.9362 -0.7702
 2129TIP3   OH227801   0.813   5.161  14.845  0.4497 -0.3201 -0.3374
 2129TIP3    H127802   0.824   5.216  14.923 -0.9073 -1.3106  0.6024
 2129TIP3    H227803   0.821   5.072  14.877  1.8391 -0.7286 -1.7077
 2130TIP3   OH227804   5.290   0.902  13.581 -0.4816 -0.0483  0.0853
 2130TIP3    H127805   5.341   0.939  13.508 -0.3135 -0.3022  0.0724
 2130TIP3    H227806   5.350   0.903  13.655  0.4756 -2.7463 -0.5168
 2131TIP3   OH227807   6.769   4.516  11.665  0.0197 -0.3353 -0.5416
 2131TIP3    H127808   6.862   4.508  11.642  0.3777  1.1327  0.2769
 2131TIP3    H227809   6.735   4.579  11.601  0.2097  1.0713  0.6828
 2132TIP3   OH227810   4.947   3.529  12.607  0.1727  0.6682 -0.3015
 2132TIP3    H127811   5.018   3.518  12.671  0.0012  0.9327 -0.0598
 2132TIP3    H227812   4.991   3.564  12.529  0.4570 -0.1188 -0.5019
 2133TIP3   OH227813   1.219   4.983   2.704 -0.0248  0.4788 -0.2699
 2133TIP3    H127814   1.303   4.953   2.739  0.8107  1.3627 -1.4006
 2133TIP3    H227815   1.155   4.962   2.772  1.0957 -0.3179  0.5741
 2134TIP3   OH227816   0.511   1.595   5.294  0.4940 -0.2266 -0.1466
 2134TIP3    H127817   0.509   1.601   5.199  0.3353 -1.2998 -0.2274
 2134TIP3    H227818   0.427   1.631   5.322  0.0373 -0.9925 -0.4993
 2135TIP3   OH227819   6.167   0.687  12.282  0.4936  0.5908  0.1409
 2135TIP3    H127820   6.078   0.662  12.304 -0.4563  1.5933 -2.1840
 2135TIP3    H227821   6.176   0.777  12.314  0.5312  0.6081  0.0832
 2136TIP3   OH227822   3.386   0.510  13.002 -0.0217  0.0272  0.3100
 2136TIP3    H127823   3.419   0.426  13.035 -0.8592 -0.1526  0.7101
 2136TIP3    H227824   3.324   0.487  12.933 -1.4442  0.2320  1.4774
 2137TIP3   OH227825   1.100   3.860  16.032 -0.0787 -0.6697 -0.2418
 2137TIP3    H127826   1.149   3.846  16.114 -0.3462  3.3054  0.8258
 2137TIP3    H227827   1.165   3.845  15.963  1.1028 -0.9663  0.8830
 2138TIP3   OH227828   5.727   2.387   5.237 -0.0978  0.3037 -0.3603
 2138TIP3    H127829   5.675   2.312   5.265  0.4258  0.2265  0.4367
 2138TIP3    H227830   5.779   2.355   5.163  1.7964 -0.8235  1.3538
 2139TIP3   OH227831   1.606   5.215   3.990 -0.3648  0.0661 -0.1639
 2139TIP3    H127832   1.609   5.128   3.949 -0.4017  0.4051 -0.8866
 2139TIP3    H227833   1.514   5.226   4.014 -1.1550  1.3575 -3.2893
 2140TIP3   OH227834   0.045   4.864  14.705  0.4636  0.3363 -0.0254
 2140TIP3    H127835   0.060   4.904  14.620  0.2691  0.7927  0.1524
 2140TIP3    H227836  -0.011   4.789  14.687 -0.3618  0.9773 -0.1847
 2141TIP3   OH227837   2.611   3.489  16.224 -0.2871 -0.0872  0.0791
 2141TIP3    H127838   2.544   3.469  16.290 -1.3241  1.3573 -0.4925
 2141TIP3    H227839   2.684   3.525  16.275 -0.8050  0.3723  0.5069
 2142TIP3   OH227840   3.822   3.165   3.146 -0.6968  0.3231 -0.4705
 2142TIP3    H127841   3.791   3.246   3.106  0.8981  0.8750 -0.6738
 2142TIP3    H227842   3.842   3.189   3.237 -0.4859  0.0862 -0.4543
 2143TIP3   OH227843   4.609   4.822  11.181  0.0862  0.4039 -0.2603
 2143TIP3    H127844   4.702   4.803  11.164  0.1923  1.5189 -1.0727
 2143TIP3    H227845   4.603   4.824  11.277  0.4111 -1.8189 -0.1428
 2144TIP3   OH227846   2.367   0.662  16.546  0.1940 -0.0904 -0.7007
 2144TIP3    H127847   2.391   0.745  16.588  1.0086 -0.1241 -1.0765
 2144TIP3    H227848   2.304   0.687  16.479 -0.5042  0.0636  0.0028
 2145TIP3   OH227849   1.025   0.066   5.888 -0.6650  0.3208 -0.5646
 2145TIP3    H127850   0.983  -0.020   5.875 -1.3895  0.8042 -1.5807
 2145TIP3    H227851   1.090   0.071   5.818 -1.7633  1.2655 -1.5555
 2146TIP3   OH227852   4.274   2.161  13.251 -0.1943 -0.2724 -0.3307
 2146TIP3    H127853   4.260   2.230  13.186 -0.4184  0.4342  0.4564
 2146TIP3    H227854   4.344   2.194  13.307 -0.5220 -0.5326  0.2462
 2147TIP3   OH227855   2.611   6.647   3.588  0.2035  0.7209  0.5864
 2147TIP3    H127856   2.692   6.627   3.634  1.5687  0.3792 -1.7834
 2147TIP3    H227857   2.610   6.742   3.579  0.1075  0.7598  0.9916
 2148TIP3   OH227858   4.723   3.971  16.045  0.3269  0.1620  0.0139
 2148TIP3    H127859   4.663   3.896  16.047  1.5512 -0.9266  3.1233
 2148TIP3    H227860   4.676   4.040  16.092  0.2528  0.4544 -0.4820
 2149TIP3   OH227861   2.491   5.004   2.757  0.0177  0.1901  0.0026
 2149TIP3    H127862   2.498   4.991   2.663 -2.7634  0.4269 -0.3099
 2149TIP3    H227863   2.428   5.076   2.767 -1.3088 -1.1502  2.0305
 2150TIP3   OH227864   2.013   1.443  13.426  0.0946 -0.3045 -0.1101
 2150TIP3    H127865   1.999   1.524  13.376  1.1558  0.5398  0.8800
 2150TIP3    H227866   1.925   1.415  13.451 -0.2383  1.5022  0.9421
 2151TIP3   OH227867   2.156   6.175   1.002  0.0728  0.1849 -0.3054
 2151TIP3    H127868   2.061   6.176   1.014  0.0287 -0.1324 -0.6285
 2151TIP3    H227869   2.191   6.169   1.091 -0.2372 -1.2465 -0.2515
 2152TIP3   OH227870   1.190   0.690  16.002 -0.2720  0.0945  0.1242
 2152TIP3    H127871   1.274   0.687  16.048 -0.5846  0.0432  0.6989
 2152TIP3    H227872   1.143   0.614  16.035 -0.1407 -0.5091 -0.9972
 2153TIP3   OH227873   0.399   1.782  12.157 -0.4139  0.0385  0.0594
 2153TIP3    H127874   0.396   1.856  12.096 -1.7167 -1.0292 -1.2752
 2153TIP3    H227875   0.310   1.777  12.193 -0.5877 -1.2951 -0.4741
 2154TIP3   OH227876   5.629   6.668  12.546 -0.0527 -0.1283  0.0544
 2154TIP3    H127877   5.597   6.753  12.576  0.8474 -0.2084  1.3479
 2154TIP3    H227878   5.676   6.632  12.622 -0.4294 -1.7865 -0.4511
 2155TIP3   OH227879   3.093   3.870   3.403 -0.0820  0.6702 -0.0928
 2155TIP3    H127880   3.009   3.914   3.393  1.0467  2.7417 -0.9042
 2155TIP3    H227881   3.116   3.840   3.315 -0.1240 -0.2348  0.1928
 2156TIP3   OH227882   3.692   4.198   3.464 -0.4008 -0.1260 -0.0161
 2156TIP3    H127883   3.781   4.212   3.497  0.0456 -0.0902 -1.1880
 2156TIP3    H227884   3.674   4.106   3.481  1.5501 -1.3300 -3.5325
 2157TIP3   OH227885   3.182   4.858   5.363 -0.6121  0.9269 -0.1427
 2157TIP3    H127886   3.193   4.921   5.291 -0.1837  0.7007 -0.2824
 2157TIP3    H227887   3.192   4.772   5.321  0.0391  0.8031  0.2433
 2158TIP3   OH227888   5.483   6.401  11.259  0.0162 -0.1414  0.2973
 2158TIP3    H127889   5.553   6.444  11.210  0.1002 -0.6328 -0.0209
 2158TIP3    H227890   5.519   6.389  11.347  0.1512  0.0471  0.2676
 2159TIP3   OH227891   1.366   6.205   6.091  0.0701  0.1927 -0.7245
 2159TIP3    H127892   1.277   6.204   6.055 -0.8382 -1.1018  1.3308
 2159TIP3    H227893   1.358   6.258   6.171 -0.0477 -3.4200  1.9321
 2160TIP3   OH227894   3.333   3.324  13.505 -0.1170  0.5527  0.0384
 2160TIP3    H127895   3.360   3.262  13.573  0.8977  1.8685  0.8737
 2160TIP3    H227896   3.237   3.316  13.502 -0.1028 -0.1624  0.9873
 2161TIP3   OH227897   6.710   2.963  13.384  0.6536  0.0406 -0.5912
 2161TIP3    H127898   6.723   3.058  13.393  0.0403  0.2646 -1.8192
 2161TIP3    H227899   6.788   2.933  13.337  1.5651 -0.3324  1.0958
 2162TIP3   OH227900   5.539   5.706  15.913 -0.3089 -0.6073  0.5337
 2162TIP3    H127901   5.473   5.740  15.854 -0.8823 -0.7680  1.0736
 2162TIP3    H227902   5.568   5.782  15.964  1.7370 -0.0023 -1.3544
 2163TIP3   OH227903   3.489   6.104  13.248 -0.1857 -0.3638 -0.7427
 2163TIP3    H127904   3.413   6.158  13.270 -0.3746 -0.6456 -0.6982
 2163TIP3    H227905   3.496   6.111  13.153 -0.8862 -1.1542 -0.8592
 2164TIP3   OH227906   3.508   4.222  11.700  0.3691 -0.3786  0.3251
 2164TIP3    H127907   3.421   4.263  11.702  0.2423 -0.6630  0.5837
 2164TIP3    H227908   3.550   4.251  11.781 -0.1462 -1.6857  1.0896
 2165TIP3   OH227909   1.225   4.453  14.622  0.0332  0.5326 -0.1884
 2165TIP3    H127910   1.176   4.501  14.689 -0.4355 -1.8603  1.2984
 2165TIP3    H227911   1.157   4.414  14.567  0.3479  0.0437 -0.2319
 2166TIP3   OH227912   4.734   3.075   5.075 -0.2731  0.3907  0.1699
 2166TIP3    H127913   4.802   3.009   5.060  0.5297  1.1298  0.4503
 2166TIP3    H227914   4.751   3.141   5.007 -0.2647  0.9264  0.6913
 2167TIP3   OH227915   2.236   5.186   2.795 -0.5355  0.0397  0.5519
 2167TIP3    H127916   2.167   5.246   2.768 -1.2353 -1.8629 -2.2571
 2167TIP3    H227917   2.191   5.104   2.814  0.7540 -0.6385  0.7889
 2168TIP3   OH227918   5.244   0.399   3.273  0.2144  0.0326  0.1133
 2168TIP3    H127919   5.299   0.324   3.251 -0.4439 -0.1110 -1.1329
 2168TIP3    H227920   5.247   0.455   3.195 -0.1701  0.7604  0.6122
 2169TIP3   OH227921   0.896   0.487  12.765 -0.1809  0.7486  0.1599
 2169TIP3    H127922   0.834   0.430  12.810  0.5110  0.2081  0.4555
 2169TIP3    H227923   0.860   0.496  12.677  0.2999 -1.1790 -0.2958
 2170TIP3   OH227924   4.386   2.000   5.033 -0.0470 -0.6886  0.1452
 2170TIP3    H127925   4.424   1.927   5.082  0.9343  1.0077  2.0914
 2170TIP3    H227926   4.345   2.054   5.100 -2.2100 -0.2501 -1.4375
 2171TIP3   OH227927   1.334   3.841  12.813  0.0894 -0.0511  0.1839
 2171TIP3    H127928   1.402   3.823  12.748 -0.6448 -0.5413 -0.4759
 2171TIP3    H227929   1.319   3.935  12.807  1.3934  0.2375  1.0450
 2172TIP3   OH227930   6.052   0.515   5.696  0.0203  0.2308  0.1488
 2172TIP3    H127931   6.080   0.595   5.652 -0.9699  0.2710 -0.4374
 2172TIP3    H227932   6.110   0.447   5.661  0.1904  0.5201 -0.1321
 2173TIP3   OH227933   0.445   4.798   3.263 -0.4567  0.0476  0.1504
 2173TIP3    H127934   0.402   4.799   3.348  0.8443 -0.8316  0.8565
 2173TIP3    H227935   0.538   4.790   3.283 -0.1942 -1.1515 -1.3593
 2174TIP3   OH227936   6.381   4.311   0.835 -0.6358  0.4694 -0.5518
 2174TIP3    H127937   6.470   4.293   0.802 -0.0272 -1.5119  1.8850
 2174TIP3    H227938   6.393   4.381   0.899 -0.8584  0.2871 -0.3117
 2175TIP3   OH227939   5.072   0.698  11.630 -0.6084  0.1889 -0.0046
 2175TIP3    H127940   5.109   0.778  11.593  1.7641 -0.8766 -0.1064
 2175TIP3    H227941   4.994   0.681  11.578  1.2541  0.0748 -2.9588
 2176TIP3   OH227942   4.469   3.059   3.290 -0.4418 -0.0871  0.0849
 2176TIP3    H127943   4.395   3.117   3.274 -0.5216 -0.2444 -0.1266
 2176TIP3    H227944   4.483   3.015   3.207  0.8708  1.0494 -0.3313
 2177TIP3   OH227945   2.384   3.520  16.771  0.1701  0.0901 -0.0135
 2177TIP3    H127946   2.363   3.524  16.865  2.0614  1.0096  0.4214
 2177TIP3    H227947   2.299   3.530  16.728 -0.7950 -0.7239  1.5804
 2178TIP3   OH227948   0.037   1.942   1.372  0.0853  0.2964 -0.2809
 2178TIP3    H127949   0.046   1.932   1.467  0.7364  0.6033 -0.3029
 2178TIP3    H227950  -0.052   1.975   1.360 -0.0859  0.0291  0.2048
 2179TIP3   OH227951   3.752   4.262  16.476  0.0130 -1.0788  0.0980
 2179TIP3    H127952   3.689   4.203  16.517 -0.7192 -0.5216 -0.1947
 2179TIP3    H227953   3.838   4.226  16.498 -0.3375 -0.7514  2.2367
 2180TIP3   OH227954   3.212   4.367  11.347  0.6546 -0.1867 -0.3754
 2180TIP3    H127955   3.159   4.328  11.416 -0.7576  1.2681 -0.5828
 2180TIP3    H227956   3.174   4.334  11.265  0.8773 -0.1243 -0.5058
 2181TIP3   OH227957   1.974   1.385  15.425 -0.3749 -0.1369 -0.4468
 2181TIP3    H127958   1.928   1.407  15.344 -0.4025  1.0174 -0.1380
 2181TIP3    H227959   1.964   1.463  15.480  0.6777 -0.4387  0.1993
 2182TIP3   OH227960   5.761   3.322  14.108  0.1369 -0.1743  0.5348
 2182TIP3    H127961   5.739   3.230  14.125  0.3003  0.0781  2.2104
 2182TIP3    H227962   5.836   3.340  14.164  1.6552  0.3486 -1.5515
 2183TIP3   OH227963   1.649   2.616  15.909  0.3319  0.2893 -0.6390
 2183TIP3    H127964   1.733   2.572  15.894  0.1499 -0.1767 -0.3082
 2183TIP3    H227965   1.615   2.576  15.989 -0.7807 -0.4287 -1.4278
 2184TIP3   OH227966   4.031   4.221  13.303  0.6169 -0.1008 -0.1119
 2184TIP3    H127967   3.940   4.200  13.285  0.6634 -0.5247  0.1502
 2184TIP3    H227968   4.050   4.180  13.387  1.2355 -0.5907 -0.4791
 2185TIP3   OH227969   3.845   5.111  15.670  0.0813  0.3191 -0.1159
 2185TIP3    H127970   3.766   5.129  15.721  1.2166  2.3244  1.0747
 2185TIP3    H227971   3.907   5.075  15.734  1.3461  2.3517 -0.1203
 2186TIP3   OH227972   5.454   4.808   5.557 -0.3947 -0.3314 -0.1554
 2186TIP3    H127973   5.424   4.821   5.467 -0.4550 -0.5878 -0.1742
 2186TIP3    H227974   5.415   4.879   5.606 -0.7710 -0.4781 -0.2395
 2187TIP3   OH227975   0.383   4.742   2.723 -0.1903  0.1573  0.3308
 2187TIP3    H127976   0.369   4.647   2.716  1.7796 -0.0396 -3.2049
 2187TIP3    H227977   0.353   4.764   2.811 -1.8317 -3.5198  0.8888
 2188TIP3   OH227978   6.081   0.748  16.410  0.8774 -0.0738 -0.1261
 2188TIP3    H127979   6.167   0.759  16.452  1.3447 -1.2221 -0.7257
 2188TIP3    H227980   6.022   0.725  16.482  1.0554  0.7692  0.2999
 2189TIP3   OH227981   5.156   3.361   3.600  0.3520  0.3568  0.3716
 2189TIP3    H127982   5.195   3.308   3.669 -1.6249  0.3110  1.5217
 2189TIP3    H227983   5.151   3.449   3.637 -1.5269  0.1557  0.6915
 2190TIP3   OH227984   3.208   5.896  12.472  0.7409 -0.6576 -0.4092
 2190TIP3    H127985   3.220   5.806  12.501  2.1900 -0.9772 -1.8260
 2190TIP3    H227986   3.149   5.890  12.397  0.5120 -0.3743 -0.2536
 2191TIP3   OH227987   4.460   6.751   0.288  0.0141  0.0397 -0.3609
 2191TIP3    H127988   4.454   6.846   0.276 -0.9295 -0.1723 -1.7530
 2191TIP3    H227989   4.483   6.718   0.201  2.4271 -0.8765  0.5311
 2192TIP3   OH227990   1.660   3.982   4.449 -0.1796  0.5759 -0.0207
 2192TIP3    H127991   1.727   3.928   4.491  0.4787 -0.1015 -1.8437
 2192TIP3    H227992   1.676   4.070   4.481 -0.3443 -0.0379  1.8763
 2193TIP3   OH227993   5.531   1.866   1.338 -0.5955 -0.5594  0.0809
 2193TIP3    H127994   5.507   1.882   1.430 -0.4869 -0.0462  0.0277
 2193TIP3    H227995   5.449   1.847   1.295 -0.9278  1.0267 -0.0673
 2194TIP3   OH227996   3.595   1.584   5.622 -0.0389 -0.3271  0.5075
 2194TIP3    H127997   3.690   1.581   5.619 -0.0558 -0.4127 -0.0474
 2194TIP3    H227998   3.574   1.623   5.707  0.5483  2.3866 -0.4919
 2195TIP3   OH227999   5.420   5.243  13.425 -0.1863  0.2401 -0.1701
 2195TIP3    H128000   5.418   5.266  13.333 -0.1546  2.9519  0.4353
 2195TIP3    H228001   5.503   5.279  13.457 -0.0469 -0.9418  0.8700
 2196TIP3   OH228002   0.962   6.671   0.731  0.3511  0.2698  0.2199
 2196TIP3    H128003   0.879   6.711   0.760  0.1525  0.3644 -0.4589
 2196TIP3    H228004   0.998   6.735   0.670  1.3682  0.6357  1.1787
 2197TIP3   OH228005   2.792   2.880   1.608 -0.7190 -0.1566 -0.8121
 2197TIP3    H128006   2.738   2.949   1.646  2.0413  1.2085  0.9558
 2197TIP3    H228007   2.762   2.875   1.517 -2.0730  2.3071 -0.6090
 2198TIP3   OH228008   5.249   4.740  16.456 -0.1910  0.3008 -0.2166
 2198TIP3    H128009   5.319   4.675  16.443 -1.0770 -1.3799  2.5953
 2198TIP3    H228010   5.178   4.711  16.399  0.0805 -0.1768 -0.3190
 2199TIP3   OH228011   2.129   2.077  15.948 -0.2460  0.1531  0.2053
 2199TIP3    H128012   2.211   2.115  15.917 -1.0745  2.2575  0.3872
 2199TIP3    H228013   2.149   1.985  15.964  2.7842  1.0809  2.6803
 2200TIP3   OH228014   0.311   5.626   3.343  0.1280 -0.1336  0.5066
 2200TIP3    H128015   0.331   5.718   3.329 -0.4277 -0.0804  0.0203
 2200TIP3    H228016   0.245   5.605   3.277  0.0173 -0.7973  0.8145
 2201TIP3   OH228017   4.076   5.777   5.136  0.5066 -0.3982  0.1602
 2201TIP3    H128018   4.020   5.742   5.205  0.2646  0.5703  0.4791
 2201TIP3    H228019   4.124   5.702   5.103 -0.7231 -1.1965  0.1319
 2202TIP3   OH228020   2.647   6.114   5.766 -0.3158 -0.0669 -0.2618
 2202TIP3    H128021   2.558   6.108   5.800  0.1117 -1.4317  0.6811
 2202TIP3    H228022   2.697   6.158   5.835 -0.0909  0.0408 -0.4851
 2203TIP3   OH228023   5.405   0.974   0.787  0.1126  0.3193  0.0785
 2203TIP3    H128024   5.353   0.894   0.783  2.4700 -1.2609 -1.2622
 2203TIP3    H228025   5.464   0.961   0.861  0.5958  0.7417 -0.2250
 2204TIP3   OH228026   5.785   2.260   0.239 -0.6550  0.4058 -0.0967
 2204TIP3    H128027   5.729   2.229   0.167 -0.9528 -1.6295  0.9641
 2204TIP3    H228028   5.865   2.290   0.196 -0.6634 -1.1509 -1.2799
 2205TIP3   OH228029   2.569   2.659  11.092 -0.1345  0.3613 -0.2545
 2205TIP3    H128030   2.526   2.735  11.053  3.0670  1.4694 -2.0197
 2205TIP3    H228031   2.586   2.601  11.018  1.8225  0.2703  0.2072
 2206TIP3   OH228032   6.401   4.352   0.180 -0.6466  0.0758  0.0180
 2206TIP3    H128033   6.331   4.329   0.241 -0.8399 -0.9023 -0.5451
 2206TIP3    H228034   6.451   4.420   0.225 -2.0836  0.9671  0.3283
 2207TIP3   OH228035   0.973   1.001   5.537  0.1527 -0.2804 -0.3524
 2207TIP3    H128036   0.972   1.053   5.457  0.1215 -0.3341 -0.3873
 2207TIP3    H228037   0.897   1.032   5.587 -0.5082 -1.0326 -0.8562
 2208TIP3   OH228038   2.807   0.305   1.492  0.7479  1.0940 -0.0372
 2208TIP3    H128039   2.772   0.227   1.448  0.1906  1.3419 -0.0373
 2208TIP3    H228040   2.881   0.272   1.543 -0.0715  0.3941  0.7255
 2209TIP3   OH228041   4.644   6.123  14.579  0.2821  0.2363  0.2665
 2209TIP3    H128042   4.605   6.055  14.634 -0.6577 -0.8374 -1.6166
 2209TIP3    H228043   4.701   6.075  14.519  0.8794  1.2954 -0.0259
 2210TIP3   OH228044   5.403   4.372   2.140 -0.0858 -0.0198 -0.1532
 2210TIP3    H128045   5.394   4.434   2.213 -1.1608  0.1550 -0.4102
 2210TIP3    H228046   5.334   4.307   2.156  0.6634 -0.8392 -0.1941
 2211TIP3   OH228047   5.751   4.466  16.925 -0.4225  0.7989 -0.4368
 2211TIP3    H128048   5.676   4.457  16.984  0.1691 -0.2857  0.1856
 2211TIP3    H228049   5.827   4.462  16.983  0.1859 -0.5599 -1.2802
 2212TIP3   OH228050   2.031   5.183  15.048  0.3052 -0.0335 -0.4936
 2212TIP3    H128051   1.995   5.097  15.025  0.3619 -0.2684  0.2733
 2212TIP3    H228052   2.021   5.189  15.143 -0.3299  1.0998 -0.6116
 2213TIP3   OH228053   3.765   0.525   2.903 -0.1431  0.0155 -0.2989
 2213TIP3    H128054   3.764   0.603   2.959 -0.8442  0.6787 -1.2166
 2213TIP3    H228055   3.843   0.534   2.849 -0.5476  0.3881 -0.8242
 2214TIP3   OH228056   3.361   5.342  12.871 -0.0563 -0.0901 -0.5501
 2214TIP3    H128057   3.371   5.338  12.966  1.4906 -1.2392 -0.7276
 2214TIP3    H228058   3.437   5.393  12.841 -0.5914  0.3607 -1.1770
 2215TIP3   OH228059   5.762   5.308  11.345  1.1913 -0.0013 -0.2892
 2215TIP3    H128060   5.704   5.336  11.275 -0.0007  1.1222  1.0881
 2215TIP3    H228061   5.758   5.379  11.409 -0.3944 -2.3796  2.4830
 2216TIP3   OH228062   0.110   3.089  12.297 -0.0771 -0.1598  0.1844
 2216TIP3    H128063   0.159   3.032  12.237 -0.3572  0.1546 -0.3425
 2216TIP3    H228064   0.106   3.039  12.379 -0.5110 -1.0028 -0.3385
 2217TIP3   OH228065   4.003   3.988  13.086  0.2650  0.0273 -0.4165
 2217TIP3    H128066   4.064   3.924  13.123  0.8943  1.2883  0.8455
 2217TIP3    H228067   3.918   3.964  13.123  0.4340 -0.2744 -0.2154
 2218TIP3   OH228068   3.476   2.150  14.054 -0.2645  0.1946 -0.0397
 2218TIP3    H128069   3.395   2.187  14.020 -0.8259 -0.8545  0.1069
 2218TIP3    H228070   3.542   2.167  13.987 -1.0865 -0.7902 -1.1333
 2219TIP3   OH228071   6.056   4.778  14.373 -0.2013 -0.3861  0.0726
 2219TIP3    H128072   6.020   4.840  14.437 -0.5307 -1.3450  0.8526
 2219TIP3    H228073   6.100   4.832  14.308 -0.3138  0.6438  0.8389
 2220TIP3   OH228074   0.146   5.896  11.393 -0.0677  0.0472 -0.6305
 2220TIP3    H128075   0.106   5.939  11.469 -2.3854 -1.2292 -1.0172
 2220TIP3    H228076   0.189   5.966  11.345 -0.7192  1.3101  0.5573
 2221TIP3   OH228077   6.183   6.346   5.899  0.2599  0.1735  0.8335
 2221TIP3    H128078   6.109   6.294   5.867 -0.4887  1.6447  0.0607
 2221TIP3    H228079   6.221   6.295   5.970  0.2164 -1.9093 -0.5670
 2222TIP3   OH228080   1.623   1.713  12.655  0.3057  0.0170 -0.6189
 2222TIP3    H128081   1.609   1.805  12.679 -0.1593 -0.1034 -0.4188
 2222TIP3    H228082   1.716   1.707  12.636  0.9223 -0.1226  2.1604
 2223TIP3   OH228083   4.809   4.265  13.299 -0.1225  0.0558  0.4858
 2223TIP3    H128084   4.812   4.331  13.369  0.6102 -0.1018  0.6068
 2223TIP3    H228085   4.893   4.273  13.255  0.8937 -2.2148  1.8318
 2224TIP3   OH228086   5.722   1.788  17.083  0.3045  0.7062 -0.7853
 2224TIP3    H128087   5.732   1.755  16.994 -1.0823  3.0534 -1.9316
 2224TIP3    H228088   5.811   1.813  17.110  0.7569 -0.1614 -1.4257
 2225TIP3   OH228089   1.934   0.120  15.548 -0.4529  0.0224  0.0437
 2225TIP3    H128090   1.849   0.116  15.504  0.7260  0.4322 -2.4856
 2225TIP3    H228091   1.986   0.053  15.505  1.3884  1.7945 -0.6648
 2226TIP3   OH228092   0.199   0.620   3.458  0.5728 -0.3205 -0.2396
 2226TIP3    H128093   0.111   0.654   3.475 -0.8026 -2.1933 -2.9748
 2226TIP3    H228094   0.250   0.698   3.435 -0.9306  0.6062 -0.5899
 2227TIP3   OH228095   5.595   4.238   1.490 -0.1129 -0.1038  0.2051
 2227TIP3    H128096   5.524   4.175   1.478  0.2309 -0.1603 -1.7792
 2227TIP3    H228097   5.550   4.323   1.497 -0.4765 -0.3613  1.1504
 2228TIP3   OH228098   4.425   1.363  13.830 -0.1229 -0.0496 -0.3469
 2228TIP3    H128099   4.399   1.350  13.739 -2.1705 -0.0563  0.2023
 2228TIP3    H228100   4.344   1.384  13.876  0.7311 -0.8506  1.6482
 2229TIP3   OH228101   1.012   1.309  16.152 -0.3616  0.4710  0.5995
 2229TIP3    H128102   0.957   1.231  16.155 -1.5190  1.2235 -0.2193
 2229TIP3    H228103   1.078   1.289  16.086 -1.1833  0.5080 -0.2461
 2230TIP3   OH228104   4.395   1.691  16.249 -0.2840 -0.9543 -0.1222
 2230TIP3    H128105   4.341   1.650  16.317 -0.7586  0.1906  0.2156
 2230TIP3    H228106   4.343   1.683  16.169 -0.8448 -0.1232  0.1457
 2231TIP3   OH228107   4.546   5.167   4.034  0.3522 -1.0922 -0.6150
 2231TIP3    H128108   4.469   5.112   4.044 -0.9411  0.8339  0.8000
 2231TIP3    H228109   4.602   5.146   4.109 -0.9235  0.5873  0.8944
 2232TIP3   OH228110   0.631   5.376   0.556  0.1619  0.1318  0.4826
 2232TIP3    H128111   0.691   5.352   0.485 -0.1528 -1.7097  0.7735
 2232TIP3    H228112   0.562   5.426   0.513 -0.0338 -0.9786 -0.5492
 2233TIP3   OH228113   3.863   0.391  16.453 -0.1885  0.3334 -0.2718
 2233TIP3    H128114   3.936   0.369  16.396 -1.1808 -1.8810 -0.8165
 2233TIP3    H228115   3.903   0.428  16.532  1.5807 -1.3453 -0.3194
 2234TIP3   OH228116   1.641   6.014  15.547  0.5188  0.3139  0.1435
 2234TIP3    H128117   1.604   5.970  15.471  0.5334 -1.1388  0.9378
 2234TIP3    H228118   1.575   6.004  15.616  1.2516  0.0213  0.8227
 2235TIP3   OH228119   0.755   5.151   4.340  0.0101  0.8476  0.4575
 2235TIP3    H128120   0.816   5.179   4.272  0.3454 -2.3395 -0.7266
 2235TIP3    H228121   0.673   5.134   4.294  0.6456 -2.7670  0.4045
 2236TIP3   OH228122   4.071   2.225   3.015 -0.4524  0.0638 -0.5821
 2236TIP3    H128123   4.070   2.296   2.951  0.4235 -1.9036 -2.9661
 2236TIP3    H228124   3.988   2.232   3.061  0.0297  3.1804  0.0250
 2237TIP3   OH228125   6.275   2.174  14.906 -0.6013 -0.1433 -0.3756
 2237TIP3    H128126   6.332   2.177  14.983  1.0195 -0.7649 -1.4804
 2237TIP3    H228127   6.270   2.265  14.877  0.0979 -0.1102 -0.4204
 2238TIP3   OH228128   1.810   2.564  11.979  0.0496 -0.2516  0.1680
 2238TIP3    H128129   1.763   2.559  12.062  2.0857 -1.5897  1.3295
 2238TIP3    H228130   1.895   2.602  12.002  0.5924 -0.4899 -1.3249
 2239TIP3   OH228131   5.244   6.261   4.953 -0.0672 -0.2753  0.6635
 2239TIP3    H128132   5.226   6.330   5.017  0.7052  0.0679  0.5325
 2239TIP3    H228133   5.162   6.214   4.944 -0.7147  0.8601  0.4841
 2240TIP3   OH228134   0.446   6.527   6.556 -0.2405 -0.0307  0.1716
 2240TIP3    H128135   0.381   6.565   6.615  0.7592  1.0508  0.6059
 2240TIP3    H228136   0.394   6.490   6.484 -1.3841 -0.0870  1.0027
 2241TIP3   OH228137   0.395   1.678  12.843 -0.1625  0.1915 -0.0162
 2241TIP3    H128138   0.313   1.705  12.885 -1.0041 -1.4635 -0.4760
 2241TIP3    H228139   0.414   1.748  12.781 -1.4750  0.4183 -0.2022
 2242TIP3   OH228140   0.140   5.875  15.883 -0.6553  0.0128 -0.1878
 2242TIP3    H128141   0.179   5.950  15.838 -1.7499  0.5557 -0.2790
 2242TIP3    H228142   0.214   5.831  15.925 -0.1873  2.5875  2.0200
 2243TIP3   OH228143   1.886   2.739   2.136  0.5628  0.0095  0.8302
 2243TIP3    H128144   1.874   2.734   2.042  0.9407  0.4325  0.7594
 2243TIP3    H228145   1.802   2.708   2.173  0.2817  0.2101  0.3612
 2244TIP3   OH228146   4.022   5.646  13.358  0.0462  0.3585 -0.0918
 2244TIP3    H128147   3.955   5.603  13.412  0.3380  0.7515  0.6057
 2244TIP3    H228148   4.105   5.618  13.397  0.2627  0.6527 -0.3387
 2245TIP3   OH228149   6.655   0.474   2.328 -0.3750  0.3599 -0.0442
 2245TIP3    H128150   6.650   0.508   2.417  0.6893  1.7690 -0.4925
 2245TIP3    H228151   6.744   0.495   2.299 -0.5762 -0.4172 -1.3189
 2246TIP3   OH228152   0.237   5.831   0.141  0.4221  0.0618 -0.6345
 2246TIP3    H128153   0.185   5.764   0.186  0.4702  0.6197  0.2978
 2246TIP3    H228154   0.282   5.784   0.072 -0.6270 -0.6037 -0.8929
 2247TIP3   OH228155   0.703   3.134   1.611  0.2336 -0.3144 -0.3605
 2247TIP3    H128156   0.700   3.116   1.705 -1.0692  0.7265 -0.1861
 2247TIP3    H228157   0.764   3.207   1.602  0.0868 -0.1833 -0.2875
 2248TIP3   OH228158   1.123   3.668   5.281 -0.0798 -0.0737 -0.5788
 2248TIP3    H128159   1.214   3.644   5.294  0.8312  3.2473  0.0621
 2248TIP3    H228160   1.105   3.645   5.190  1.4448 -0.5800 -0.7751
 2249TIP3   OH228161   6.664   1.287   4.495  0.4489  0.2248 -1.1512
 2249TIP3    H128162   6.582   1.266   4.450 -0.4139 -1.6348  1.0612
 2249TIP3    H228163   6.724   1.217   4.469  0.4760  0.1011 -0.7608
 2250TIP3   OH228164   4.050   6.480  16.182  0.2335  0.6293  0.3371
 2250TIP3    H128165   4.066   6.442  16.268  1.8963 -0.9667 -0.6054
 2250TIP3    H228166   4.136   6.510  16.152 -0.6669  3.3694  0.1448
 2251TIP3   OH228167   3.058   6.197  16.024 -0.6051 -0.4454 -0.5352
 2251TIP3    H128168   3.082   6.107  16.002  1.3019  0.0953 -0.8402
 2251TIP3    H228169   3.131   6.250  15.992 -1.4420  1.1654  0.1085
 2252TIP3   OH228170   1.096   6.373   0.513  0.2139  0.2917 -0.4682
 2252TIP3    H128171   1.003   6.394   0.498  0.4697  2.7406  0.9245
 2252TIP3    H228172   1.144   6.437   0.462  1.1802 -0.6076 -0.7287
 2253TIP3   OH228173   2.223   3.782   4.331  0.5792 -0.5562  0.1044
 2253TIP3    H128174   2.217   3.703   4.278  0.2469 -0.3332 -0.1913
 2253TIP3    H228175   2.194   3.755   4.418  0.1483 -0.6846 -0.0762
 2254TIP3   OH228176   2.802   3.146  14.475 -0.0617  0.6543  0.0945
 2254TIP3    H128177   2.820   3.223  14.528  0.7212  0.4492  0.1422
 2254TIP3    H228178   2.819   3.175  14.385  0.8596  0.3803  0.1637
 2255TIP3   OH228179   5.933   2.822  13.286 -0.2919 -0.5588  0.4683
 2255TIP3    H128180   6.020   2.809  13.325  0.0679 -0.7732 -0.3910
 2255TIP3    H228181   5.886   2.874  13.351  0.0220 -1.6045  1.5702
 2256TIP3   OH228182   5.039   6.425   1.568  0.3281  0.3884  0.1901
 2256TIP3    H128183   5.109   6.476   1.610  2.1669 -1.1851 -0.8281
 2256TIP3    H228184   5.066   6.416   1.477 -1.7265  0.5436 -0.4947
 2257TIP3   OH228185   2.915   0.111  10.962  0.3308  0.1601  0.3428
 2257TIP3    H128186   2.863   0.122  11.042 -1.0220  2.1430 -0.6984
 2257TIP3    H228187   2.861   0.055  10.906 -0.9312  2.3810 -0.8165
 2258TIP3   OH228188   3.542   4.326   4.804  0.6204 -0.3038 -0.2547
 2258TIP3    H128189   3.534   4.232   4.817 -1.6095 -0.1564 -0.0680
 2258TIP3    H228190   3.623   4.350   4.848  0.2228 -1.8676  1.4557
 2259TIP3   OH228191   5.213   6.650   0.988  0.7752  0.4250  0.0320
 2259TIP3    H128192   5.156   6.724   1.006  0.7592  0.0020  1.9136
 2259TIP3    H228193   5.235   6.658   0.895 -1.7239  1.0202 -0.5711
 2260TIP3   OH228194   5.028   4.816   5.823 -0.4959 -0.6681  0.0522
 2260TIP3    H128195   5.062   4.741   5.872 -1.0208 -1.6998 -1.1095
 2260TIP3    H228196   4.946   4.838   5.868  0.1596 -0.1274  1.0058
 2261TIP3   OH228197   4.830   5.812   0.212  0.1703  0.2688  0.0130
 2261TIP3    H128198   4.788   5.885   0.167 -0.6284 -1.1353 -1.6289
 2261TIP3    H228199   4.897   5.780   0.151  1.0436  0.0877  1.0264
 2262TIP3   OH228200   6.422   0.042   1.626  0.2142 -0.5217 -0.2201
 2262TIP3    H128201   6.339   0.072   1.663 -0.5151 -2.2746 -0.3219
 2262TIP3    H228202   6.482   0.038   1.700 -0.5760 -1.7901  0.3696
 2263TIP3   OH228203   0.753   6.001  12.645 -0.0336 -0.0958  0.1910
 2263TIP3    H128204   0.658   6.008  12.639 -0.2664 -1.9784  1.1066
 2263TIP3    H228205   0.784   6.092  12.635 -1.7532  0.3341 -2.0609
 2264TIP3   OH228206   5.068   6.446   2.486  0.1391 -0.1734  0.8740
 2264TIP3    H128207   5.159   6.430   2.457 -0.0046 -0.5622  0.6243
 2264TIP3    H228208   5.062   6.403   2.571 -0.4704 -2.2169 -0.1378
 2265TIP3   OH228209   6.640   4.248  14.775 -0.0352  0.1256 -0.0913
 2265TIP3    H128210   6.590   4.193  14.715  0.0361 -0.3770  0.3083
 2265TIP3    H228211   6.718   4.273  14.724  1.2443 -2.2808  0.5525
 2266TIP3   OH228212   0.018   6.056  13.219  0.4390  0.4874 -0.3264
 2266TIP3    H128213   0.058   6.080  13.135  0.3032  1.9361 -0.0061
 2266TIP3    H228214   0.025   6.135  13.272 -1.2619  0.2252  0.3513
 2267TIP3   OH228215   5.341   2.210   1.621  0.6680 -0.5067 -0.4996
 2267TIP3    H128216   5.355   2.257   1.703  0.2773 -0.9988 -0.1476
 2267TIP3    H228217   5.429   2.192   1.589  0.8579  1.4492 -1.2269
 2268TIP3   OH228218   1.808   5.464  15.728  0.4151  0.3739 -0.6447
 2268TIP3    H128219   1.875   5.414  15.775 -0.8588 -2.3025 -1.4989
 2268TIP3    H228220   1.856   5.533  15.683  2.5705 -1.2089 -0.9175
 2269TIP3   OH228221   4.800   3.218   2.410 -0.2062 -0.2954  0.2460
 2269TIP3    H128222   4.818   3.166   2.331  0.9986 -1.7054  1.3982
 2269TIP3    H228223   4.820   3.308   2.384 -3.5369 -0.0693 -2.1815
 2270TIP3   OH228224   3.966   3.138  11.245 -0.3493 -0.0956  0.2474
 2270TIP3    H128225   4.024   3.133  11.321  0.0046  0.6220  0.0346
 2270TIP3    H228226   3.995   3.216  11.198 -0.4908 -0.5910 -0.6898
 2271TIP3   OH228227   3.554   0.239  10.854  0.3278  0.4914  0.0515
 2271TIP3    H128228   3.542   0.328  10.819 -2.1671  0.1062 -0.2535
 2271TIP3    H228229   3.474   0.223  10.905  1.0310 -1.3535  0.6273
 2272TIP3   OH228230   2.841   4.473   2.390 -0.0889  0.1686 -0.3604
 2272TIP3    H128231   2.924   4.425   2.396  0.1612  0.6095 -0.2571
 2272TIP3    H228232   2.774   4.405   2.394  0.2497 -0.1457  0.1987
 2273TIP3   OH228233   0.482   5.835   1.785  0.0125 -0.5039  0.0548
 2273TIP3    H128234   0.462   5.863   1.874  0.7514 -1.2059  0.4475
 2273TIP3    H228235   0.560   5.781   1.793  0.1955 -0.4260 -1.0461
 2274TIP3   OH228236   2.348   2.204  14.469  0.0439 -0.1171 -0.4684
 2274TIP3    H128237   2.412   2.251  14.523  0.8642 -1.9332  0.2249
 2274TIP3    H228238   2.401   2.148  14.412 -0.9014 -0.3213 -1.1831
 2275TIP3   OH228239   5.843   5.261   3.669  0.3451  0.0461 -0.4905
 2275TIP3    H128240   5.896   5.314   3.728 -0.6878 -1.2761  1.7589
 2275TIP3    H228241   5.862   5.170   3.694  0.7088 -0.6534 -3.0077
 2276TIP3   OH228242   1.069   2.112  17.090  0.3322  0.2201  0.1185
 2276TIP3    H128243   1.109   2.090  17.006  0.9582  1.1355  0.1684
 2276TIP3    H228244   0.977   2.086  17.080  0.7278 -1.0804 -0.3004
 2277TIP3   OH228245   2.538   3.970   6.197 -1.0217 -0.2249 -0.9868
 2277TIP3    H128246   2.530   3.965   6.102 -2.5733 -0.3821 -0.8675
 2277TIP3    H228247   2.557   3.881   6.224  1.3584  0.1281 -1.2620
 2278TIP3   OH228248   0.494   0.509   4.756  0.5261  0.0618  0.4882
 2278TIP3    H128249   0.452   0.470   4.833 -0.8547  0.7022  0.0916
 2278TIP3    H228250   0.513   0.434   4.699 -1.0210 -0.1818  0.2518
 2279TIP3   OH228251   2.313   6.506  15.790  0.3091  0.5110  0.7296
 2279TIP3    H128252   2.388   6.473  15.741 -1.0554 -1.4463 -0.1946
 2279TIP3    H228253   2.251   6.534  15.722  0.1987  2.1751  1.4731
 2280TIP3   OH228254   3.336   0.228   3.172  0.4356 -0.0785  0.2825
 2280TIP3    H128255   3.360   0.261   3.085  0.6908 -0.8689  0.0490
 2280TIP3    H228256   3.404   0.262   3.230 -0.4400  1.5483  0.4220
 2281TIP3   OH228257   5.425   1.564   5.622  0.0094 -0.0979 -0.6384
 2281TIP3    H128258   5.475   1.607   5.691  1.5904 -1.5813 -0.7864
 2281TIP3    H228259   5.334   1.577   5.646  0.5213 -0.9274  1.9665
 2282TIP3   OH228260   6.068   3.864   3.790 -0.0290  0.4593 -0.7997
 2282TIP3    H128261   6.089   3.843   3.881  0.3057 -0.2481 -1.0320
 2282TIP3    H228262   6.065   3.779   3.746 -2.5252  0.5799 -0.9800
 2283TIP3   OH228263   5.843   2.487   2.394 -0.3498 -0.1485  0.2994
 2283TIP3    H128264   5.908   2.554   2.373  0.8430 -0.8014  1.7740
 2283TIP3    H228265   5.775   2.535   2.443  1.3293 -0.2221  2.8885
 2284TIP3   OH228266   6.726   2.554  13.158  0.0895 -0.9524  0.3961
 2284TIP3    H128267   6.671   2.487  13.117 -0.0301  0.2927 -1.6197
 2284TIP3    H228268   6.692   2.637  13.124  1.0830  0.0671  1.7695
 2285TIP3   OH228269   3.767   5.429  12.313  0.5577 -0.6410 -0.5603
 2285TIP3    H128270   3.851   5.403  12.276  0.5341  0.2350 -1.2582
 2285TIP3    H228271   3.756   5.520  12.286 -0.7176 -0.8096 -0.6750
 2286TIP3   OH228272   2.072   2.768  16.303  0.4913 -0.1388 -0.3669
 2286TIP3    H128273   2.162   2.744  16.324  1.7633  1.8127 -2.9802
 2286TIP3    H228274   2.078   2.813  16.219 -2.9615  0.0928 -0.6531
 2287TIP3   OH228275   4.422   1.926   0.332 -0.3130 -0.0643 -0.1821
 2287TIP3    H128276   4.398   1.976   0.410 -2.6062 -2.2862  0.6843
 2287TIP3    H228277   4.377   1.970   0.260 -0.5431  0.3540  0.2146
 2288TIP3   OH228278   5.032   3.306   5.155  0.1603  0.0220  0.0299
 2288TIP3    H128279   4.973   3.264   5.217  0.9039 -0.3982  0.4570
 2288TIP3    H228280   4.975   3.335   5.084 -0.4829 -0.8877  0.1633
 2289TIP3   OH228281   6.065   1.780  11.219  0.5403  0.2459 -0.5932
 2289TIP3    H128282   6.148   1.813  11.185  1.6034 -1.6342  0.0453
 2289TIP3    H228283   6.076   1.685  11.222 -0.7013  0.0961  1.8407
 2290TIP3   OH228284   2.187   0.224  13.693 -0.0118 -0.2659  0.6537
 2290TIP3    H128285   2.185   0.214  13.788 -2.4913 -1.1088  0.5847
 2290TIP3    H228286   2.152   0.140  13.660  2.5669 -0.7586 -1.1072
 2291TIP3   OH228287   4.592   5.527  16.538  0.1067 -0.0697  0.0991
 2291TIP3    H128288   4.650   5.454  16.515  1.5893  0.8836  0.6765
 2291TIP3    H228289   4.580   5.518  16.632 -1.3742 -0.7080 -0.1206
 2292TIP3   OH228290   5.075   0.047  12.407  0.2371  0.4617  0.1707
 2292TIP3    H128291   5.120   0.028  12.325 -0.0243 -1.6853  0.4791
 2292TIP3    H228292   5.008   0.112  12.383  1.1884  1.0693 -0.9623
 2293TIP3   OH228293   1.714   2.434   3.656 -0.5951  0.2567  0.1672
 2293TIP3    H128294   1.656   2.478   3.719 -0.5049 -1.7350  1.7165
 2293TIP3    H228295   1.656   2.379   3.604 -0.7181  2.1251 -1.8390
 2294TIP3   OH228296   2.090   3.048  16.826 -0.3503  0.3617  0.1429
 2294TIP3    H128297   2.131   2.964  16.808  1.2912  1.4135 -1.3887
 2294TIP3    H228298   2.163   3.111  16.826 -1.6392  1.9235  0.2729
 2295TIP3   OH228299   1.564   2.380  11.650 -0.9167 -0.4142 -0.3850
 2295TIP3    H128300   1.602   2.412  11.568 -2.6449 -0.2865 -1.1743
 2295TIP3    H228301   1.640   2.368  11.708  0.0637  2.7268 -0.8274
 2296TIP3   OH228302   4.597   6.188   2.139  0.2320 -0.0070  0.1741
 2296TIP3    H128303   4.639   6.269   2.166 -1.9391  1.2267  0.0914
 2296TIP3    H228304   4.619   6.179   2.046 -0.3609  1.0618 -0.0808
 2297TIP3   OH228305   6.256   2.283  14.275 -0.1212 -0.6739  0.3270
 2297TIP3    H128306   6.341   2.303  14.236 -0.6136 -2.1789 -1.7024
 2297TIP3    H228307   6.256   2.330  14.358  1.4571  1.8634 -0.9906
 2298TIP3   OH228308   1.301   1.618  13.808  0.0732  0.0993  0.0025
 2298TIP3    H128309   1.233   1.629  13.742  1.3001 -0.6148 -1.4355
 2298TIP3    H228310   1.258   1.567  13.878 -1.0202  0.1510 -0.6020
 2299TIP3   OH228311   0.231   5.280   2.217 -0.1631  0.4003  0.2912
 2299TIP3    H128312   0.264   5.255   2.131 -2.1244 -0.4570 -0.2864
 2299TIP3    H228313   0.195   5.368   2.205 -1.6097 -0.2203 -0.1592
 2300TIP3   OH228314   1.866   2.733  11.298  0.0452  0.3933 -0.7216
 2300TIP3    H128315   1.899   2.821  11.283 -0.3173  0.7941  0.6934
 2300TIP3    H228316   1.923   2.696  11.365 -0.9628  0.2836  0.1132
 2301TIP3   OH228317   1.655   3.725   1.623 -0.9303 -0.3869  0.3005
 2301TIP3    H128318   1.731   3.683   1.583 -1.7063  0.0386 -1.7408
 2301TIP3    H228319   1.588   3.656   1.626 -1.9674  0.3885 -2.3814
 2302TIP3   OH228320   2.564   2.107  15.134  0.2128 -0.7963  0.3791
 2302TIP3    H128321   2.521   2.044  15.076 -0.5557 -0.7841  0.9040
 2302TIP3    H228322   2.583   2.182  15.079  2.3620 -1.9582 -0.5835
 2303TIP3   OH228323   3.074   0.316  12.557  0.0750  0.2636 -0.1578
 2303TIP3    H128324   2.986   0.280  12.568  0.0549 -0.1413 -1.5084
 2303TIP3    H228325   3.078   0.345  12.466  1.4942 -0.1431 -0.2564
 2304TIP3   OH228326   5.344   5.407  17.003  0.2833  0.3135 -0.4245
 2304TIP3    H128327   5.350   5.312  17.008  0.9180  0.3915  0.3468
 2304TIP3    H228328   5.348   5.426  16.909  3.3044 -0.2539 -0.5128
 2305TIP3   OH228329   6.270   1.821  12.805 -0.2749  0.1626 -0.2192
 2305TIP3    H128330   6.253   1.802  12.897  0.6509  0.1897 -0.0295
 2305TIP3    H228331   6.366   1.821  12.798 -0.3329 -0.3850 -1.2918
 2306TIP3   OH228332   5.145   0.186  14.416  0.1274 -0.7108  0.1040
 2306TIP3    H128333   5.227   0.235  14.423  0.2332 -0.6715 -1.1945
 2306TIP3    H228334   5.125   0.161  14.506  1.1861 -0.1076  0.5313
 2307TIP3   OH228335   4.161   3.122  11.917 -0.0326 -0.4653 -0.0975
 2307TIP3    H128336   4.231   3.095  11.858  0.3171  0.3948 -0.0982
 2307TIP3    H228337   4.161   3.057  11.987  0.6252 -0.5908 -0.2130
 2308TIP3   OH228338   4.766   2.121  14.757 -0.4203 -0.0938 -0.0027
 2308TIP3    H128339   4.672   2.129  14.771 -0.4166 -1.6554  1.2760
 2308TIP3    H228340   4.795   2.059  14.824  1.4844  0.1569 -0.5236
 2309TIP3   OH228341   0.541   0.208  14.931  0.0142 -0.0445  0.1070
 2309TIP3    H128342   0.551   0.225  15.025 -0.3314  0.3290  0.0797
 2309TIP3    H228343   0.459   0.161  14.924  0.8717 -1.6051  0.1597
 2310TIP3   OH228344   4.052   6.124   1.185  0.0631 -0.7582  0.2660
 2310TIP3    H128345   4.063   6.033   1.212  2.3421 -0.8672 -0.7598
 2310TIP3    H228346   4.110   6.174   1.243 -0.6589 -0.0462  0.3877
 2311TIP3   OH228347   5.374   3.761   2.486  0.0665  0.2003 -0.1270
 2311TIP3    H128348   5.292   3.776   2.534 -0.2645  1.1314 -0.9468
 2311TIP3    H228349   5.361   3.805   2.402  0.8594 -0.9022 -0.8576
 2312TIP3   OH228350   0.847   1.967   4.242  0.1863  0.4745  0.1384
 2312TIP3    H128351   0.837   1.872   4.250 -0.8472  0.4319 -1.2015
 2312TIP3    H228352   0.884   1.980   4.154  1.7096  1.2609  0.8576
 2313TIP3   OH228353   4.374   0.212   2.510  0.0543  0.7235 -0.5806
 2313TIP3    H128354   4.346   0.120   2.513  0.0810  0.6873 -1.2843
 2313TIP3    H228355   4.446   0.213   2.448  2.4604  0.6145  1.9910
 2314TIP3   OH228356   2.784   2.202  14.121  0.4844  0.1521 -0.3475
 2314TIP3    H128357   2.852   2.135  14.117  1.6774  1.2297  0.9317
 2314TIP3    H228358   2.812   2.268  14.058  0.5311  0.5036  0.0371
 2315TIP3   OH228359   0.989   4.854   2.799 -0.1366  0.3569  0.0679
 2315TIP3    H128360   0.942   4.773   2.818  0.8470 -0.1530  0.3994
 2315TIP3    H228361   0.977   4.868   2.705  0.6444 -0.7955 -0.2088
 2316TIP3   OH228362   3.960   5.990   4.366 -0.6306  0.2618 -0.2172
 2316TIP3    H128363   4.052   5.969   4.349 -0.8315 -1.4554  0.6047
 2316TIP3    H228364   3.929   6.030   4.284  0.1533 -1.6478 -1.5206
 2317TIP3   OH228365   1.301   6.591  14.823  0.4663 -0.3003 -0.1825
 2317TIP3    H128366   1.394   6.612  14.821  0.2320  0.9174  0.6850
 2317TIP3    H228367   1.257   6.675  14.834 -0.7592 -0.8339 -0.6995
 2318TIP3   OH228368   3.521   1.825  12.945  0.0522  0.4132  0.0721
 2318TIP3    H128369   3.475   1.742  12.943  1.4893 -0.4383  0.8457
 2318TIP3    H228370   3.613   1.802  12.934  0.4047  1.9729 -0.4819
 2319TIP3   OH228371   1.292   0.877   5.764  0.0742  0.6632  0.0640
 2319TIP3    H128372   1.322   0.895   5.853  1.3503 -0.8292 -0.0266
 2319TIP3    H228373   1.321   0.788   5.746 -1.4107  0.4064 -1.3527
 2320TIP3   OH228374   3.472   3.174  11.966  0.5616  0.3407 -0.1638
 2320TIP3    H128375   3.404   3.241  11.963 -0.5264 -0.6970  0.4789
 2320TIP3    H228376   3.516   3.188  12.051  0.4927  0.3791 -0.1344
 2321TIP3   OH228377   0.605   1.679   0.704 -0.2937 -0.4350  0.0649
 2321TIP3    H128378   0.556   1.607   0.663  0.5682 -1.6080  0.9976
 2321TIP3    H228379   0.606   1.748   0.638 -1.6697 -1.0476 -0.6383
 2322TIP3   OH228380   0.234   6.197  14.138 -0.7257 -0.2668 -0.1338
 2322TIP3    H128381   0.261   6.205  14.046 -1.2827  4.7859 -0.1250
 2322TIP3    H228382   0.315   6.176  14.185  0.0160 -0.6490 -1.5363
 2323TIP3   OH228383   0.791   0.350   0.177 -0.0517  0.1233 -0.2456
 2323TIP3    H128384   0.809   0.262   0.209 -1.2075 -0.1182 -0.2336
 2323TIP3    H228385   0.697   0.363   0.192 -0.3610  0.5300 -2.2400
 2324TIP3   OH228386   0.018   1.809   1.965 -0.2479 -0.0023 -0.5210
 2324TIP3    H128387   0.023   1.866   1.888 -0.8334  1.0503  0.2052
 2324TIP3    H228388   0.070   1.854   2.032 -2.2201  0.6358  0.6387
 2325TIP3   OH228389   0.265   0.677  14.058  0.0405  0.2802  0.2155
 2325TIP3    H128390   0.356   0.707  14.060  0.5005 -1.0589  1.8606
 2325TIP3    H228391   0.270   0.585  14.083 -1.4133 -0.9463 -3.3178
 2326TIP3   OH228392   6.679   2.513   0.685 -0.1677  0.0034  0.0580
 2326TIP3    H128393   6.590   2.526   0.652 -0.1130  0.3293  0.0377
 2326TIP3    H228394   6.707   2.429   0.647 -0.1010  0.3794 -0.7408
 2327TIP3   OH228395   3.992   2.221   4.339 -0.0628 -0.1263  0.0420
 2327TIP3    H128396   3.920   2.159   4.341  0.9378 -1.4334 -1.7887
 2327TIP3    H228397   4.039   2.206   4.422  0.5874 -2.4167 -0.6714
 2328TIP3   OH228398   4.765   1.485   0.767 -0.1602 -0.6655 -0.2423
 2328TIP3    H128399   4.839   1.470   0.827  1.1953 -0.0367 -1.6846
 2328TIP3    H228400   4.767   1.410   0.708 -0.6668 -0.6159 -0.3279
 2329TIP3   OH228401   2.579   4.336  16.022  0.2094 -0.5938  0.2403
 2329TIP3    H128402   2.641   4.404  16.049  1.4755 -1.8470  0.6114
 2329TIP3    H228403   2.501   4.354  16.074  1.7424 -1.4880  3.0859
 2330TIP3   OH228404   1.448   6.584  11.686 -0.3796  0.1486 -0.3864
 2330TIP3    H128405   1.515   6.534  11.639 -0.2362 -1.5756  1.5365
 2330TIP3    H228406   1.496   6.634  11.751 -0.8995 -2.5037  2.2771
 2331TIP3   OH228407   5.638   1.702  11.474 -0.5231  0.0878  0.0183
 2331TIP3    H128408   5.587   1.743  11.405  0.9440 -1.8867 -2.4031
 2331TIP3    H228409   5.719   1.752  11.479 -0.7003  0.3376  0.4620
 2332TIP3   OH228410   5.619   0.623   5.234 -0.2009 -0.2430 -0.1940
 2332TIP3    H128411   5.540   0.569   5.244 -2.8558  2.7545 -2.6384
 2332TIP3    H228412   5.634   0.660   5.321 -1.5288 -0.8752  0.3281
 2333TIP3   OH228413   0.315   6.620   3.397 -0.5743 -0.5538 -0.0681
 2333TIP3    H128414   0.400   6.664   3.393 -0.8367  0.2322  2.0061
 2333TIP3    H228415   0.295   6.600   3.306  2.7524 -2.6403 -0.5370
 2334TIP3   OH228416   2.674   4.579  12.198 -0.3569  0.7474  0.2164
 2334TIP3    H128417   2.591   4.618  12.226  0.1947  1.0041  1.5696
 2334TIP3    H228418   2.681   4.498  12.248 -0.7959 -0.4121 -1.5084
 2335TIP3   OH228419   0.699   5.506  15.340 -0.3268  0.0225 -0.1638
 2335TIP3    H128420   0.774   5.527  15.284 -0.7380 -1.5116 -1.3406
 2335TIP3    H228421   0.643   5.584  15.334  1.3552  1.4182  1.1591
 2336TIP3   OH228422   5.366   1.731  15.084  0.1450 -0.2042  0.5879
 2336TIP3    H128423   5.438   1.733  15.146  2.0636  0.7996 -1.5297
 2336TIP3    H228424   5.406   1.708  15.000 -2.4892 -2.5903 -0.1806
 2337TIP3   OH228425   3.216   2.996   1.399  0.2317  0.3632 -0.3982
 2337TIP3    H128426   3.144   2.936   1.421 -0.6021  0.8723 -1.6131
 2337TIP3    H228427   3.288   2.969   1.456 -0.5376 -0.9430  0.0058
 2338TIP3   OH228428   4.176   5.246   5.624  0.2192 -0.0337  0.4336
 2338TIP3    H128429   4.248   5.309   5.631 -0.8175  1.2397  0.1224
 2338TIP3    H228430   4.108   5.294   5.577 -0.6042 -1.4125  0.1882
 2339TIP3   OH228431   4.169   5.453   5.257  0.3325  0.4261 -0.2240
 2339TIP3    H128432   4.239   5.388   5.248  1.8770  1.9974 -0.0872
 2339TIP3    H228433   4.166   5.497   5.172  1.3932  2.1347  0.5658
 2340TIP3   OH228434   1.003   1.043   3.693 -0.0431  0.5720  0.1439
 2340TIP3    H128435   1.002   0.977   3.762 -1.1044  0.0388 -0.3681
 2340TIP3    H228436   0.916   1.082   3.694 -1.4981 -2.0795 -3.3238
 2341TIP3   OH228437   3.853   0.240  11.605  0.2675  0.3102 -0.1012
 2341TIP3    H128438   3.786   0.204  11.547 -0.8020  1.0478  0.6254
 2341TIP3    H228439   3.928   0.258  11.548 -0.7869  1.1390 -1.2924
 2342TIP3   OH228440   5.423   2.181   5.865 -0.2348 -0.3692  0.1299
 2342TIP3    H128441   5.492   2.195   5.800  0.9887  0.2266  1.5036
 2342TIP3    H228442   5.459   2.114   5.924 -0.5118  0.4798  1.2834
 2343TIP3   OH228443   3.604   1.989   5.485  0.4663  0.2535 -0.3853
 2343TIP3    H128444   3.601   2.085   5.485  0.0871  0.2510  0.3656
 2343TIP3    H228445   3.512   1.963   5.478  0.5749 -0.0546 -0.6513
 2344TIP3   OH228446   1.399   0.726  16.206 -0.4683  0.0641 -0.3505
 2344TIP3    H128447   1.380   0.653  16.266 -0.0308  0.0213 -0.2661
 2344TIP3    H228448   1.492   0.743  16.217 -0.6138  0.7946 -0.2055
 2345TIP3   OH228449   3.130   5.587  15.635  0.4520  0.3016  0.3740
 2345TIP3    H128450   3.132   5.533  15.556 -0.9648 -0.2156  0.6477
 2345TIP3    H228451   3.197   5.654  15.621  0.4830 -0.0026 -1.0905
 2346TIP3   OH228452   5.328   5.141   0.198  0.0542 -0.4774  0.2772
 2346TIP3    H128453   5.268   5.140   0.273  0.1983  0.9337  0.4297
 2346TIP3    H228454   5.415   5.127   0.236  0.0238 -0.7279  0.2575
 2347TIP3   OH228455   3.975   4.552  17.001  0.0532  1.1525  0.2250
 2347TIP3    H128456   4.045   4.576  17.062  0.0890  1.7989 -0.0552
 2347TIP3    H228457   4.018   4.551  16.915  0.2323 -0.7529  0.3082
 2348TIP3   OH228458   0.698   5.636  11.767 -0.0253 -0.3104 -0.5432
 2348TIP3    H128459   0.638   5.667  11.835  0.6563  0.0356 -0.0885
 2348TIP3    H228460   0.660   5.553  11.737  0.2313 -1.0534  1.0431
 2349TIP3   OH228461   2.149   0.987  15.785  0.0645 -0.1937 -0.0029
 2349TIP3    H128462   2.055   1.007  15.790  0.2852  1.0526 -0.5090
 2349TIP3    H228463   2.171   0.954  15.872 -0.6954  0.2395  0.3680
 2350TIP3   OH228464   3.476   3.486  17.060 -0.4396  0.1036  0.5090
 2350TIP3    H128465   3.452   3.520  16.973 -0.2853 -2.6365 -0.7102
 2350TIP3    H228466   3.568   3.462  17.051 -0.4038 -0.1298  1.4583
 2351TIP3   OH228467   3.272   2.143  13.499 -0.0275  0.3084  0.1278
 2351TIP3    H128468   3.225   2.069  13.537  2.2923 -3.3654 -3.3288
 2351TIP3    H228469   3.363   2.129  13.524  0.6670  1.1912 -1.7153
 2352TIP3   OH228470   6.535   3.287   5.277  0.3995 -0.1914 -0.0011
 2352TIP3    H128471   6.597   3.304   5.206 -0.3452 -1.2518 -0.9376
 2352TIP3    H228472   6.454   3.260   5.233 -0.5184  0.4310  1.2136
 2353TIP3   OH228473   0.632   4.414  16.354  0.1838 -0.4388  0.1300
 2353TIP3    H128474   0.697   4.361  16.402  0.0917 -0.4885  0.2010
 2353TIP3    H228475   0.681   4.453  16.282  0.2804 -0.5231  0.1502
 2354TIP3   OH228476   6.468   0.976   2.737  0.2306 -0.4127 -0.3417
 2354TIP3    H128477   6.442   0.902   2.792  0.0861 -0.5633 -0.6086
 2354TIP3    H228478   6.553   0.950   2.702  1.1459  0.4294  1.1746
 2355TIP3   OH228479   2.422   0.399   4.377  0.2044 -0.1604  0.2213
 2355TIP3    H128480   2.464   0.405   4.291  0.4359  2.0396  0.4342
 2355TIP3    H228481   2.370   0.479   4.383 -0.8819 -0.9361  1.5960
 2356TIP3   OH228482   5.996   0.753  13.051 -0.7899  0.4632  0.1142
 2356TIP3    H128483   5.939   0.819  13.090  0.4801 -0.6960  4.4978
 2356TIP3    H228484   5.944   0.673  13.050 -0.5586  0.3096  0.2084
 2357TIP3   OH228485   1.615   0.318  10.446  0.0963 -0.0432 -0.9452
 2357TIP3    H128486   1.703   0.354  10.438  0.6896 -0.6705  1.6759
 2357TIP3    H228487   1.577   0.367  10.519 -1.3353 -0.5584 -1.3216
 2358TIP3   OH228488   3.507   2.421  11.407 -0.0666  0.0031  0.2682
 2358TIP3    H128489   3.469   2.497  11.451 -1.5750 -0.3400 -0.3594
 2358TIP3    H228490   3.524   2.451  11.318 -0.7927 -0.4247 -0.0189
 2359TIP3   OH228491   4.717   2.817  13.959  0.4708 -0.0309 -0.5928
 2359TIP3    H128492   4.754   2.848  13.877  0.1111 -0.6705 -1.0118
 2359TIP3    H228493   4.793   2.787  14.010  0.7936  1.2611 -0.2758
 2360TIP3   OH228494   2.541   2.309  14.904 -0.3172  0.0588 -0.3963
 2360TIP3    H128495   2.629   2.277  14.886 -0.8344 -1.1258 -0.9525
 2360TIP3    H228496   2.503   2.326  14.817 -1.1120 -0.8213 -0.2381
 2361TIP3   OH228497   4.433   2.999  16.424 -0.1634  0.1255  0.4596
 2361TIP3    H128498   4.437   2.951  16.506 -0.1359 -2.7482 -1.1086
 2361TIP3    H228499   4.506   3.060  16.428  1.5525 -1.8892  1.4425
 2362TIP3   OH228500   1.900   4.959  11.274  0.1909  0.0573  0.6828
 2362TIP3    H128501   1.869   4.888  11.218  1.9365  0.0462 -0.3396
 2362TIP3    H228502   1.843   5.033  11.254  0.2819 -0.1853 -0.5391
 2363TIP3   OH228503   5.744   5.566  16.573  0.2669  0.1090 -0.5706
 2363TIP3    H128504   5.803   5.638  16.595  0.9495 -0.4551 -0.5010
 2363TIP3    H228505   5.755   5.503  16.645  0.7264 -0.6751 -1.3062
 2364TIP3   OH228506   4.144   6.553  14.173 -0.2727 -0.3109 -0.4780
 2364TIP3    H128507   4.049   6.564  14.179 -0.0823  1.3048 -0.0407
 2364TIP3    H228508   4.180   6.630  14.216  1.2423 -0.5021 -1.3422
 2365TIP3   OH228509   0.036   0.361  12.041 -0.2092 -0.3018 -0.0345
 2365TIP3    H128510  -0.013   0.347  12.122  0.4441  1.1791  0.6529
 2365TIP3    H228511  -0.016   0.317  11.974 -1.2264 -0.7963  1.0336
 2366TIP3   OH228512   2.734   2.014  14.364  0.8317  0.4716 -0.2053
 2366TIP3    H128513   2.665   2.056  14.313  0.2444 -0.6319 -0.3567
 2366TIP3    H228514   2.689   1.974  14.438  1.3696  0.1701 -0.0328
 2367TIP3   OH228515   4.509   3.092  12.523 -0.1227 -0.5790  0.1161
 2367TIP3    H128516   4.507   3.179  12.563 -2.8622 -0.1018 -0.7984
 2367TIP3    H228517   4.529   3.032  12.595  2.4322  0.7904  0.6378
 2368TIP3   OH228518   2.822   4.454  16.337 -0.1209 -0.2597  0.3539
 2368TIP3    H128519   2.909   4.432  16.372  0.4046  0.6856 -0.3151
 2368TIP3    H228520   2.773   4.484  16.413  0.8536  1.3043  0.4118
 2369TIP3   OH228521   2.627   1.811   3.670  0.2170  0.1767 -0.3744
 2369TIP3    H128522   2.714   1.845   3.694  0.7198 -0.8957 -0.6041
 2369TIP3    H228523   2.603   1.753   3.743  0.0670 -0.1607 -0.6858
 2370TIP3   OH228524   3.814   3.611   2.526  0.2142 -0.4773 -0.0322
 2370TIP3    H128525   3.775   3.685   2.478 -1.6286 -1.6966 -0.5619
 2370TIP3    H228526   3.859   3.650   2.600 -0.8305  1.1749 -0.2248
 2371TIP3   OH228527   2.133   5.248  14.028  0.5478 -0.1435  0.0445
 2371TIP3    H128528   2.217   5.293  14.021  0.0958  1.0737  1.6337
 2371TIP3    H228529   2.071   5.317  14.054 -1.3590 -0.6169 -2.7489
 2372TIP3   OH228530   4.280   6.600   3.620  0.2231 -0.0072  0.7533
 2372TIP3    H128531   4.219   6.632   3.553 -0.2620 -1.8554  0.2654
 2372TIP3    H228532   4.225   6.558   3.685  0.7568  1.1322  2.0059
 2373TIP3   OH228533   4.844   5.005   3.010 -0.0246 -0.2874  0.2296
 2373TIP3    H128534   4.771   5.063   3.034  0.1669 -0.5012  1.4134
 2373TIP3    H228535   4.882   5.045   2.933 -3.0321 -1.5958 -2.1448
 2374TIP3   OH228536   6.340   0.455   0.128  0.0874  0.1708  0.1003
 2374TIP3    H128537   6.251   0.471   0.158 -0.6398 -0.9882 -1.3102
 2374TIP3    H228538   6.365   0.535   0.081 -1.0458 -0.2848 -1.3405
 2375TIP3   OH228539   5.298   6.157  14.051 -1.0214 -0.1071 -0.0036
 2375TIP3    H128540   5.273   6.107  13.973  1.0011 -2.4722  0.7326
 2375TIP3    H228541   5.312   6.091  14.119 -1.7225  1.7913  2.1430
 2376TIP3   OH228542   2.517   6.341   4.348 -0.6857  0.0424  0.1033
 2376TIP3    H128543   2.458   6.292   4.406 -1.4224  0.2525 -0.4434
 2376TIP3    H228544   2.459   6.402   4.301  0.0968  0.8541  0.1696
 2377TIP3   OH228545   3.144   4.874  11.553 -0.1601 -0.1140  0.1982
 2377TIP3    H128546   3.238   4.886  11.567  0.1071 -1.1426 -0.6224
 2377TIP3    H228547   3.103   4.933  11.616  1.0301  0.0829  0.8149
 2378TIP3   OH228548   0.459   4.285  11.390  0.1103  0.0215 -0.0846
 2378TIP3    H128549   0.519   4.229  11.341  0.7997  0.9998 -0.3854
 2378TIP3    H228550   0.388   4.226  11.416  1.3723 -1.2436  0.6289
 2379TIP3   OH228551   6.051   4.182  13.427 -0.1845  0.1442 -0.0539
 2379TIP3    H128552   6.099   4.259  13.396 -0.4826  0.4613  0.2678
 2379TIP3    H228553   6.119   4.115  13.439  0.3674  0.9562  1.5740
 2380TIP3   OH228554   5.207   1.940  14.792 -0.6299 -0.0659  0.0621
 2380TIP3    H128555   5.154   1.983  14.725 -0.8746 -1.1422 -0.4516
 2380TIP3    H228556   5.234   1.857  14.752  1.6276  0.5201  0.2192
 2381TIP3   OH228557   4.031   2.340  11.701 -0.1215 -0.2847 -0.2815
 2381TIP3    H128558   4.007   2.423  11.661  0.7959  0.1095 -0.0513
 2381TIP3    H228559   4.094   2.301  11.641  0.3829 -0.2299  0.1986
 2382TIP3   OH228560   5.304   3.815   0.852 -0.1158  0.1628 -0.3368
 2382TIP3    H128561   5.232   3.875   0.873 -0.2494  0.2090 -0.9152
 2382TIP3    H228562   5.382   3.859   0.887 -0.1271  0.9827 -1.2989
 2383TIP3   OH228563   0.784   6.341  10.865 -0.0452 -0.7140  0.4629
 2383TIP3    H128564   0.739   6.324  10.782  0.1258  0.5084  0.0989
 2383TIP3    H228565   0.832   6.422  10.850  0.6366 -0.9031  1.5112
 2384TIP3   OH228566   2.829   2.649  12.850  0.4379 -0.2962 -0.5100
 2384TIP3    H128567   2.890   2.667  12.921  1.7263 -0.7101 -1.4807
 2384TIP3    H228568   2.758   2.599  12.891  0.5646  0.4734  0.6894
 2385TIP3   OH228569   4.052   1.534  14.646  0.1204 -0.1375  0.0160
 2385TIP3    H128570   4.011   1.556  14.562  2.2606 -0.4602 -1.1888
 2385TIP3    H228571   4.032   1.608  14.703 -2.2053 -0.3590 -0.4136
 2386TIP3   OH228572   6.245   3.498  11.854  0.2424  0.4269 -0.1289
 2386TIP3    H128573   6.280   3.544  11.930  0.4633 -1.1557  0.7693
 2386TIP3    H228574   6.321   3.455  11.815 -0.0921  0.1357 -0.4652
 2387TIP3   OH228575   5.541   2.515  13.660  0.1030  0.4855 -0.1507
 2387TIP3    H128576   5.571   2.572  13.731  3.5826 -0.8307 -0.4160
 2387TIP3    H228577   5.490   2.447  13.704  0.3367  0.9093  0.7970
 2388TIP3   OH228578   2.207   2.549  11.659 -0.1055 -0.8302 -0.0784
 2388TIP3    H128579   2.282   2.505  11.699  1.1939  0.5490 -0.8550
 2388TIP3    H228580   2.132   2.525  11.714  0.3268 -4.4692 -0.8359
 2389TIP3   OH228581   6.702   5.789  12.278 -0.4138  0.3661  0.1280
 2389TIP3    H128582   6.620   5.741  12.265 -0.3711  0.2022  0.4326
 2389TIP3    H228583   6.683   5.877  12.248 -0.9081  0.4988  0.7950
 2390TIP3   OH228584   3.577   4.068  14.183  0.5832  0.6776  0.1890
 2390TIP3    H128585   3.571   4.154  14.141  1.3698  1.2848  1.2415
 2390TIP3    H228586   3.671   4.054  14.194  0.4102  0.4799  1.5743
 2391TIP3   OH228587   3.562   2.565   0.185 -0.2589 -0.1780  0.0713
 2391TIP3    H128588   3.573   2.598   0.274  0.2157 -1.9132  0.6955
 2391TIP3    H228589   3.595   2.635   0.129  1.6793  0.0276  1.3699
 2392TIP3   OH228590   0.710   0.243  12.544 -0.2576 -0.3532  0.5570
 2392TIP3    H128591   0.633   0.297  12.563 -1.3612 -1.0615 -1.5600
 2392TIP3    H228592   0.680   0.153  12.556  0.8254 -0.6049  1.5661
 2393TIP3   OH228593   6.026   3.743  12.843 -0.2658 -0.2764 -0.6223
 2393TIP3    H128594   6.077   3.822  12.826  0.1998 -0.2371  0.8538
 2393TIP3    H228595   6.055   3.681  12.776 -1.4189  1.1028 -2.5055
 2394TIP3   OH228596   1.990   2.796  12.389 -0.3129  0.2790 -0.1749
 2394TIP3    H128597   1.928   2.849  12.338 -1.2635 -1.9981 -1.5312
 2394TIP3    H228598   2.075   2.832  12.366 -0.9934  2.8162  0.9320
 2395TIP3   OH228599   0.011   5.278   3.352  0.7737  0.6453  0.2515
 2395TIP3    H128600   0.019   5.195   3.306  0.8924  0.6152  0.3271
 2395TIP3    H228601   0.050   5.342   3.292 -1.6200  1.0676 -0.9682
 2396TIP3   OH228602   3.641   0.978   5.208 -0.6738 -0.5403 -0.6180
 2396TIP3    H128603   3.714   0.922   5.182 -0.5774 -0.8645  0.2993
 2396TIP3    H228604   3.632   0.963   5.302  0.1577  1.9328 -0.0807
 2397TIP3   OH228605   0.439   5.982   5.372  0.5191  0.7997  0.6300
 2397TIP3    H128606   0.363   6.029   5.406  0.4890  1.9176 -0.9136
 2397TIP3    H228607   0.406   5.893   5.356 -0.2577  1.0718  0.6658
 2398TIP3   OH228608   3.110   4.034  13.109 -0.0548  0.4295  0.4185
 2398TIP3    H128609   3.070   4.111  13.149  0.5583  1.0556 -0.1481
 2398TIP3    H228610   3.042   3.997  13.053 -0.1873  0.8584  0.2973
 2399TIP3   OH228611   0.582   2.548  16.974 -0.5263  0.0078  0.4591
 2399TIP3    H128612   0.570   2.569  17.067 -0.4742 -0.4956  0.5844
 2399TIP3    H228613   0.611   2.457  16.975  2.5924  0.8680  0.1592
 2400TIP3   OH228614   1.140   5.785   1.778 -0.2292  0.4639 -0.1387
 2400TIP3    H128615   1.085   5.731   1.723  0.0291  3.2455 -3.4440
 2400TIP3    H228616   1.078   5.832   1.835 -0.8800  0.3477 -0.7404
 2401TIP3   OH228617   2.429   1.202  13.430  0.0333 -0.2011  0.2733
 2401TIP3    H128618   2.451   1.167  13.516  2.1545 -0.9558 -0.5064
 2401TIP3    H228619   2.340   1.172  13.414 -0.0219 -0.9316  1.7669
 2402TIP3   OH228620   0.279   0.380  15.397  0.0263 -0.1697  0.1965
 2402TIP3    H128621   0.264   0.334  15.314 -0.3330 -0.6609  0.5251
 2402TIP3    H228622   0.343   0.326  15.444  0.2234  0.1022  0.2431
 2403TIP3   OH228623   5.237   3.438  15.681  0.0929 -0.3617  0.3773
 2403TIP3    H128624   5.219   3.462  15.772  0.1828 -1.7296  0.7867
 2403TIP3    H228625   5.295   3.506  15.649  0.1346  0.0921  1.3843
 2404TIP3   OH228626   0.465   0.301   4.523  0.4524  0.1369 -0.1465
 2404TIP3    H128627   0.509   0.220   4.548  0.0901 -0.5057 -1.4899
 2404TIP3    H228628   0.518   0.337   4.452  0.5029  0.9931  0.3070
 2405TIP3   OH228629   3.010   3.224  16.514 -0.7814  0.2540  0.0306
 2405TIP3    H128630   3.089   3.219  16.568  0.5293  2.7858 -1.4859
 2405TIP3    H228631   3.011   3.143  16.463  0.8694  0.2634 -0.0056
 2406TIP3   OH228632   2.137   2.529   1.632  0.3001 -0.2965  0.6808
 2406TIP3    H128633   2.087   2.598   1.589  0.4913  0.8995  2.2995
 2406TIP3    H228634   2.225   2.538   1.597  0.0299 -0.6093 -0.1029
 2407TIP3   OH228635   3.416   2.254   0.434  0.5244  0.1249 -0.1922
 2407TIP3    H128636   3.461   2.338   0.445  1.5710 -0.6312  1.6916
 2407TIP3    H228637   3.478   2.199   0.387 -1.0243  1.0007 -3.5270
 2408TIP3   OH228638   1.014   5.548  14.159 -0.1074  0.2048 -0.7973
 2408TIP3    H128639   0.939   5.576  14.211  1.1015  1.8662  0.1171
 2408TIP3    H228640   1.038   5.463  14.197  0.1954  0.9651  0.8173
 2409TIP3   OH228641   2.047   3.984   2.392 -0.1668 -0.0667  0.1503
 2409TIP3    H128642   2.033   3.989   2.298 -1.6455  0.7019  0.3787
 2409TIP3    H228643   1.962   3.956   2.427 -0.7589  3.0161  1.5136
 2410TIP3   OH228644   2.263   6.710   6.524 -0.0704 -0.4039  0.4423
 2410TIP3    H128645   2.327   6.777   6.549 -2.0156  1.1617  1.5544
 2410TIP3    H228646   2.302   6.627   6.552  1.7506  0.4121  0.4277
 2411TIP3   OH228647   4.283   0.536  16.460  0.0734 -0.5525 -0.7965
 2411TIP3    H128648   4.324   0.517  16.544 -1.1092  0.3004  0.0091
 2411TIP3    H228649   4.194   0.563  16.482  0.3623  1.7614 -2.1514
 2412TIP3   OH228650   0.717   0.700  11.099  0.2385  0.0414 -0.0175
 2412TIP3    H128651   0.726   0.697  11.194  0.1931  0.4080  0.0027
 2412TIP3    H228652   0.768   0.626  11.067  0.1654 -0.1460  0.2989
 2413TIP3   OH228653   3.312   6.549  12.241 -0.3530 -0.2821 -0.1648
 2413TIP3    H128654   3.230   6.594  12.222 -2.3728 -3.3619  0.3971
 2413TIP3    H228655   3.302   6.464  12.196  2.6960 -0.6527 -0.3208
 2414TIP3   OH228656   5.687   2.689   2.879 -0.1911 -0.0671 -0.2882
 2414TIP3    H128657   5.776   2.656   2.873 -0.0067  0.4484 -0.4313
 2414TIP3    H228658   5.693   2.781   2.853 -0.8632 -0.1933 -0.9457
 2415TIP3   OH228659   0.858   3.009  14.913  0.0492 -0.0824 -0.4072
 2415TIP3    H128660   0.931   2.948  14.907  0.4932  0.1506  1.9568
 2415TIP3    H228661   0.789   2.961  14.957 -0.4685  0.3892 -0.6804
 2416TIP3   OH228662   5.946   4.527  15.873 -0.0620  0.2859  0.3789
 2416TIP3    H128663   5.921   4.619  15.883 -0.6137  0.2578 -0.5989
 2416TIP3    H228664   6.018   4.514  15.935 -0.4388  1.1939  1.0226
 2417TIP3   OH228665   4.070   0.859  13.010  0.1910 -0.3017  0.1087
 2417TIP3    H128666   4.098   0.879  13.099  0.2947  0.4467 -0.0820
 2417TIP3    H228667   3.975   0.852  13.015  0.2370 -0.7178  0.3643
 2418TIP3   OH228668   0.304   6.462  12.134 -0.4980 -0.4594 -0.4370
 2418TIP3    H128669   0.392   6.442  12.164  0.3634  1.9870 -1.1152
 2418TIP3    H228670   0.287   6.399  12.064  0.7910 -0.8271 -0.4336
 2419TIP3   OH228671   5.352   2.180   2.089 -0.0752 -0.1745 -0.9193
 2419TIP3    H128672   5.356   2.085   2.097  0.5196 -0.2133 -1.5984
 2419TIP3    H228673   5.425   2.203   2.031  0.7253  0.8313  0.3991
 2420TIP3   OH228674   4.122   1.678   3.141 -0.1066 -0.0664  0.0474
 2420TIP3    H128675   4.141   1.763   3.100  1.2987 -0.3383  0.0714
 2420TIP3    H228676   4.074   1.700   3.220  2.4742  0.9669  1.4497
 2421TIP3   OH228677   2.924   4.187  12.241 -0.2342 -0.1501  0.1928
 2421TIP3    H128678   2.990   4.255  12.251  0.1911 -0.7905  2.2383
 2421TIP3    H228679   2.963   4.123  12.182  0.9888 -0.4681  1.2959
 2422TIP3   OH228680   2.844   2.846  11.764 -0.1932 -0.0530 -0.0213
 2422TIP3    H128681   2.903   2.834  11.838 -1.2516 -2.0746  0.5851
 2422TIP3    H228682   2.886   2.799  11.692  0.5215  1.3686 -0.5714
 2423TIP3   OH228683   1.701   1.716  10.786 -0.2753 -0.2206  0.1046
 2423TIP3    H128684   1.720   1.745  10.697  1.6916  0.0777  0.5727
 2423TIP3    H228685   1.750   1.634  10.796 -0.5821 -0.3262  0.8735
 2424TIP3   OH228686   5.175   0.152   3.077  0.5219  0.3980 -0.1158
 2424TIP3    H128687   5.093   0.117   3.042  1.2289 -0.0782 -1.3653
 2424TIP3    H228688   5.192   0.230   3.024  1.3618 -0.0572 -0.5293
 2425TIP3   OH228689   4.280   6.251   2.784 -0.1134  0.8035 -0.3821
 2425TIP3    H128690   4.269   6.251   2.689 -2.1948  1.3162 -0.1916
 2425TIP3    H228691   4.277   6.343   2.809 -0.5515  0.6247  0.2521
 2426TIP3   OH228692   5.996   1.570  12.793  0.3867  0.6180 -0.1178
 2426TIP3    H128693   6.066   1.515  12.757 -0.1008 -0.0864 -0.0129
 2426TIP3    H228694   5.920   1.550  12.740  0.3003  1.5306 -0.3574
 2427TIP3   OH228695   4.358   5.747  11.190  0.0830 -0.0609 -0.2904
 2427TIP3    H128696   4.418   5.744  11.116  1.4431  1.6800  0.6783
 2427TIP3    H228697   4.377   5.667  11.239  0.3243 -0.4038 -0.9209
 2428TIP3   OH228698   6.349   6.670  15.158  0.0325 -0.4612 -0.4074
 2428TIP3    H128699   6.340   6.602  15.224  0.2996  0.2912  0.4239
 2428TIP3    H228700   6.273   6.658  15.101 -1.1958 -0.0223  1.0802
 2429TIP3   OH228701   2.229   1.805  13.115 -0.3275  0.2824  0.2906
 2429TIP3    H128702   2.255   1.876  13.173 -0.3697 -0.8385  1.7287
 2429TIP3    H228703   2.139   1.785  13.139  0.1658 -1.2552  0.9763
 2430TIP3   OH228704   6.071   2.015  14.206  0.1167 -0.3996  0.5579
 2430TIP3    H128705   6.152   1.982  14.244  0.3884 -0.2568  0.1030
 2430TIP3    H228706   6.002   1.975  14.260  0.4738 -0.7936  0.7319
 2431TIP3   OH228707   4.483   5.175  14.664  0.0095  0.9851 -0.2337
 2431TIP3    H128708   4.465   5.159  14.571  0.4321  0.7094 -0.2744
 2431TIP3    H228709   4.579   5.178  14.669  0.0034  0.4437  0.2790
 2432TIP3   OH228710   6.196   6.134  13.244  0.6332 -0.1616 -0.1163
 2432TIP3    H128711   6.226   6.193  13.175 -0.8070  1.0311  0.2320
 2432TIP3    H228712   6.276   6.108  13.290  1.3134  1.4269 -0.3476
 2433TIP3   OH228713   2.557   1.491  15.238  0.1000 -0.0890  0.0445
 2433TIP3    H128714   2.468   1.476  15.271  0.8012  0.5563  2.4144
 2433TIP3    H228715   2.599   1.405  15.244  0.2558  0.0414  1.0656
 2434TIP3   OH228716   1.561   5.518   5.364  0.0388 -0.3195 -0.4217
 2434TIP3    H128717   1.532   5.562   5.444  1.4442 -0.0974 -0.0218
 2434TIP3    H228718   1.502   5.551   5.296  0.5153  1.5374  0.0173
 2435TIP3   OH228719   3.359   5.461   2.233 -0.1950  0.1151  0.0517
 2435TIP3    H128720   3.282   5.505   2.195  1.0368  1.7594 -0.6543
 2435TIP3    H228721   3.395   5.410   2.161  0.4527  0.8761 -0.1736
 2436TIP3   OH228722   5.477   4.035   0.977  0.6742  0.2966  0.7540
 2436TIP3    H128723   5.472   4.128   0.998  0.1120  0.3289  0.5022
 2436TIP3    H228724   5.532   3.997   1.045  0.6508  0.7644  1.0335
 2437TIP3   OH228725   4.319   5.581  16.515 -0.5263 -0.0625  0.2733
 2437TIP3    H128726   4.286   5.670  16.509  1.6938  0.7153 -2.5390
 2437TIP3    H228727   4.410   5.591  16.543 -0.3367 -1.4893  0.2384
 2438TIP3   OH228728   5.432   2.270   4.337 -0.4563  0.6708 -0.0836
 2438TIP3    H128729   5.466   2.303   4.254  0.5977  1.3417  0.5878
 2438TIP3    H228730   5.446   2.176   4.333  0.9445  0.8551 -0.1056
 2439TIP3   OH228731   1.252   1.952  12.014  0.6264 -0.1707 -0.1622
 2439TIP3    H128732   1.189   2.019  12.039  0.7588 -0.3782  0.7731
 2439TIP3    H228733   1.331   1.973  12.065  0.4468 -1.4168  0.6698
 2440TIP3   OH228734   3.295   2.831   1.799 -0.2262  0.9920 -0.6613
 2440TIP3    H128735   3.202   2.830   1.775  0.0983  2.2132 -2.1287
 2440TIP3    H228736   3.294   2.847   1.893 -1.5131 -0.7956 -0.3137
 2441TIP3   OH228737   1.334   0.508   3.478 -0.0706  0.1281  0.1975
 2441TIP3    H128738   1.396   0.503   3.551  0.6463 -0.3003 -0.4223
 2441TIP3    H228739   1.367   0.445   3.414  0.1020  1.4760 -1.0938
 2442TIP3   OH228740   0.672   4.169   6.318  0.1203 -0.0510 -0.5363
 2442TIP3    H128741   0.597   4.133   6.365  1.0353 -0.8572  0.3857
 2442TIP3    H228742   0.734   4.192   6.387  0.7589  0.4938 -1.2788
 2443TIP3   OH228743   4.223   1.293   0.824 -0.0889  0.7680  0.0457
 2443TIP3    H128744   4.225   1.204   0.787 -0.2813  1.1754 -0.9703
 2443TIP3    H228745   4.315   1.319   0.829  0.0709  0.0349  1.5834
 2444TIP3   OH228746   1.280   1.585   5.880 -0.0057 -0.6525 -0.2867
 2444TIP3    H128747   1.270   1.513   5.942  3.7517 -0.5996  0.6075
 2444TIP3    H228748   1.282   1.663   5.934 -0.3179 -0.2381 -0.8646
 2445TIP3   OH228749   1.120   2.431  13.450  0.1089 -0.4140 -0.0602
 2445TIP3    H128750   1.143   2.519  13.422  1.8833 -0.6345  0.6183
 2445TIP3    H228751   1.114   2.381  13.369  3.2854 -0.6047 -0.3052
 2446TIP3   OH228752   2.577   6.511   0.292 -0.0492  0.1921  0.4575
 2446TIP3    H128753   2.622   6.451   0.232 -2.9498 -1.6729 -0.0868
 2446TIP3    H228754   2.640   6.526   0.363  1.7034 -1.5156 -0.6311
 2447TIP3   OH228755   5.317   5.703  10.893 -0.9066  0.0425 -0.7961
 2447TIP3    H128756   5.278   5.786  10.864 -0.6092 -0.0251 -1.4119
 2447TIP3    H228757   5.384   5.684  10.826 -1.9250 -1.4121 -1.4515
 2448TIP3   OH228758   1.225   2.860  15.469  0.2456  0.6283  0.3377
 2448TIP3    H128759   1.223   2.840  15.562 -0.5066  0.2864  0.2543
 2448TIP3    H228760   1.161   2.930  15.458  0.4193  0.7502  0.0983
 2449TIP3   OH228761   2.477   1.344   5.877 -0.2959 -0.1436 -0.3360
 2449TIP3    H128762   2.426   1.378   5.950  1.4492  0.8837  0.4637
 2449TIP3    H228763   2.546   1.291   5.918 -0.0989 -0.6679 -1.3126
 2450TIP3   OH228764   4.204   6.269   6.141 -0.3831 -0.2514 -0.3698
 2450TIP3    H128765   4.113   6.298   6.148 -0.4360 -0.5374  0.3086
 2450TIP3    H228766   4.205   6.208   6.067 -0.7665 -0.3092 -0.3272
 2451TIP3   OH228767   6.449   4.074   2.589 -0.2671 -0.0656  0.0506
 2451TIP3    H128768   6.416   4.147   2.642 -3.5444 -0.9526 -0.5472
 2451TIP3    H228769   6.490   4.015   2.653  0.1271  1.0775  0.8950
 2452TIP3   OH228770   2.874   5.754   2.482 -0.5242 -0.2715  0.4708
 2452TIP3    H128771   2.827   5.719   2.406 -3.9919 -0.1468  2.3600
 2452TIP3    H228772   2.847   5.845   2.487  0.1538 -0.1090  1.5195
 2453TIP3   OH228773   5.335   1.462  14.593  0.0899 -0.4048  0.2148
 2453TIP3    H128774   5.287   1.444  14.512  1.7800 -2.5810 -0.3882
 2453TIP3    H228775   5.291   1.407  14.659 -0.8946  0.8978  0.6896
 2454TIP3   OH228776   1.385   1.183   2.470 -0.3023 -0.0541 -0.4154
 2454TIP3    H128777   1.295   1.195   2.500  0.0126 -1.0465  1.0090
 2454TIP3    H228778   1.381   1.110   2.409 -0.2387 -1.2293  0.9442
 2455TIP3   OH228779   4.218   1.144   1.923 -0.1833 -0.0945 -0.2688
 2455TIP3    H128780   4.137   1.195   1.913 -0.7121 -0.8581  0.0209
 2455TIP3    H228781   4.257   1.144   1.836 -0.5238  0.2314 -0.4251
 2456TIP3   OH228782   3.727   3.015   1.951 -0.5462  0.0835 -0.3446
 2456TIP3    H128783   3.718   2.964   2.031 -1.7316 -0.3560 -0.7291
 2456TIP3    H228784   3.776   2.959   1.892  0.6868  0.5669  0.1765
 2457TIP3   OH228785   5.808   0.464   3.621  0.0594  0.1928 -0.4113
 2457TIP3    H128786   5.739   0.439   3.559 -0.4438  0.7623 -0.0894
 2457TIP3    H228787   5.800   0.559   3.629  0.3686  0.1688  0.2333
 2458TIP3   OH228788   0.791   0.267  10.801  0.0392 -0.8156  0.1357
 2458TIP3    H128789   0.813   0.188  10.751  1.0575 -0.7375  0.4417
 2458TIP3    H228790   0.831   0.338  10.752  0.0895 -0.6121  0.4705
 2459TIP3   OH228791   1.986   3.247   1.850  0.0046  0.0049  0.7997
 2459TIP3    H128792   1.930   3.255   1.927 -0.2416 -1.0588  0.7450
 2459TIP3    H228793   2.063   3.200   1.882  0.3139  0.3689  0.5966
 2460TIP3   OH228794   2.773   3.284   1.522 -0.3353 -0.0594 -0.0596
 2460TIP3    H128795   2.859   3.324   1.505 -1.0811  0.8606 -1.9336
 2460TIP3    H228796   2.766   3.214   1.458  0.8247 -3.2718  3.0019
 2461TIP3   OH228797   3.806   0.992   4.326  0.3067 -0.3542 -0.3328
 2461TIP3    H128798   3.773   1.016   4.413  0.0025 -1.0813 -0.2381
 2461TIP3    H228799   3.787   1.068   4.272 -2.6074 -1.1141 -0.5454
 2462TIP3   OH228800   5.074   6.561  15.172 -0.0299  0.5924 -0.1128
 2462TIP3    H128801   5.112   6.558  15.084  1.9037  2.7343  0.5584
 2462TIP3    H228802   4.985   6.594  15.158 -0.4895 -1.0411 -1.3854
 2463TIP3   OH228803   4.215   5.389  12.396 -0.0318  0.5598  0.0670
 2463TIP3    H128804   4.126   5.409  12.367  0.2113  0.8548 -0.4818
 2463TIP3    H228805   4.271   5.428  12.329  0.6232  3.4400  2.0887
 2464TIP3   OH228806   0.417   2.528   4.195 -0.0591 -0.6768  0.3742
 2464TIP3    H128807   0.490   2.550   4.254  0.9700  1.0543 -1.4299
 2464TIP3    H228808   0.429   2.435   4.177  1.1491 -0.6506  0.9077
 2465TIP3   OH228809   4.360   4.985  15.299  1.0071  0.1242  0.1284
 2465TIP3    H128810   4.439   4.983  15.244  0.2081  0.1993 -1.0728
 2465TIP3    H228811   4.290   4.956  15.240  0.2008 -0.3560  1.2909
 2466TIP3   OH228812   5.538   3.366   2.999  0.0429 -0.0519 -0.9296
 2466TIP3    H128813   5.586   3.284   3.005  0.7311  0.4538  1.0501
 2466TIP3    H228814   5.589   3.429   3.050  1.1470  2.4722 -4.6854
 2467TIP3   OH228815   3.792   4.436  14.301 -0.1528  0.4033 -0.0535
 2467TIP3    H128816   3.846   4.364  14.269  1.4261  0.4316  2.3074
 2467TIP3    H228817   3.708   4.395  14.323 -0.8533  0.1678 -2.7510
 2468TIP3   OH228818   1.212   4.292  15.104  0.3695  0.4522 -0.0872
 2468TIP3    H128819   1.163   4.226  15.055 -2.2394  2.0379  0.1795
 2468TIP3    H228820   1.230   4.251  15.189  2.7209 -1.4036 -1.3581
 2469TIP3   OH228821   2.412   3.215   4.947  0.0445 -0.2372 -0.1315
 2469TIP3    H128822   2.432   3.274   5.020 -0.9202  0.5798 -0.5093
 2469TIP3    H228823   2.363   3.269   4.886 -4.2806 -2.2747  1.1953
 2470TIP3   OH228824   0.688   3.629   2.508 -0.5467 -0.1710  0.0791
 2470TIP3    H128825   0.611   3.639   2.452 -0.2031 -0.4844 -0.4601
 2470TIP3    H228826   0.706   3.535   2.508 -1.8415 -0.4864  2.5019
 2471TIP3   OH228827   2.413   2.859  16.922 -0.3262 -0.4926  0.7212
 2471TIP3    H128828   2.444   2.770  16.936 -0.5570 -0.7369 -0.2518
 2471TIP3    H228829   2.339   2.850  16.862 -0.8634  0.2838  1.2440
 2472TIP3   OH228830   4.273   1.825  13.393  0.1781 -0.3371  0.0719
 2472TIP3    H128831   4.355   1.844  13.438  0.4184  0.9170 -0.8302
 2472TIP3    H228832   4.217   1.901  13.411 -0.6993 -1.0581  0.4626
 2473TIP3   OH228833   1.117   3.805  14.590  0.2657 -0.1193 -0.1604
 2473TIP3    H128834   1.094   3.734  14.649 -2.6382 -2.0974 -3.2594
 2473TIP3    H228835   1.059   3.877  14.615  1.0077  0.0955  1.0243
 2474TIP3   OH228836   5.321   0.011  14.769 -0.2663 -0.3720  0.4061
 2474TIP3    H128837   5.349  -0.023  14.684 -1.4486 -0.6524  0.1091
 2474TIP3    H228838   5.391   0.071  14.795  1.1180 -1.8314  0.2062
 2475TIP3   OH228839   3.331   3.680   5.240 -0.4524  0.2521 -0.2822
 2475TIP3    H128840   3.420   3.687   5.272 -0.7330 -0.5032  0.7171
 2475TIP3    H228841   3.300   3.770   5.234  0.0881  0.4727  0.2095
 2476TIP3   OH228842   6.444   4.301   3.242 -0.1695  0.7681  0.2616
 2476TIP3    H128843   6.442   4.251   3.160 -0.8223  1.5473 -0.2071
 2476TIP3    H228844   6.384   4.374   3.227  2.0702  2.7480  0.2505
 2477TIP3   OH228845   4.839   5.650  10.189  0.2947 -0.3832 -0.1785
 2477TIP3    H128846   4.751   5.656  10.152  0.2722  0.3197 -0.0160
 2477TIP3    H228847   4.848   5.729  10.242  1.1668 -0.2549 -0.5067
 2478TIP3   OH228848   2.354   4.661  14.243  0.7632 -0.2171  0.4767
 2478TIP3    H128849   2.319   4.572  14.244 -2.9890  1.0837  1.1817
 2478TIP3    H228850   2.408   4.665  14.164 -0.6056 -2.5780 -0.6719
 2479TIP3   OH228851   5.394   3.950   2.291 -0.5804 -0.3782 -0.0286
 2479TIP3    H128852   5.381   4.040   2.322 -0.6953 -1.0558  2.0466
 2479TIP3    H228853   5.353   3.948   2.205 -1.6889  1.2281  0.4216
 2480TIP3   OH228854   1.598   5.496  13.600  0.3170 -0.0737 -0.3894
 2480TIP3    H128855   1.589   5.548  13.679  2.0606  1.4031 -1.0896
 2480TIP3    H228856   1.642   5.416  13.629 -0.4046 -0.2242  0.3410
 2481TIP3   OH228857   6.190   0.580   4.650 -0.9232 -0.1065 -0.0007
 2481TIP3    H128858   6.153   0.580   4.738 -1.6923 -1.4326 -0.2903
 2481TIP3    H228859   6.284   0.590   4.662 -0.9691 -0.7949  1.0140
 2482TIP3   OH228860   1.419   2.016  16.103 -0.1275 -0.2595  0.3247
 2482TIP3    H128861   1.433   1.928  16.067 -0.3692 -0.4716  0.7396
 2482TIP3    H228862   1.325   2.019  16.123 -0.5898  0.8799 -1.7191
 2483TIP3   OH228863   0.208   3.304   6.258 -0.1526  0.0351 -0.4384
 2483TIP3    H128864   0.148   3.374   6.230 -1.3334 -0.6573  0.2468
 2483TIP3    H228865   0.295   3.343   6.253 -0.6902  1.2010 -1.1231
 2484TIP3   OH228866   2.315   3.373  16.169 -0.1339  0.2552 -0.1904
 2484TIP3    H128867   2.370   3.427  16.112  1.2276 -0.7755  0.0891
 2484TIP3    H228868   2.338   3.401  16.258  0.0699 -0.2941 -0.0667
 2485TIP3   OH228869   1.394   5.954   3.568  0.2734 -0.6586 -0.8176
 2485TIP3    H128870   1.313   5.907   3.551 -1.1116  1.4699 -0.4525
 2485TIP3    H228871   1.422   5.922   3.654  0.1419 -1.7999 -1.1813
 2486TIP3   OH228872   4.431   4.217   5.312 -0.2895 -0.0231 -0.4788
 2486TIP3    H128873   4.355   4.273   5.299 -1.1095 -0.7716  0.9156
 2486TIP3    H228874   4.503   4.265   5.271 -0.7782  2.4635  1.3641
 2487TIP3   OH228875   5.799   1.730   2.368  0.1920 -0.4183 -0.5347
 2487TIP3    H128876   5.711   1.713   2.401 -0.4481 -0.1817 -2.0081
 2487TIP3    H228877   5.811   1.825   2.380  0.7425 -0.6463  0.7795
 2488TIP3   OH228878   3.909   5.559   3.985  0.2690  0.3477 -0.4560
 2488TIP3    H128879   3.826   5.516   3.964  0.4697 -0.3660  0.1627
 2488TIP3    H228880   3.930   5.610   3.907 -1.6540  2.0212  0.0295
 2489TIP3   OH228881   2.954   1.306   3.319  0.1186 -0.3682  0.2137
 2489TIP3    H128882   2.897   1.231   3.340  1.0035 -1.2041 -0.2895
 2489TIP3    H228883   3.042   1.270   3.321  0.4608  0.2357 -1.8262
 2490TIP3   OH228884   4.013   3.650  14.967  0.2258  0.5099  0.2696
 2490TIP3    H128885   4.001   3.568  15.015  1.0321  1.1038  1.5571
 2490TIP3    H228886   3.929   3.695  14.976 -0.2855 -0.2417 -0.6156
 2491TIP3   OH228887   5.150   6.192  16.191 -0.0873 -0.5273  0.4551
 2491TIP3    H128888   5.244   6.204  16.196  0.0457 -1.4304  0.2856
 2491TIP3    H228889   5.127   6.145  16.271 -0.3582 -0.5495  0.3681
 2492TIP3   OH228890   0.646   2.471   2.228 -0.1015  0.1004  0.5948
 2492TIP3    H128891   0.685   2.385   2.245 -0.1864 -0.1842 -0.5548
 2492TIP3    H228892   0.570   2.475   2.285 -0.2655 -0.7138  0.4437
 2493TIP3   OH228893   1.095   4.197  13.347 -0.1238  0.6196 -0.2846
 2493TIP3    H128894   1.101   4.292  13.336 -1.3805  0.8257  0.6393
 2493TIP3    H228895   1.143   4.179  13.428  1.1644  0.2786 -1.0858
 2494TIP3   OH228896   3.271   0.777   2.924  0.2868 -0.0313  0.2143
 2494TIP3    H128897   3.352   0.751   2.880 -0.4712 -0.8298 -0.7457
 2494TIP3    H228898   3.251   0.864   2.888  0.7147  0.1763  0.4675
 2495TIP3   OH228899   0.229   4.926  17.069  0.3203  0.7095  0.1348
 2495TIP3    H128900   0.294   4.915  17.138  0.8067  0.1120 -0.4033
 2495TIP3    H228901   0.278   4.911  16.988 -0.7048 -0.9187 -0.2406
 2496TIP3   OH228902   4.577   3.347   0.845 -0.1342 -0.1706  0.3367
 2496TIP3    H128903   4.547   3.402   0.772  2.2838  0.8264  0.0285
 2496TIP3    H228904   4.647   3.294   0.808 -1.6148 -2.7155  0.9388
 2497TIP3   OH228905   2.559   5.276  11.274  0.2181  0.1005 -0.5599
 2497TIP3    H128906   2.566   5.263  11.368  0.7698 -0.5798 -0.6795
 2497TIP3    H228907   2.521   5.363  11.264 -0.5282 -0.1178  0.2910
 2498TIP3   OH228908   4.603   4.565  14.855 -0.0022 -0.3142 -0.7662
 2498TIP3    H128909   4.695   4.546  14.871 -0.0585  0.4180  0.5840
 2498TIP3    H228910   4.555   4.497  14.902 -0.1517  1.1101  1.2782
 2499TIP3   OH228911   3.327   5.045  16.998  0.2626 -0.4163 -0.2766
 2499TIP3    H128912   3.376   5.092  17.066 -0.5956  0.1668 -0.0575
 2499TIP3    H228913   3.336   5.098  16.920 -2.7285  1.5049  0.5269
 2500TIP3   OH228914   2.407   2.934   4.078 -0.8440  0.0926  0.0708
 2500TIP3    H128915   2.376   2.940   3.988 -1.4235  1.8227  0.3332
 2500TIP3    H228916   2.499   2.910   4.071 -0.9817 -0.1845 -0.9591
 2501TIP3   OH228917   4.546   6.412   0.321  0.1390 -0.0786  0.0875
 2501TIP3    H128918   4.506   6.477   0.378 -0.0108 -0.2060  0.1256
 2501TIP3    H228919   4.637   6.442   0.311  0.3071 -0.3284  0.7981
 2502TIP3   OH228920   1.704   4.994   6.142  0.2341  0.3869 -0.4130
 2502TIP3    H128921   1.638   5.063   6.144  1.2966  1.4280  1.5381
 2502TIP3    H228922   1.700   4.954   6.229  3.5668  1.9846  0.6652
 2503TIP3   OH228923   3.230   3.337  11.985  0.2559 -0.3721  0.6675
 2503TIP3    H128924   3.202   3.423  12.017 -0.3326 -0.6612  0.9471
 2503TIP3    H228925   3.148   3.293  11.961  0.6804  0.1639 -2.1341
 2504TIP3   OH228926   4.132   1.720  11.360  0.2094  0.0858  0.3902
 2504TIP3    H128927   4.116   1.628  11.339 -1.7217  0.2896  0.7800
 2504TIP3    H228928   4.167   1.757  11.279  0.5338 -0.8727  0.0756
 2505TIP3   OH228929   0.172   3.404  11.468  0.3717 -0.2077 -0.1782
 2505TIP3    H128930   0.211   3.480  11.511 -0.5119  1.4328 -2.0581
 2505TIP3    H228931   0.223   3.394  11.387 -0.4609 -0.6676 -0.6617
 2506TIP3   OH228932   0.254   0.575  11.256  0.5721  0.0210 -0.3440
 2506TIP3    H128933   0.257   0.550  11.348  0.8507 -0.9169 -0.5980
 2506TIP3    H228934   0.342   0.560  11.224  0.1352 -1.0777 -1.1084
 2507TIP3   OH228935   3.449   5.605  16.364 -0.4749  0.1817  0.1645
 2507TIP3    H128936   3.397   5.660  16.424  0.1210 -2.5261  3.4897
 2507TIP3    H228937   3.535   5.647  16.362 -0.2657 -0.0396  1.9888
 2508TIP3   OH228938   4.531   3.211  13.342 -0.3036 -0.3679  0.0934
 2508TIP3    H128939   4.580   3.237  13.420  1.7455 -2.7619 -0.2325
 2508TIP3    H228940   4.484   3.290  13.315 -0.9873  0.5954  3.6004
 2509TIP3   OH228941   6.037   0.513  16.257 -0.2105 -0.2903 -0.2619
 2509TIP3    H128942   6.035   0.550  16.169  0.9298 -0.7244 -0.4813
 2509TIP3    H228943   6.034   0.588  16.316 -0.4288  0.0243 -0.6752
 2510TIP3   OH228944   3.735   1.194  12.403 -0.1197  0.4637 -0.6121
 2510TIP3    H128945   3.712   1.157  12.317 -0.6846 -0.6211 -0.0119
 2510TIP3    H228946   3.661   1.250  12.425 -2.4697 -3.0239  1.3196
 2511TIP3   OH228947   1.903   6.483   0.168  0.7828 -0.1296  0.3794
 2511TIP3    H128948   1.902   6.560   0.225 -0.3241  0.6632 -0.6764
 2511TIP3    H228949   1.941   6.515   0.086 -0.5815 -0.4308 -0.4021
 2512TIP3   OH228950   1.583   0.266  15.596 -0.3833  0.3701 -0.3007
 2512TIP3    H128951   1.559   0.317  15.519  0.4352 -0.3844 -1.0843
 2512TIP3    H228952   1.653   0.316  15.637  1.8150 -0.9697 -2.1618
 2513TIP3   OH228953   5.318   5.410  13.011 -0.3807 -0.0891  0.3354
 2513TIP3    H128954   5.293   5.394  12.920 -0.6571  0.2991  0.3363
 2513TIP3    H228955   5.243   5.457  13.048  0.3004  1.0014  0.3786
 2514TIP3   OH228956   6.116   6.735   1.610 -0.2407 -0.2290  0.3502
 2514TIP3    H128957   6.150   6.765   1.526  0.5297  0.8429  1.0235
 2514TIP3    H228958   6.138   6.642   1.613 -2.2384 -0.8421 -1.5630
 2515TIP3   OH228959   4.514   3.653  11.136  0.2071 -0.2199 -0.2790
 2515TIP3    H128960   4.532   3.613  11.051 -0.7947  0.1883 -0.6926
 2515TIP3    H228961   4.508   3.579  11.196 -0.2950 -0.6033 -0.7918
 2516TIP3   OH228962   5.269   3.924   3.640  0.0048  0.5501 -0.5419
 2516TIP3    H128963   5.335   3.929   3.709 -1.1901  0.6642  0.6429
 2516TIP3    H228964   5.318   3.931   3.558  1.5100 -0.0701  0.2758
 2517TIP3   OH228965   3.009   0.015   3.567  0.3343  0.1285  0.0954
 2517TIP3    H128966   3.010   0.111   3.561  1.0488  0.0432 -2.2292
 2517TIP3    H228967   2.948  -0.004   3.638 -1.8341  2.2598 -1.0464
 2518TIP3   OH228968   0.973   0.575  15.748  0.3690 -0.2770  0.2544
 2518TIP3    H128969   0.956   0.593  15.655 -0.2868 -0.7951  0.2628
 2518TIP3    H228970   0.950   0.656  15.793 -0.7827 -0.4981  0.1072
 2519TIP3   OH228971   0.179   3.931  11.567  0.4261  0.5405  0.0356
 2519TIP3    H128972   0.140   3.950  11.652 -1.1726  1.2549 -0.8041
 2519TIP3    H228973   0.273   3.933  11.582  0.3150 -3.3406  2.6502
 2520TIP3   OH228974   1.391   3.497   2.872 -0.5786 -0.2300  0.2558
 2520TIP3    H128975   1.309   3.453   2.895  0.5929 -1.6608  1.9531
 2520TIP3    H228976   1.450   3.476   2.944  1.9478 -1.0454 -1.9138
 2521TIP3   OH228977   0.587   4.339   5.056 -0.1340  0.4804  0.2210
 2521TIP3    H128978   0.558   4.369   5.142 -2.5555 -1.2548  0.0850
 2521TIP3    H228979   0.632   4.256   5.073  2.1989  1.6022  0.0546
 2522TIP3   OH228980   5.059   1.384   1.996 -0.3733 -0.0213 -0.0346
 2522TIP3    H128981   4.981   1.437   1.979  0.0567  0.3302 -0.9703
 2522TIP3    H228982   5.045   1.350   2.084 -0.1054  2.6381  1.1230
 2523TIP3   OH228983   3.503   0.436   3.762 -0.0267 -0.0566  0.3052
 2523TIP3    H128984   3.481   0.394   3.845 -0.6835 -1.1747 -0.4225
 2523TIP3    H228985   3.490   0.530   3.778  1.5256 -0.0768  1.9698
 2524TIP3   OH228986   5.223   3.628   6.590  0.3050 -0.6500  0.0806
 2524TIP3    H128987   5.254   3.570   6.659  1.0493 -0.5806 -0.1821
 2524TIP3    H228988   5.141   3.588   6.560  0.3039 -1.0225  0.5741
 2525TIP3   OH228989   2.182   5.632  14.365 -0.0425 -0.0757 -0.1773
 2525TIP3    H128990   2.206   5.683  14.443 -0.6124  0.4218 -0.3161
 2525TIP3    H228991   2.235   5.670  14.295  1.4475 -1.3811  0.1906
 2526TIP3   OH228992   5.903   5.111  14.980 -0.3148  0.4556  0.1605
 2526TIP3    H128993   5.873   5.168  14.909 -0.2413  1.3939  0.8635
 2526TIP3    H228994   5.950   5.040  14.935 -0.1594  1.0990 -0.7228
 2527TIP3   OH228995   5.847   4.256   0.057  0.0563 -0.4979 -0.0214
 2527TIP3    H128996   5.926   4.306   0.037  0.1451 -0.2079  1.0184
 2527TIP3    H228997   5.864   4.216   0.142 -1.2632  0.3496  0.6828
 2528TIP3   OH228998   5.238   2.595   1.516 -0.4522  0.2224  0.3825
 2528TIP3    H128999   5.261   2.571   1.426  0.0926 -1.0640  0.8486
 2528TIP3    H229000   5.155   2.643   1.507  0.2712  1.3274 -0.9210
 2529TIP3   OH229001   1.327   6.606   1.442  0.5258 -0.3395 -0.4508
 2529TIP3    H129002   1.263   6.668   1.406  0.7064  0.2844  0.2627
 2529TIP3    H229003   1.365   6.652   1.517  3.4955  0.2462 -2.1636
 2530TIP3   OH229004   5.104   2.550   2.750 -0.2735 -0.0802 -0.1214
 2530TIP3    H129005   5.091   2.636   2.710 -1.5498  0.2362  0.9169
 2530TIP3    H229006   5.079   2.487   2.682  1.1289  0.3253 -1.0507
 2531TIP3   OH229007   1.289   0.483   3.869 -0.3491  0.3597  0.5547
 2531TIP3    H129008   1.252   0.569   3.847 -0.8282  0.0398  0.0759
 2531TIP3    H229009   1.346   0.463   3.795 -0.8296 -0.0727  0.2998
 2532TIP3   OH229010   1.791   1.741   4.769 -0.3721 -0.1136  0.8810
 2532TIP3    H129011   1.753   1.812   4.820 -1.8446  0.4785 -0.9269
 2532TIP3    H229012   1.725   1.672   4.770 -0.4797 -0.0508 -0.2803
 2533TIP3   OH229013   4.362   5.239   0.824  0.1587  0.4159 -0.1758
 2533TIP3    H129014   4.319   5.218   0.741  0.0181  0.2737 -0.0695
 2533TIP3    H229015   4.455   5.230   0.806  0.0935 -1.2822  0.1047
 2534TIP3   OH229016   6.465   3.060  16.867  0.1670 -0.2851 -0.4270
 2534TIP3    H129017   6.374   3.058  16.897  0.7970 -1.0915  1.5883
 2534TIP3    H229018   6.480   3.151  16.841 -1.4250 -0.3145 -1.5498
 2535TIP3   OH229019   3.468   3.214   3.003  0.0975 -0.4995 -0.4938
 2535TIP3    H129020   3.519   3.292   2.985 -0.1191 -0.5012 -1.1309
 2535TIP3    H229021   3.451   3.218   3.097  0.5834 -0.0882 -0.4208
 2536TIP3   OH229022   4.968   0.833   1.542  0.2009 -0.0152  0.3606
 2536TIP3    H129023   4.919   0.837   1.624 -0.5941  1.2211 -0.1510
 2536TIP3    H229024   4.921   0.891   1.482  0.0641 -1.8068 -1.3678
 2537TIP3   OH229025   5.878   2.232  11.009  0.7522 -0.0739 -0.5063
 2537TIP3    H129026   5.956   2.286  11.000 -0.5257  1.7495 -1.0373
 2537TIP3    H229027   5.805   2.294  11.009 -0.6185 -1.5607  1.9034
 2538TIP3   OH229028   1.132   6.266  11.360  0.8471 -0.9740 -0.6780
 2538TIP3    H129029   1.042   6.244  11.382  0.2882  1.3636 -0.4353
 2538TIP3    H229030   1.151   6.214  11.282 -0.4201 -2.0486 -0.3112
 2539TIP3   OH229031   1.173   5.669   2.334 -0.2357  0.0947 -0.1077
 2539TIP3    H129032   1.171   5.581   2.297 -0.0303 -0.4162  1.0516
 2539TIP3    H229033   1.103   5.669   2.399  1.9747 -0.3843  2.4058
 2540TIP3   OH229034   2.957   2.948   0.251 -0.0540  0.1120 -0.0594
 2540TIP3    H129035   2.878   2.896   0.239 -1.5941  2.0346  1.0226
 2540TIP3    H229036   2.974   2.987   0.165 -1.6045  1.3654  0.1645
 2541TIP3   OH229037   0.375   0.011   3.992 -0.8498 -0.5110  0.2236
 2541TIP3    H129038   0.441   0.008   3.923 -2.5544 -0.7128 -1.4815
 2541TIP3    H229039   0.409   0.075   4.055  1.4948 -1.4864  0.0395
 2542TIP3   OH229040   6.357   6.666  13.234 -0.7043 -0.2898  0.5293
 2542TIP3    H129041   6.396   6.624  13.157  0.3111  0.4556  0.6036
 2542TIP3    H229042   6.429   6.672  13.297 -1.6194 -1.2244  1.6949
 2543TIP3   OH229043   6.770   1.658  16.674 -0.0617 -0.0987  0.6315
 2543TIP3    H129044   6.755   1.570  16.707  0.1519  0.1275  1.3375
 2543TIP3    H229045   6.694   1.677  16.619  1.1741 -1.8225 -1.9213
 2544TIP3   OH229046   1.450   3.859  14.877 -0.3832 -0.1160 -0.1596
 2544TIP3    H129047   1.408   3.805  14.810  0.1436 -0.8157  0.0702
 2544TIP3    H229048   1.404   3.836  14.958 -0.5499  0.2171 -0.1566
 2545TIP3   OH229049   3.654   0.981  15.816 -0.3265  0.3892 -0.1411
 2545TIP3    H129050   3.621   0.900  15.854  2.5671 -1.3591 -1.0033
 2545TIP3    H229051   3.713   1.017  15.883  1.3397 -0.3341 -1.1490
 2546TIP3   OH229052   2.491   5.272   1.651  0.2470  0.0982  0.4011
 2546TIP3    H129053   2.429   5.323   1.600  0.4391  1.6058  1.6005
 2546TIP3    H229054   2.467   5.181   1.634  0.7226  0.4708 -2.8217
 2547TIP3   OH229055   1.945   4.960   5.301  0.2005  0.5470 -0.5087
 2547TIP3    H129056   2.003   4.893   5.265  0.5019  0.2742  0.4389
 2547TIP3    H229057   2.005   5.024   5.340 -0.1239  0.4319  0.1866
 2548TIP3   OH229058   1.903   0.704  11.447  0.1346  0.1119 -0.0709
 2548TIP3    H129059   1.898   0.609  11.437  0.6683  0.0972 -0.2293
 2548TIP3    H229060   1.911   0.719  11.541 -0.4418  0.0305 -0.0024
 2549TIP3   OH229061   1.897   1.588   3.889 -0.0235  1.0989 -0.7379
 2549TIP3    H129062   1.823   1.527   3.897  1.0503 -0.2522 -0.8250
 2549TIP3    H229063   1.957   1.545   3.828  1.4449  1.5465  0.3475
 2550TIP3   OH229064   3.160   4.680   4.003  0.2728 -0.0863 -0.2626
 2550TIP3    H129065   3.071   4.653   4.026  0.3916  0.9108  1.5749
 2550TIP3    H229066   3.151   4.724   3.919 -0.5913 -1.9009 -1.1717
 2551TIP3   OH229067   0.271   2.236   3.898 -0.0793 -0.1763  0.3548
 2551TIP3    H129068   0.265   2.184   3.818  3.5762 -1.1517  0.5150
 2551TIP3    H229069   0.359   2.274   3.894 -0.9347  2.2918  2.4819
 2552TIP3   OH229070   5.253   6.743  12.577 -0.2772  0.0630  0.1092
 2552TIP3    H129071   5.220   6.777  12.494 -0.5045 -0.6239 -0.0852
 2552TIP3    H229072   5.243   6.816  12.638 -3.8471 -0.6031  0.5296
 2553TIP3   OH229073   5.710   4.458   5.341 -0.1462  0.6012 -0.1728
 2553TIP3    H129074   5.745   4.539   5.379 -0.5680  0.8625 -0.3336
 2553TIP3    H229075   5.776   4.392   5.362 -0.3319  0.7470  0.9852
 2554TIP3   OH229076   5.941   5.560   5.384  0.9968 -0.1228  0.1167
 2554TIP3    H129077   5.915   5.583   5.295 -0.8117 -0.1009  0.6143
 2554TIP3    H229078   5.909   5.471   5.396 -1.2752  0.7960  1.6079
 2555TIP3   OH229079   4.969   6.430  10.781  0.0259  0.5552 -0.0642
 2555TIP3    H129080   4.985   6.520  10.754 -0.6734  0.1040 -2.1777
 2555TIP3    H229081   4.880   6.432  10.818  0.2866  0.8431  0.5653
 2556TIP3   OH229082   6.771   6.678   0.657 -0.2393 -0.0251  0.2961
 2556TIP3    H129083   6.685   6.642   0.677 -1.2303  0.9499 -1.9154
 2556TIP3    H229084   6.799   6.630   0.579  0.4038  0.9281 -0.0717
 2557TIP3   OH229085   5.784   0.098   5.750  0.1510 -0.0815 -0.1542
 2557TIP3    H129086   5.764   0.049   5.830  2.3115 -1.8628 -0.5874
 2557TIP3    H229087   5.748   0.045   5.679  0.0574  0.4202 -0.4895
 2558TIP3   OH229088   6.009   0.116   0.403  0.2596  0.3132  0.2790
 2558TIP3    H129089   6.080   0.129   0.340 -0.0477  0.9446  0.0524
 2558TIP3    H229090   6.052   0.081   0.481  0.5959 -0.8367 -0.4028
 2559TIP3   OH229091   4.954   5.800  16.947 -0.4765 -0.4348 -0.4757
 2559TIP3    H129092   4.967   5.848  17.029  3.1128 -0.8446 -0.6610
 2559TIP3    H229093   4.894   5.729  16.971 -0.9505  0.4981  1.3215
 2560TIP3   OH229094   5.308   5.552   5.680  0.0795 -0.2443 -0.7760
 2560TIP3    H129095   5.232   5.530   5.733  0.9189 -0.1366  0.5365
 2560TIP3    H229096   5.280   5.539   5.589 -1.6341  0.2641 -0.3496
 2561TIP3   OH229097   6.530   1.784  12.866 -0.7552  0.1593 -0.3732
 2561TIP3    H129098   6.531   1.754  12.957 -0.0919 -3.0978 -1.3278
 2561TIP3    H229099   6.615   1.828  12.854 -1.4776  2.0461  0.9039
 2562TIP3   OH229100   2.628   2.928   0.148  0.2035  0.0847  0.3995
 2562TIP3    H129101   2.654   2.837   0.159 -0.0728 -0.1805 -0.9657
 2562TIP3    H229102   2.543   2.935   0.192 -1.4631 -1.2405 -2.3402
 2563TIP3   OH229103   1.417   5.464  10.973 -0.0296  0.5247 -0.2264
 2563TIP3    H129104   1.451   5.552  10.956  0.3715  0.6015  0.9430
 2563TIP3    H229105   1.480   5.406  10.931  1.2912  0.6843  1.4597
 2564TIP3   OH229106   0.237   4.766  16.453 -0.3009 -0.3722 -0.3677
 2564TIP3    H129107   0.255   4.857  16.475  0.8806 -0.3301 -1.3606
 2564TIP3    H229108   0.307   4.742  16.392 -0.1383 -2.1774  0.4526
 2565TIP3   OH229109   5.283   3.717  13.949 -0.1789 -0.2419 -0.1314
 2565TIP3    H129110   5.318   3.694  13.863  1.7958 -1.0038  0.8338
 2565TIP3    H229111   5.227   3.793  13.931  0.9830  0.2658 -1.9470
 2566TIP3   OH229112   0.483   3.032   4.701 -0.3199  0.4540  0.3949
 2566TIP3    H129113   0.554   3.011   4.762 -0.4284 -0.0999  0.3363
 2566TIP3    H229114   0.475   3.127   4.706  0.0597  0.4705  0.8124
 2567TIP3   OH229115   2.007   0.805  14.642  0.0769 -0.5334  0.0699
 2567TIP3    H129116   1.919   0.843  14.634 -0.4088 -2.0000 -3.6334
 2567TIP3    H229117   1.994   0.727  14.696 -1.3287 -1.5675 -1.6408
 2568TIP3   OH229118   0.494   6.100   4.949  0.0422  0.1336 -0.4862
 2568TIP3    H129119   0.532   6.112   4.862  3.6965 -0.6276  0.8302
 2568TIP3    H229120   0.505   6.007   4.967  0.4820  0.4902  1.2272
 2569TIP3   OH229121   4.768   0.126   1.970  0.1146  0.3229  0.6052
 2569TIP3    H129122   4.782   0.089   2.057  1.2360  1.5811  1.0111
 2569TIP3    H229123   4.837   0.192   1.962  0.0984  0.1619 -1.2867
 2570TIP3   OH229124   0.351   5.911   3.350 -0.8506 -0.1481  0.0989
 2570TIP3    H129125   0.392   5.975   3.291 -2.3334 -0.1045 -0.9462
 2570TIP3    H229126   0.342   5.958   3.433  2.4535 -0.6314  0.8477
 2571TIP3   OH229127   1.413   6.385   1.313  0.5256 -0.3067 -0.3558
 2571TIP3    H129128   1.480   6.334   1.360  0.5162 -0.4954 -0.5458
 2571TIP3    H229129   1.395   6.459   1.370 -0.8745 -1.5182  0.8863
 2572TIP3   OH229130   0.840   1.511   1.315 -0.3918 -0.1563 -0.0813
 2572TIP3    H129131   0.891   1.439   1.353  0.3497  0.9913  1.1920
 2572TIP3    H229132   0.896   1.545   1.245 -0.8973 -0.9930 -0.9320
 2573TIP3   OH229133   6.572   6.592   1.954  0.1746  0.2910  0.1656
 2573TIP3    H129134   6.492   6.540   1.944 -0.3771  1.3583 -1.3736
 2573TIP3    H229135   6.567   6.626   2.043  1.1062 -3.0549  1.6504
 2574TIP3   OH229136   3.317   6.079   4.896  0.4175  0.3163  0.2467
 2574TIP3    H129137   3.235   6.110   4.934 -0.5018 -0.9967 -0.5849
 2574TIP3    H229138   3.329   6.132   4.818  0.7255  0.9681  0.7309
 2575TIP3   OH229139   4.511   6.321   6.230 -0.6119  0.3271 -0.1629
 2575TIP3    H129140   4.451   6.320   6.156 -1.6606  1.1065  0.6375
 2575TIP3    H229141   4.532   6.414   6.242  1.6626 -0.0108 -1.1143
 2576TIP3   OH229142   1.818   0.531   3.804  0.6401 -0.0815 -0.2767
 2576TIP3    H129143   1.823   0.533   3.900 -0.0360 -2.2117 -0.1418
 2576TIP3    H229144   1.837   0.440   3.781  0.2990  0.2792 -2.1350
 2577TIP3   OH229145   3.893   5.019   1.385 -0.0289  0.1179  0.4382
 2577TIP3    H129146   3.958   4.957   1.352  0.9082  1.7373 -0.8759
 2577TIP3    H229147   3.811   4.969   1.383  0.5318 -0.8210 -1.4486
 2578TIP3   OH229148   0.222   3.899  15.409 -0.2930  0.0181  0.2813
 2578TIP3    H129149   0.141   3.878  15.456  1.4036 -1.4272  2.8314
 2578TIP3    H229150   0.253   3.980  15.450 -0.1168  0.2179 -0.2417
 2579TIP3   OH229151   3.346   2.687  13.612  0.2131  0.0700 -0.0823
 2579TIP3    H129152   3.407   2.760  13.623 -1.6514  1.7421 -0.2925
 2579TIP3    H229153   3.372   2.645  13.530  2.3996 -0.6737  0.9094
 2580TIP3   OH229154   0.506   2.391  14.582  0.1560  0.4525  0.3014
 2580TIP3    H129155   0.456   2.428  14.654 -1.5471 -3.0392  1.1232
 2580TIP3    H229156   0.574   2.338  14.625 -0.0702 -0.6401 -0.6427
 2581TIP3   OH229157   6.452   6.712   3.946 -0.4061  0.7592 -0.8197
 2581TIP3    H129158   6.514   6.651   3.906  1.0147  1.5787  0.0734
 2581TIP3    H229159   6.396   6.656   4.000  1.2225  0.2649  0.4165
 2582TIP3   OH229160   5.737   2.264  16.049 -0.0032 -0.2501  0.1686
 2582TIP3    H129161   5.764   2.315  15.973 -0.1731  1.6389  1.3176
 2582TIP3    H229162   5.641   2.272  16.051 -0.0981 -1.2014 -0.0134
 2583TIP3   OH229163   2.224   5.780  11.589 -0.3615  0.3969 -0.0625
 2583TIP3    H129164   2.290   5.770  11.657 -1.5056 -1.9444  0.8169
 2583TIP3    H229165   2.269   5.757  11.508  0.3635  0.6644  0.2605
 2584TIP3   OH229166   6.232   6.497  11.855 -0.0641  0.4144 -0.0801
 2584TIP3    H129167   6.182   6.572  11.822 -0.5260 -0.1243 -0.6355
 2584TIP3    H229168   6.176   6.460  11.923  0.6995  1.2729  1.0482
 2585TIP3   OH229169   1.291   0.480   0.100 -0.4634  0.3440  0.5314
 2585TIP3    H129170   1.224   0.465   0.167 -0.7270 -1.0918 -0.0117
 2585TIP3    H229171   1.249   0.534   0.034 -1.2987 -0.9585 -0.0511
 2586TIP3   OH229172   2.794   1.407   5.068 -0.3575  0.1302  0.8883
 2586TIP3    H129173   2.737   1.331   5.078 -0.6664 -0.0637 -1.6215
 2586TIP3    H229174   2.814   1.410   4.974  2.6244  1.0468  1.4561
 2587TIP3   OH229175   4.603   2.666   3.604 -0.3001 -0.4848 -0.1379
 2587TIP3    H129176   4.639   2.639   3.688 -0.8173 -0.0028  0.2343
 2587TIP3    H229177   4.668   2.634   3.540  1.4232  1.3360  0.5763
 2588TIP3   OH229178   1.421   4.015   4.333  0.3147 -0.0413  0.4141
 2588TIP3    H129179   1.504   3.993   4.375  0.5023 -0.6044 -0.2337
 2588TIP3    H229180   1.443   4.025   4.241 -0.2871  0.1113  0.2827
 2589TIP3   OH229181   1.388   6.745   6.521 -0.0851 -0.4202  0.1373
 2589TIP3    H129182   1.412   6.653   6.535  2.6633  0.0714 -0.7551
 2589TIP3    H229183   1.370   6.751   6.427  0.5425  0.1094  0.0492
 2590TIP3   OH229184   1.192   0.063   0.404  0.6078  0.0796 -0.7758
 2590TIP3    H129185   1.224  -0.024   0.378 -0.0502  0.0303 -1.4539
 2590TIP3    H229186   1.102   0.047   0.434  1.6691 -0.0871  2.8288
 2591TIP3   OH229187   3.081   2.975   4.026  0.0454 -0.3422  0.0684
 2591TIP3    H129188   3.105   2.996   4.116  1.4026  1.1573 -0.5914
 2591TIP3    H229189   3.042   3.055   3.992  0.5721 -0.5141 -1.0036
 2592TIP3   OH229190   5.539   0.622  14.835  0.2739  0.5630 -0.3726
 2592TIP3    H129191   5.581   0.566  14.770  0.8163  0.3768  0.1312
 2592TIP3    H229192   5.447   0.627  14.807  0.7157  1.3683 -1.7587
 2593TIP3   OH229193   2.053   5.671   0.960  0.2946 -0.3918  0.5879
 2593TIP3    H129194   2.096   5.695   0.878  0.5270  0.6840  1.0073
 2593TIP3    H229195   1.967   5.638   0.932  1.0075 -1.6828 -0.1863
 2594TIP3   OH229196   2.194   0.303   3.221  0.4838 -0.1239 -0.1020
 2594TIP3    H129197   2.177   0.302   3.315  3.0133 -1.4684  0.4089
 2594TIP3    H229198   2.161   0.219   3.189 -0.5495  0.4086 -0.5025
 2595TIP3   OH229199   0.011   5.453   0.992  0.2518  0.3680  0.2403
 2595TIP3    H129200   0.018   5.541   0.955  1.6153  0.5586  0.8754
 2595TIP3    H229201  -0.001   5.395   0.917 -2.1601  1.2080 -0.0894
 2596TIP3   OH229202   5.221   6.389  14.207 -0.0161  0.0381 -0.8963
 2596TIP3    H129203   5.242   6.312  14.155 -2.0685  0.0670 -1.8659
 2596TIP3    H229204   5.206   6.458  14.143  0.1361  0.8118 -0.1207
 2597TIP3   OH229205   1.304   6.049   2.059 -0.3450  0.4827  0.2846
 2597TIP3    H129206   1.338   5.960   2.047  1.8595  1.4264 -0.7986
 2597TIP3    H229207   1.330   6.072   2.148 -2.3971 -0.4989  1.2150
 2598TIP3   OH229208   0.185   5.865  11.759 -0.4582 -0.0048  0.0845
 2598TIP3    H129209   0.190   5.869  11.855 -0.4267  0.8297  0.0600
 2598TIP3    H229210   0.274   5.888  11.730 -0.0975 -1.5998 -0.1365
 2599TIP3   OH229211   6.229   3.031   5.182  0.3852  0.6662 -0.2301
 2599TIP3    H129212   6.298   3.097   5.178  0.4078  0.6713  0.1707
 2599TIP3    H229213   6.148   3.080   5.166  0.6752  0.2148 -3.7344
 2600TIP3   OH229214   2.386   2.442  15.606 -0.3628 -0.1685  0.0256
 2600TIP3    H129215   2.302   2.436  15.560 -1.5382 -0.4836  2.0959
 2600TIP3    H229216   2.437   2.369  15.570 -1.6059 -1.0261 -0.0693
 2601TIP3   OH229217   1.001   1.542  13.794 -0.2013 -0.0091  0.1132
 2601TIP3    H129218   0.987   1.450  13.773  0.7515 -0.0509 -0.3499
 2601TIP3    H229219   1.028   1.582  13.712  0.1441  0.5227  0.4806
 2602TIP3   OH229220   4.185   2.394  13.044 -0.6924  0.4280 -0.0848
 2602TIP3    H129221   4.266   2.442  13.061 -0.2181 -0.5420  0.4906
 2602TIP3    H229222   4.210   2.328  12.980 -0.7768 -0.5145  0.8351
 2603TIP3   OH229223   1.338   3.059  12.038  0.2004  0.4392  0.0197
 2603TIP3    H129224   1.282   3.027  11.967  0.8410  2.5630 -1.5420
 2603TIP3    H229225   1.277   3.090  12.104 -0.4140 -1.0305  0.1861
 2604TIP3   OH229226   3.413   4.822  11.679  0.0681  0.4041 -0.0302
 2604TIP3    H129227   3.478   4.781  11.736  0.0483  0.3144 -0.0724
 2604TIP3    H229228   3.391   4.904  11.724  0.5828  0.6791 -0.2741
 2605TIP3   OH229229   2.874   3.758   6.750  0.5299 -0.0327  0.0241
 2605TIP3    H129230   2.934   3.707   6.804 -0.6041  0.3436  1.7440
 2605TIP3    H229231   2.832   3.818   6.812 -0.8187  0.4511 -1.2986
 2606TIP3   OH229232   6.539   5.563   3.276 -0.1040  0.3497  0.3589
 2606TIP3    H129233   6.494   5.615   3.342  0.2680 -0.3612  1.2049
 2606TIP3    H229234   6.496   5.586   3.194 -0.2312  1.6427  0.7644
 2607TIP3   OH229235   1.239   6.202  11.103 -0.4102  0.3879 -0.7471
 2607TIP3    H129236   1.229   6.181  11.011  0.6093  0.6459 -0.9344
 2607TIP3    H229237   1.332   6.187  11.121 -0.4774  0.8875  0.0978
 2608TIP3   OH229238   6.191   0.401   2.956  0.1378  0.5177  0.1569
 2608TIP3    H129239   6.158   0.341   3.023  1.4382 -0.8378 -0.3590
 2608TIP3    H229240   6.273   0.436   2.992  0.2673  0.6520 -0.2545
 2609TIP3   OH229241   4.540   0.952  15.812  0.0452  0.7675 -0.1440
 2609TIP3    H129242   4.573   1.017  15.750  1.1158  1.2669  0.9010
 2609TIP3    H229243   4.530   0.872  15.760 -0.2694  1.4889 -1.2141
 2610TIP3   OH229244   0.180   0.661  14.529  0.1149  0.1884  0.2204
 2610TIP3    H129245   0.164   0.745  14.485  1.0264  0.4815  0.4285
 2610TIP3    H229246   0.261   0.629  14.490 -1.7251 -2.0925 -2.0377
 2611TIP3   OH229247   2.883   0.373  16.205 -0.1227 -0.2871 -0.8651
 2611TIP3    H129248   2.955   0.364  16.267  0.3892  0.0600 -1.4090
 2611TIP3    H229249   2.868   0.284  16.172 -0.3468 -0.4608 -0.3101
 2612TIP3   OH229250   4.492   3.722  12.008  0.0220  0.0719  0.0741
 2612TIP3    H129251   4.443   3.706  12.088  0.8377  1.1520  0.8286
 2612TIP3    H229252   4.571   3.668  12.016 -1.2333 -2.1075 -1.3991
 2613TIP3   OH229253   2.526   4.144  11.021  0.0223 -0.1049 -0.0085
 2613TIP3    H129254   2.431   4.144  11.030  0.0265 -0.4193  0.0313
 2613TIP3    H229255   2.550   4.237  11.021 -0.1524 -0.0316  1.4900
 2614TIP3   OH229256   5.799   6.511  14.289 -0.0964 -0.3103 -0.3065
 2614TIP3    H129257   5.828   6.488  14.201  0.6997 -0.0188 -0.1332
 2614TIP3    H229258   5.822   6.604  14.298 -2.7259  0.4645 -0.7841
 2615TIP3   OH229259   2.506   5.256   5.565 -0.0684 -0.0297  0.0231
 2615TIP3    H129260   2.475   5.236   5.477  2.9334 -1.5196 -0.8352
 2615TIP3    H229261   2.560   5.334   5.555  1.0825 -0.7591  0.2817
 2616TIP3   OH229262   5.908   1.262  14.369 -0.1407  0.4219 -0.0210
 2616TIP3    H129263   5.895   1.167  14.378 -1.9580  0.4520 -1.5459
 2616TIP3    H229264   5.819   1.298  14.367  0.4290  1.8787 -1.9152
 2617TIP3   OH229265   6.389   3.200   5.035  0.1606  0.5308  0.3587
 2617TIP3    H129266   6.478   3.228   5.014  0.6830 -0.7618  0.6768
 2617TIP3    H229267   6.381   3.113   4.994 -0.1704 -0.3141  2.1015
 2618TIP3   OH229268   3.621   5.562   4.569 -0.1982  0.0817  0.1393
 2618TIP3    H129269   3.617   5.594   4.479  0.1253  1.5173  0.6108
 2618TIP3    H229270   3.540   5.592   4.609  0.8008  1.8008  1.0224
 2619TIP3   OH229271   3.044   2.095  16.948  0.2839  0.3222 -0.3241
 2619TIP3    H129272   2.994   2.015  16.937  1.0072  0.1512 -3.0451
 2619TIP3    H229273   3.120   2.069  17.000 -0.9866 -0.0150  1.4387
 2620TIP3   OH229274   5.271   0.141  15.092 -0.3339 -0.2621 -0.2490
 2620TIP3    H129275   5.305   0.177  15.011 -1.4427  0.1926 -0.5281
 2620TIP3    H229276   5.349   0.116  15.142  0.4684  1.9115 -0.3044
 2621TIP3   OH229277   5.468   0.829  12.923 -0.8115 -0.6058 -0.1371
 2621TIP3    H129278   5.392   0.860  12.874 -0.0057 -0.5734 -1.4231
 2621TIP3    H229279   5.489   0.745  12.882  1.4478  0.6064 -1.6819
 2622TIP3   OH229280   5.227   2.447   1.233  0.3650  0.0116  0.7814
 2622TIP3    H129281   5.201   2.479   1.147 -1.5203 -3.2677 -0.0803
 2622TIP3    H229282   5.322   2.440   1.229  0.4519  1.5081 -0.3859
 2623TIP3   OH229283   1.863   2.613   2.906  0.1854 -0.1315 -0.3617
 2623TIP3    H129284   1.769   2.609   2.926  0.4657 -0.0537  1.0661
 2623TIP3    H229285   1.905   2.623   2.992  1.4494  0.7536 -1.0637
 2624TIP3   OH229286   6.694   4.649  16.179 -0.1529  0.1339 -0.2031
 2624TIP3    H129287   6.641   4.720  16.216  0.0402  1.3356 -2.1169
 2624TIP3    H229288   6.777   4.691  16.156  0.9798 -1.3161  1.0063
 2625TIP3   OH229289   1.902   3.022  11.084  0.0819  0.1925 -0.5510
 2625TIP3    H129290   1.997   3.023  11.098  0.4364  0.3603 -2.6489
 2625TIP3    H229291   1.885   3.096  11.026 -0.7010 -2.1437 -3.5474
 2626TIP3   OH229292   6.157   4.822   4.115  0.3932 -0.1426 -0.2533
 2626TIP3    H129293   6.110   4.790   4.039  2.2977 -0.9880 -1.1234
 2626TIP3    H229294   6.136   4.760   4.185 -0.5937  0.1035 -0.3099
 2627TIP3   OH229295   4.998   1.523  16.013  0.2309 -0.1984  0.0508
 2627TIP3    H129296   5.015   1.480  16.097 -0.8566  0.8157  0.8234
 2627TIP3    H229297   4.920   1.479  15.979 -0.0236  0.1841  0.1400
 2628TIP3   OH229298   2.165   6.744  13.400  0.2426  0.2923  0.0039
 2628TIP3    H129299   2.165   6.827  13.351 -0.7751 -0.0911 -0.6854
 2628TIP3    H229300   2.122   6.682  13.341  2.6205 -1.2037 -0.2427
 2629TIP3   OH229301   0.450   3.447  14.261 -0.0898 -0.2489 -0.3235
 2629TIP3    H129302   0.354   3.442  14.265  0.0175 -3.5933  1.6080
 2629TIP3    H229303   0.470   3.424  14.170 -1.1007 -0.3236 -0.5491
 2630TIP3   OH229304   3.434   0.653  17.028  0.1117 -0.5266  0.0061
 2630TIP3    H129305   3.355   0.682  16.982  1.4683 -0.6652 -2.5841
 2630TIP3    H229306   3.473   0.733  17.062 -1.5931 -0.5457  2.2843
 2631TIP3   OH229307   0.493   1.652  17.173 -0.0112 -0.2623  0.2195
 2631TIP3    H129308   0.549   1.668  17.097 -0.8426 -1.7341 -0.7411
 2631TIP3    H229309   0.404   1.653  17.138 -0.4321 -0.5158  1.2536
 2632TIP3   OH229310   0.946   1.409  14.250 -0.5794  0.6747  0.0325
 2632TIP3    H129311   0.952   1.343  14.320 -0.4458  1.4546  0.7741
 2632TIP3    H229312   0.954   1.359  14.169  0.7523 -0.0818  0.6038
 2633TIP3   OH229313   1.255   6.169  10.811  0.5342 -0.0113  0.4007
 2633TIP3    H129314   1.232   6.147  10.721  0.4531 -0.7699  0.6015
 2633TIP3    H229315   1.326   6.108  10.833 -0.9301 -1.3514  1.5810
 2634TIP3   OH229316   3.878   0.344  15.451  0.1609 -0.3522 -0.5099
 2634TIP3    H129317   3.959   0.363  15.500  0.2092 -0.6301 -0.4813
 2634TIP3    H229318   3.830   0.282  15.507 -1.1661  1.5599  0.5912
 2635TIP3   OH229319   3.000   2.854   1.789 -0.4002 -0.2370  0.9484
 2635TIP3    H129320   2.938   2.892   1.728  1.1941 -1.7526 -1.8468
 2635TIP3    H229321   2.949   2.791   1.839 -1.3514 -0.7653 -0.6166
 2636TIP3   OH229322   2.375   3.945  16.789  0.1216 -0.2358 -0.8692
 2636TIP3    H129323   2.422   3.997  16.854  0.3596 -1.5229  0.0270
 2636TIP3    H229324   2.345   4.009  16.724 -1.2572  1.2723  1.1369
 2637TIP3   OH229325   2.769   3.639   1.727 -0.7947  0.0827 -1.4083
 2637TIP3    H129326   2.837   3.690   1.683 -0.5732  0.3308 -0.7898
 2637TIP3    H229327   2.699   3.631   1.662 -0.2445 -0.0335 -1.9942
 2638TIP3   OH229328   2.122   3.853   2.699  0.2917 -0.2239  0.1754
 2638TIP3    H129329   2.046   3.796   2.710  0.0699 -0.3489 -1.6777
 2638TIP3    H229330   2.198   3.797   2.716  0.0423 -0.7757 -0.5112
 2639TIP3   OH229331   6.619   0.041  16.765 -0.8114  0.7176 -0.5849
 2639TIP3    H129332   6.596   0.132  16.787  0.8298  1.1456 -0.4857
 2639TIP3    H229333   6.706   0.029  16.803 -1.0738 -0.9759 -0.4382
 2640TIP3   OH229334   6.492   4.842   0.522 -0.1797 -0.5124  0.2759
 2640TIP3    H129335   6.502   4.763   0.575 -0.0698 -0.2647  0.6278
 2640TIP3    H229336   6.572   4.892   0.538  0.2283 -0.8126 -0.7623
 2641TIP3   OH229337   2.745   2.164   2.256 -0.1135  0.0915  0.2454
 2641TIP3    H129338   2.666   2.145   2.307 -0.1957  1.4359  0.6481
 2641TIP3    H229339   2.818   2.140   2.314 -0.2146  0.0093  0.3395
 2642TIP3   OH229340   3.284   1.851  12.695  0.0306  0.4495  0.5002
 2642TIP3    H129341   3.290   1.766  12.652 -0.3958  0.2528  0.8217
 2642TIP3    H229342   3.320   1.836  12.782  1.2051  0.9252  0.1268
 2643TIP3   OH229343   1.651   2.901   3.640 -0.3142 -0.2210  0.1527
 2643TIP3    H129344   1.706   2.956   3.585  0.5414  0.6726  1.8351
 2643TIP3    H229345   1.712   2.850   3.692 -1.0528  0.3011  1.5850
 2644TIP3   OH229346   1.907   4.885  12.705  0.1745  0.3232  0.0326
 2644TIP3    H129347   1.904   4.980  12.703  0.2340  0.3513  1.0327
 2644TIP3    H229348   1.819   4.858  12.734  0.2635  0.0865  0.0893
 2645TIP3   OH229349   5.618   5.670   0.732 -0.2683  0.3851 -0.4946
 2645TIP3    H129350   5.626   5.736   0.662 -1.3136 -0.2229 -1.2170
 2645TIP3    H229351   5.527   5.679   0.762  0.2279  0.8066  0.9940
 2646TIP3   OH229352   0.892   5.088   3.804 -0.7864 -0.0591 -0.7675
 2646TIP3    H129353   0.848   5.172   3.791  0.8019  1.2297  1.3328
 2646TIP3    H229354   0.985   5.109   3.797 -0.1879 -0.9037  2.7542
 2647TIP3   OH229355   2.594   4.607  12.621 -0.2477 -0.4449  0.0085
 2647TIP3    H129356   2.506   4.583  12.593  0.2936 -0.4963 -1.8099
 2647TIP3    H229357   2.582   4.650  12.705 -2.2211  1.0148 -0.9302
 2648TIP3   OH229358   4.439   1.014   0.140  0.7005 -0.1379 -0.3135
 2648TIP3    H129359   4.459   1.102   0.174  2.3633 -0.5083 -0.2241
 2648TIP3    H229360   4.482   1.011   0.055 -0.7136 -0.3415 -1.0457
 2649TIP3   OH229361   0.908   4.868  12.937 -0.4443  0.1275 -0.6095
 2649TIP3    H129362   0.993   4.824  12.940 -0.4749  0.0186 -1.1378
 2649TIP3    H229363   0.880   4.874  13.028  1.3122  2.4889 -0.1350
 2650TIP3   OH229364   3.569   3.404   4.124  0.4671 -0.3214  0.5029
 2650TIP3    H129365   3.537   3.323   4.164 -0.0814  0.4662  1.7018
 2650TIP3    H229366   3.498   3.432   4.067  0.7004 -0.7153  0.0013
 2651TIP3   OH229367   5.019   3.934  16.567  0.4756  0.4499 -0.1535
 2651TIP3    H129368   4.985   3.866  16.625 -1.0420 -0.0517 -1.5692
 2651TIP3    H229369   4.963   4.010  16.584  1.2142  0.8934  0.3452
 2652TIP3   OH229370   0.439   5.178   0.290 -0.4283 -0.3643  0.2031
 2652TIP3    H129371   0.516   5.229   0.267  0.2097 -1.1747  0.4846
 2652TIP3    H229372   0.375   5.197   0.221 -0.5505  1.5001  0.7687
 2653TIP3   OH229373   1.795   3.672   0.853 -0.1222  0.1890  1.0043
 2653TIP3    H129374   1.712   3.697   0.895 -0.8375  0.5378 -0.5420
 2653TIP3    H229375   1.830   3.753   0.817  0.7260 -0.0203  1.3318
 2654TIP3   OH229376   6.586   4.107  16.295  0.0368  0.7464  0.2354
 2654TIP3    H129377   6.510   4.063  16.333  0.2749  0.4063  0.3304
 2654TIP3    H229378   6.550   4.163  16.226 -0.1578 -0.7681 -0.9459
 2655TIP3   OH229379   1.253   4.745   4.713  0.0597  0.3196 -0.3436
 2655TIP3    H129380   1.271   4.694   4.634  1.3161  0.3511 -0.0924
 2655TIP3    H229381   1.161   4.770   4.704  0.0118 -0.1895 -1.4985
 2656TIP3   OH229382   6.047   1.924  15.782  0.0276  0.3794  0.2881
 2656TIP3    H129383   6.010   1.848  15.827  0.0583 -0.5904 -1.2411
 2656TIP3    H229384   6.048   1.993  15.848  0.1896 -0.9966  1.7908
 2657TIP3   OH229385   1.408   3.350   2.595  0.5507 -0.1858 -0.0200
 2657TIP3    H129386   1.403   3.369   2.689  1.7424 -1.8227  0.4213
 2657TIP3    H229387   1.326   3.386   2.559  0.3260  0.9699  1.5255
 2658TIP3   OH229388   6.098   5.696   5.583  0.0813 -0.1053 -0.2566
 2658TIP3    H129389   6.152   5.623   5.613 -0.5811 -0.7458 -0.6039
 2658TIP3    H229390   6.056   5.664   5.503  0.1703  0.8292 -0.6984
 2659TIP3   OH229391   3.728   2.815  16.806  0.3442 -0.0224 -0.3433
 2659TIP3    H129392   3.775   2.876  16.863  2.6516 -0.1304 -1.9717
 2659TIP3    H229393   3.760   2.836  16.718 -2.7734 -0.1063 -1.6155
 2660TIP3   OH229394   0.215   4.180  11.420 -0.3648 -0.0952  0.7509
 2660TIP3    H129395   0.182   4.192  11.509 -1.1251 -0.3449  0.5131
 2660TIP3    H229396   0.182   4.094  11.393 -0.8830  0.3469 -0.0838
 2661TIP3   OH229397   6.661   6.697  15.903  0.7581  0.1795 -0.2474
 2661TIP3    H129398   6.615   6.701  15.819  0.3479  0.7340 -0.0050
 2661TIP3    H229399   6.591   6.689  15.968  1.1247 -1.3554 -0.0206
 2662TIP3   OH229400   0.117   4.441   2.401  0.3304 -0.5038  0.1360
 2662TIP3    H129401   0.151   4.469   2.486 -0.6590  0.1091  0.3431
 2662TIP3    H229402   0.181   4.378   2.369  1.2305  0.0100  0.8833
 2663TIP3   OH229403   2.988   5.608   0.741  0.1339 -0.3494 -0.4482
 2663TIP3    H129404   2.966   5.580   0.830  2.7614  0.3231  0.4918
 2663TIP3    H229405   3.035   5.534   0.703  1.7516  0.4883 -0.1330
 2664TIP3   OH229406   3.853   2.118   0.998 -0.2156 -0.3891 -0.1959
 2664TIP3    H129407   3.826   2.204   1.031 -0.1050 -0.1537 -0.7206
 2664TIP3    H229408   3.931   2.096   1.048 -1.4538 -1.1735  1.5092
 2665TIP3   OH229409   0.727   2.240   1.557 -0.0768 -0.0815  0.5125
 2665TIP3    H129410   0.801   2.191   1.520 -0.9398 -1.3452  0.4014
 2665TIP3    H229411   0.762   2.327   1.573  1.4889 -0.6977  0.6173
 2666TIP3   OH229412   1.216   3.557   4.269 -0.0447  0.1787  0.0482
 2666TIP3    H129413   1.293   3.562   4.211  0.0090 -0.3834  0.0704
 2666TIP3    H229414   1.212   3.644   4.309 -0.2568  0.6883 -1.0192
 2667TIP3   OH229415   2.566   3.536  12.070 -0.0812 -0.1790  0.1068
 2667TIP3    H129416   2.595   3.479  12.141  0.9665  0.4875  0.2217
 2667TIP3    H229417   2.491   3.490  12.032  0.5126 -1.4537  0.4348
 2668TIP3   OH229418   0.773   3.928   2.254  0.3629 -0.4844  0.0269
 2668TIP3    H129419   0.733   3.853   2.211  0.6478  0.6853 -2.4717
 2668TIP3    H229420   0.839   3.959   2.192  0.6524  1.4710  1.2241
 2669TIP3   OH229421   4.929   2.619  16.858 -0.1176  0.0180 -0.1175
 2669TIP3    H129422   4.896   2.530  16.872 -0.0369 -0.3654 -2.0332
 2669TIP3    H229423   4.973   2.642  16.940 -0.2650 -1.6477  0.4653
 2670TIP3   OH229424   0.560   3.924   3.816 -0.2994  0.0467 -0.1335
 2670TIP3    H129425   0.635   3.958   3.864 -1.1331  2.2747 -0.3196
 2670TIP3    H229426   0.569   3.829   3.823  2.6291  0.2266 -0.3386
 2671TIP3   OH229427   0.557   1.530  14.328  0.0881  0.0933  0.0134
 2671TIP3    H129428   0.527   1.582  14.403  1.3248  0.9995 -0.0817
 2671TIP3    H229429   0.564   1.594  14.257 -0.0423 -0.5517 -0.5848
 2672TIP3   OH229430   2.809   6.707  11.342 -0.0476 -0.0395  0.2286
 2672TIP3    H129431   2.723   6.747  11.328 -0.3877 -1.0059 -0.5293
 2672TIP3    H229432   2.796   6.647  11.415 -0.5285 -1.5981 -1.0831
 2673TIP3   OH229433   2.126   1.658   0.171 -0.3435  0.5954 -0.0067
 2673TIP3    H129434   2.059   1.593   0.188  0.8279 -0.3823  1.0531
 2673TIP3    H229435   2.108   1.729   0.233 -1.3512  1.1226 -0.8612
 2674TIP3   OH229436   3.420   0.273   1.410  0.0001  0.6393  0.1244
 2674TIP3    H129437   3.444   0.267   1.503  1.2629  1.4733 -0.1243
 2674TIP3    H229438   3.438   0.186   1.375  1.9585  1.0005  0.1396
 2675TIP3   OH229439   4.503   4.641   4.828 -0.4577  0.4101  0.0975
 2675TIP3    H129440   4.550   4.616   4.748  1.2814 -2.7744  1.9346
 2675TIP3    H229441   4.569   4.686   4.881 -1.0462  0.7299  0.5693
 2676TIP3   OH229442   5.159   2.263   1.883 -0.2405  0.0004 -0.0455
 2676TIP3    H129443   5.223   2.203   1.922  0.6672  1.7855  1.3527
 2676TIP3    H229444   5.119   2.308   1.958 -0.5605  1.4605 -1.0470
 2677TIP3   OH229445   3.615   6.318  17.090  0.0942 -0.1839 -0.1448
 2677TIP3    H129446   3.625   6.239  17.143  0.2923 -0.6742 -0.9057
 2677TIP3    H229447   3.538   6.362  17.128  0.2411 -0.5137  0.5583
 2678TIP3   OH229448   4.421   2.201  10.582 -0.2706 -0.1392 -0.4251
 2678TIP3    H129449   4.390   2.291  10.569 -1.8501 -0.5146  0.4634
 2678TIP3    H229450   4.507   2.212  10.622 -1.3369  1.0571  1.7469
 2679TIP3   OH229451   3.384   4.658  14.460 -0.0597  0.0334  0.5584
 2679TIP3    H129452   3.339   4.579  14.491 -0.6642 -0.1048 -0.6102
 2679TIP3    H229453   3.461   4.665  14.516  0.5098 -1.9186  0.1240
 2680TIP3   OH229454   4.889   6.369   2.283 -0.2794 -0.3546  0.8484
 2680TIP3    H129455   4.937   6.409   2.355  1.4499  0.1221 -0.5014
 2680TIP3    H229456   4.896   6.432   2.211  0.1361 -1.8259 -0.4779
 2681TIP3   OH229457   4.331   5.061   6.013 -0.1074  0.1374 -0.4202
 2681TIP3    H129458   4.314   5.148   5.979  0.7132  0.3023 -0.4245
 2681TIP3    H229459   4.396   5.074   6.082 -0.2239 -0.4318 -0.1964
 2682TIP3   OH229460   5.474   5.798  13.534  0.6661  0.3303 -0.2635
 2682TIP3    H129461   5.457   5.888  13.504 -1.0189  0.6029  1.3144
 2682TIP3    H229462   5.413   5.744  13.485  0.5070  0.2709  0.0000
 2683TIP3   OH229463   5.326   6.736  10.361  0.0389  0.1958 -0.1240
 2683TIP3    H129464   5.291   6.754  10.448 -0.3345  0.9683 -0.4281
 2683TIP3    H229465   5.250   6.716  10.307  0.2011  0.3882 -0.4304
 2684TIP3   OH229466   1.875   2.882   2.369  0.2053  0.2133  0.3760
 2684TIP3    H129467   1.841   2.833   2.444 -2.0156 -0.9387 -1.2570
 2684TIP3    H229468   1.891   2.815   2.302  1.9195  1.2370 -0.3112
 2685TIP3   OH229469   6.338   6.422  11.245  0.7034  0.0359  0.6864
 2685TIP3    H129470   6.409   6.359  11.243  0.0997 -0.7678  2.3453
 2685TIP3    H229471   6.261   6.374  11.215 -0.3107 -0.9300  4.2950
 2686TIP3   OH229472   3.496   1.963  11.915 -0.2572  0.1628  0.1539
 2686TIP3    H129473   3.563   1.927  11.857  0.6617  0.4777  0.9880
 2686TIP3    H229474   3.497   1.905  11.991  1.8442  2.3019  1.9045
 2687TIP3   OH229475   4.187   6.191  13.882  0.2078  0.3226  0.0161
 2687TIP3    H129476   4.224   6.218  13.966  1.5645 -2.0360  0.2704
 2687TIP3    H229477   4.095   6.171  13.902  0.3988  0.2203  0.8282
 2688TIP3   OH229478   1.370   5.637  13.460 -0.1256 -0.5006 -0.0224
 2688TIP3    H129479   1.455   5.619  13.420 -0.1347 -1.4984  0.3832
 2688TIP3    H229480   1.329   5.551  13.468  0.5166 -0.6311  3.5554
 2689TIP3   OH229481   0.847   1.176  12.283 -0.2042 -0.8286  0.4098
 2689TIP3    H129482   0.753   1.155  12.281  0.1567 -2.6415  0.1151
 2689TIP3    H229483   0.865   1.210  12.195 -0.8819  1.1425  0.9969
 2690TIP3   OH229484   3.694   2.059   1.378  0.2880  0.2908 -0.2926
 2690TIP3    H129485   3.760   1.998   1.346 -0.4795 -0.2454 -0.8964
 2690TIP3    H229486   3.709   2.064   1.473 -1.1977 -2.8387  0.2425
 2691TIP3   OH229487   4.089   2.588   5.218 -0.3217 -0.9311 -0.5793
 2691TIP3    H129488   4.136   2.613   5.297 -1.5201  0.3484 -0.2402
 2691TIP3    H229489   3.997   2.603   5.238 -0.6105 -0.0770 -2.3804
 2692TIP3   OH229490   1.928   1.763  12.756 -0.0591 -0.4077 -0.4383
 2692TIP3    H129491   1.985   1.836  12.781  0.7414 -1.1923  0.1080
 2692TIP3    H229492   1.947   1.695  12.821 -1.0092 -0.9913 -0.7605
 2693TIP3   OH229493   2.761   4.928  14.209 -0.3302  0.0370  0.0178
 2693TIP3    H129494   2.825   4.921  14.279 -0.6318 -1.4305  0.1645
 2693TIP3    H229495   2.678   4.948  14.254 -0.2838  0.3979 -0.0481
 2694TIP3   OH229496   3.379   6.092   4.241  0.7363 -0.1418 -0.1408
 2694TIP3    H129497   3.407   6.130   4.158  1.0960 -0.1570 -0.0311
 2694TIP3    H229498   3.431   6.012   4.249  2.1676  0.8351  1.0045
 2695TIP3   OH229499   0.922   2.136  15.798 -0.2848 -0.6298 -0.1015
 2695TIP3    H129500   0.912   2.226  15.828  2.6714 -0.2339  0.0661
 2695TIP3    H229501   0.912   2.083  15.878 -0.5214 -0.2970  0.0900
 2696TIP3   OH229502   1.218   4.348  11.711  0.3950  0.0869 -0.2091
 2696TIP3    H129503   1.285   4.282  11.726  0.3495 -0.0182 -0.4649
 2696TIP3    H229504   1.159   4.341  11.786  0.7841  0.3209  0.1254
 2697TIP3   OH229505   3.528   6.111   3.064 -0.8241 -0.0593  0.1682
 2697TIP3    H129506   3.611   6.136   3.104 -0.5154 -0.7334 -0.0353
 2697TIP3    H229507   3.482   6.194   3.051 -0.2292  0.3120  0.3716
 2698TIP3   OH229508   1.272   6.247   0.933  0.9921  0.0304  0.1347
 2698TIP3    H129509   1.238   6.237   1.022  2.6083  2.7946  1.1852
 2698TIP3    H229510   1.201   6.215   0.877 -0.5085 -0.8016  2.3583
 2699TIP3   OH229511   1.697   4.976   5.227  0.0509  0.5282 -0.2488
 2699TIP3    H129512   1.667   5.067   5.221  1.4703  1.0630  0.4186
 2699TIP3    H229513   1.785   4.982   5.263  2.0764 -0.7612 -4.3298
 2700TIP3   OH229514   0.572   2.853  10.986  0.0333  0.7872 -0.2396
 2700TIP3    H129515   0.535   2.810  11.063 -0.0346  0.8007 -0.2650
 2700TIP3    H229516   0.502   2.909  10.953  0.0886  0.8422 -0.2648
 2701TIP3   OH229517   3.631   1.332  17.113 -0.5354  0.1370 -0.0446
 2701TIP3    H129518   3.637   1.325  17.018 -1.2195 -2.4656  0.0305
 2701TIP3    H229519   3.617   1.242  17.143 -0.6852  0.9300  2.5052
 2702TIP3   OH229520   3.622   3.511   1.324 -0.4867  0.4967  0.2290
 2702TIP3    H129521   3.550   3.539   1.381 -1.0425 -1.1205  0.3657
 2702TIP3    H229522   3.659   3.434   1.368  0.7773  0.7793 -0.2931
 2703TIP3   OH229523   3.245   1.773   5.012  0.1410 -0.9426  0.6934
 2703TIP3    H129524   3.323   1.723   4.989  0.2562 -0.8468  0.8686
 2703TIP3    H229525   3.192   1.713   5.064  0.8121 -0.5326  1.8975
 2704TIP3   OH229526   6.347   0.200   2.341  0.5783  0.1640 -0.1500
 2704TIP3    H129527   6.403   0.271   2.371  2.1779 -0.3451 -1.7464
 2704TIP3    H229528   6.388   0.171   2.259 -1.7187 -0.6202 -1.0911
 2705TIP3   OH229529   0.797   3.328   4.646 -0.2960 -0.1270  0.0766
 2705TIP3    H129530   0.872   3.373   4.684  0.3953 -1.1315 -0.0667
 2705TIP3    H229531   0.759   3.393   4.586 -0.2301  0.7771  0.9745
 2706TIP3   OH229532   3.708   4.391   2.190  0.4823  0.2938 -0.4708
 2706TIP3    H129533   3.654   4.423   2.262  0.7328 -0.7166  0.1776
 2706TIP3    H229534   3.648   4.385   2.115  0.1877  1.1883 -0.3182
 2707TIP3   OH229535   2.674   3.363  10.565  0.1740 -0.3066  0.2233
 2707TIP3    H129536   2.611   3.417  10.518  0.7832 -0.5672 -0.9430
 2707TIP3    H229537   2.655   3.377  10.657 -0.5705  0.8142 -0.0895
 2708TIP3   OH229538   6.231   1.473  11.432 -0.1728  0.0516  0.4206
 2708TIP3    H129539   6.305   1.425  11.470 -1.6958 -2.5856  0.3526
 2708TIP3    H229540   6.160   1.461  11.495 -1.5197 -0.6755 -1.1524
 2709TIP3   OH229541   6.004   1.649   0.881  0.2750 -0.1792  0.5186
 2709TIP3    H129542   6.049   1.727   0.912 -0.5121  0.6246 -0.3187
 2709TIP3    H229543   5.913   1.677   0.868 -0.2149 -1.4533  1.0055
 2710TIP3   OH229544   3.409   0.693  12.561  0.2806 -0.3018 -0.1198
 2710TIP3    H129545   3.413   0.715  12.654 -0.5598 -1.5391  0.2312
 2710TIP3    H229546   3.435   0.774  12.516 -0.7749  0.7935  1.1420
 2711TIP3   OH229547   1.606   2.240   3.503 -0.2523 -0.2629  0.0451
 2711TIP3    H129548   1.669   2.168   3.501 -1.4325 -1.3487 -1.6454
 2711TIP3    H229549   1.534   2.210   3.447 -1.3556  1.7449  0.2808
 2712TIP3   OH229550   2.960   2.792  16.487  0.2376  0.2214  0.8153
 2712TIP3    H129551   2.887   2.730  16.486 -0.0178  0.4946 -0.6418
 2712TIP3    H229552   2.941   2.851  16.560  0.6643 -1.5761  2.4644
 2713TIP3   OH229553   0.957   3.653   3.818 -1.0492  0.5029  0.0244
 2713TIP3    H129554   1.021   3.660   3.888  0.5537  1.2044 -1.4432
 2713TIP3    H229555   0.996   3.592   3.755 -2.2990  0.1223 -0.4160
 2714TIP3   OH229556   3.241   3.715   3.010  0.8080 -0.1489  0.2185
 2714TIP3    H129557   3.244   3.810   3.007 -0.2005 -0.1234 -0.7768
 2714TIP3    H229558   3.332   3.687   2.996  0.9940  0.6562 -0.2327
 2715TIP3   OH229559   6.326   0.129   4.251 -0.0278  0.2154  0.5307
 2715TIP3    H129560   6.300   0.043   4.219 -0.1346  0.5270 -0.2390
 2715TIP3    H229561   6.334   0.118   4.346  0.1429 -0.6858  0.4198
 2716TIP3   OH229562   1.167   5.156  16.933 -0.6480  0.0320 -0.6132
 2716TIP3    H129563   1.080   5.132  16.964 -0.9531  0.8455 -0.8067
 2716TIP3    H229564   1.174   5.117  16.846  0.8150 -3.6316  0.9515
 2717TIP3   OH229565   3.061   1.242  16.343 -0.2343 -0.3790  0.4928
 2717TIP3    H129566   3.096   1.155  16.323 -0.0759 -0.3402  0.6028
 2717TIP3    H229567   2.988   1.253  16.282  1.9098  0.8875 -2.0543
 2718TIP3   OH229568   6.160   0.963   1.519  0.4241  0.2563  0.0965
 2718TIP3    H129569   6.172   1.057   1.503  2.2731  0.3125  1.5076
 2718TIP3    H229570   6.184   0.951   1.611 -0.5951 -1.4896  0.1810
 2719TIP3   OH229571   4.516   3.985   3.745 -0.3408  0.8377  0.3069
 2719TIP3    H129572   4.507   4.069   3.790 -0.5740  0.5631  0.7741
 2719TIP3    H229573   4.435   3.975   3.696  0.8704  2.3023 -2.2073
 2720TIP3   OH229574   0.034   2.290  11.239 -0.0014 -0.6547 -0.3318
 2720TIP3    H129575   0.085   2.326  11.167  0.4790 -0.9109 -0.1252
 2720TIP3    H229576  -0.031   2.234  11.197 -1.1174  0.8705 -0.6920
 2721TIP3   OH229577   5.441   0.491   3.696  0.0811  0.1506 -0.3532
 2721TIP3    H129578   5.494   0.411   3.692 -2.1344 -1.5692  1.9683
 2721TIP3    H229579   5.495   0.552   3.745  0.5944 -1.0133  0.5855
 2722TIP3   OH229580   3.783   1.266   4.190  0.1055  0.2070  0.0789
 2722TIP3    H129581   3.779   1.271   4.286 -0.2283 -1.0409  0.1588
 2722TIP3    H229582   3.877   1.258   4.171  0.0941 -0.9348  0.4180
 2723TIP3   OH229583   5.874   2.040  12.159  0.2088 -0.2451 -0.2792
 2723TIP3    H129584   5.834   2.110  12.108 -0.9972 -0.4585  0.3491
 2723TIP3    H229585   5.806   2.012  12.220  0.1270 -2.9183 -1.4454
 2724TIP3   OH229586   6.681   1.449  16.833  0.3491 -0.1567  0.2844
 2724TIP3    H129587   6.608   1.387  16.841  0.4114 -0.4759 -1.2217
 2724TIP3    H229588   6.759   1.395  16.844  0.3804  0.0313  1.0225
 2725TIP3   OH229589   4.362   5.949   1.086 -0.3473  0.0686  0.5974
 2725TIP3    H129590   4.448   5.924   1.120 -0.3005  0.2172  0.5874
 2725TIP3    H229591   4.302   5.885   1.124 -0.0234 -1.0239 -0.6639
 2726TIP3   OH229592   0.399   4.918   0.130  0.2026  0.0287  0.0450
 2726TIP3    H129593   0.367   4.990   0.184  3.2766  1.7825 -0.2126
 2726TIP3    H229594   0.407   4.844   0.190  0.6738  1.0619  1.2850
 2727TIP3   OH229595   4.029   1.472  11.857  0.0075 -0.0320  0.1201
 2727TIP3    H129596   4.070   1.456  11.772  2.3269  3.8244  0.2429
 2727TIP3    H229597   4.102   1.474  11.919 -1.3887 -0.6680  1.8707
 2728TIP3   OH229598   2.220   5.672   1.185 -0.2032 -0.3670  0.3072
 2728TIP3    H129599   2.164   5.656   1.109  1.0922  0.0313 -0.7645
 2728TIP3    H229600   2.295   5.615   1.172  1.0739  1.2764  0.1240
 2729TIP3   OH229601   4.890   6.763  14.481 -0.4703 -0.4290  0.0792
 2729TIP3    H129602   4.974   6.731  14.448 -0.4548  0.6115 -0.9548
 2729TIP3    H229603   4.913   6.831  14.544 -0.5234 -1.1049  0.8301
 2730TIP3   OH229604   0.293   5.650   1.098  0.1418  0.8490  0.1264
 2730TIP3    H129605   0.304   5.574   1.040 -0.5284  1.6765 -1.1382
 2730TIP3    H229606   0.378   5.661   1.140 -0.1269 -1.4431  1.4548
 2731TIP3   OH229607   6.437   2.541   5.751 -0.2070 -0.5734 -0.3055
 2731TIP3    H129608   6.406   2.462   5.795  0.4439 -0.1328  1.0185
 2731TIP3    H229609   6.387   2.612   5.791 -0.4421 -0.2637 -1.1394
 2732TIP3   OH229610   1.002   2.060  16.622 -0.6225 -0.2165  0.5211
 2732TIP3    H129611   0.926   2.023  16.667 -0.3510 -3.3750 -1.3597
 2732TIP3    H229612   0.975   2.067  16.531  0.9502 -0.2755  0.0205
 2733TIP3   OH229613   0.711   2.462  13.799 -0.1681  0.3498 -0.0471
 2733TIP3    H129614   0.806   2.470  13.784 -0.1324  0.5230  0.2743
 2733TIP3    H229615   0.703   2.390  13.861 -0.0551  2.0530  2.0420
 2734TIP3   OH229616   3.146   4.086   4.894  0.0270 -0.1928 -0.1978
 2734TIP3    H129617   3.161   3.999   4.932 -1.2800  0.2893  1.5670
 2734TIP3    H229618   3.073   4.073   4.833  0.2966 -0.4542 -0.4689
 2735TIP3   OH229619   6.366   0.359   2.751  0.2916  0.2546  0.2141
 2735TIP3    H129620   6.354   0.281   2.696  1.7196 -1.3025  1.9696
 2735TIP3    H229621   6.286   0.363   2.804 -0.1261  0.4491 -0.4283
 2736TIP3   OH229622   0.711   3.603   1.731  0.3097 -0.2801  0.3869
 2736TIP3    H129623   0.617   3.594   1.746 -0.0748  2.1708 -0.0612
 2736TIP3    H229624   0.752   3.544   1.794 -1.5064 -0.2835  1.6207
 2737TIP3   OH229625   1.665   3.845   5.096  0.2214 -0.2489 -0.0461
 2737TIP3    H129626   1.671   3.761   5.050  0.4377 -0.6675  0.7255
 2737TIP3    H229627   1.657   3.821   5.189  1.5081  0.5968  0.3055
 2738TIP3   OH229628   5.984   2.021  16.573  0.3445 -0.1668 -0.0858
 2738TIP3    H129629   5.930   2.048  16.647  0.7106 -1.2815  0.6060
 2738TIP3    H229630   5.928   2.035  16.497 -0.5613 -0.3603  0.5303
 2739TIP3   OH229631   4.981   0.937   2.664  0.4123  0.2402 -0.1974
 2739TIP3    H129632   4.973   0.880   2.740 -0.4395  1.4385  0.6561
 2739TIP3    H229633   5.073   0.930   2.638  1.0977  0.9102  1.8621
 2740TIP3   OH229634   3.342   6.316   3.642 -0.0654 -0.3264  0.1498
 2740TIP3    H129635   3.391   6.346   3.719  0.6330 -0.0265 -0.3880
 2740TIP3    H229636   3.410   6.289   3.580 -0.6176 -0.6202 -0.3382
 2741TIP3   OH229637   4.164   0.315  17.083  0.3245 -0.4650  0.7537
 2741TIP3    H129638   4.237   0.274  17.130  0.6948  0.3308  0.8913
 2741TIP3    H229639   4.111   0.357  17.151 -0.3193 -1.1152  0.6618
 2742TIP3   OH229640   1.743   4.896   5.886  0.0968 -0.1737 -0.3418
 2742TIP3    H129641   1.732   4.932   5.974 -0.9768 -1.3269  0.0405
 2742TIP3    H229642   1.827   4.850   5.889  0.1931  0.0183  0.0073
 2743TIP3   OH229643   2.781   0.413  10.912 -0.5274  0.0269 -0.3054
 2743TIP3    H129644   2.771   0.426  11.007  2.6425 -2.1409  0.5131
 2743TIP3    H229645   2.819   0.495  10.880  0.9495 -0.1264  0.9089
 2744TIP3   OH229646   3.646   0.507  16.336  0.0098  0.0827  0.0104
 2744TIP3    H129647   3.726   0.473  16.377  0.5930 -0.5724 -1.5752
 2744TIP3    H229648   3.576   0.452  16.371  0.7411 -1.7891 -1.2934
 2745TIP3   OH229649   2.102   3.480   5.480  0.1141  0.3447 -0.3826
 2745TIP3    H129650   2.113   3.517   5.392  2.6578  0.0788 -0.2455
 2745TIP3    H229651   2.038   3.411   5.470  0.8070 -0.0744 -2.1721
 2746TIP3   OH229652   5.159   0.745   2.445 -0.1021  0.2067 -0.3828
 2746TIP3    H129653   5.079   0.733   2.395  0.1676 -1.7405 -0.4391
 2746TIP3    H229654   5.171   0.840   2.450 -1.0623  0.4814 -2.4943
 2747TIP3   OH229655   0.733   0.867  14.887  0.4498 -0.1477  0.8513
 2747TIP3    H129656   0.685   0.827  14.960  0.8825 -2.6136 -0.1056
 2747TIP3    H229657   0.825   0.852  14.907  0.6064 -0.0268  0.2397
 2748TIP3   OH229658   0.367   6.065   3.097 -0.0015 -0.4201 -0.1718
 2748TIP3    H129659   0.303   6.001   3.066 -1.0625  0.5483 -0.0585
 2748TIP3    H229660   0.425   6.079   3.022  0.2773 -1.5346 -0.1762
 2749TIP3   OH229661   2.077   1.160  11.620 -0.3514  0.2810  0.0097
 2749TIP3    H129662   2.162   1.139  11.658 -0.0460 -1.0292 -1.3104
 2749TIP3    H229663   2.055   1.247  11.656  1.4571  0.5726  0.4899
 2750TIP3   OH229664   6.448   1.948  15.739  0.1227  0.7310  0.0220
 2750TIP3    H129665   6.531   1.992  15.720  0.9603 -1.1516 -0.9461
 2750TIP3    H229666   6.422   1.908  15.656  1.4362 -3.7549  1.4789
 2751TIP3   OH229667   2.600   6.480  14.982 -0.1435 -0.0490  0.0591
 2751TIP3    H129668   2.609   6.526  14.898  2.0934  1.6233  1.0890
 2751TIP3    H229669   2.688   6.445  14.999 -0.8774 -1.4807  1.1368
 2752TIP3   OH229670   2.374   1.324   4.001  0.5758  0.2116  0.0708
 2752TIP3    H129671   2.409   1.319   4.090 -0.3480  0.6721  0.4736
 2752TIP3    H229672   2.279   1.317   4.012  0.3163  1.8818 -0.7082
 2753TIP3   OH229673   1.952   0.834   1.228 -0.2811 -0.5178 -0.1181
 2753TIP3    H129674   1.987   0.793   1.307  1.3624 -2.4347 -1.7329
 2753TIP3    H229675   1.898   0.766   1.187 -1.5321  0.6139 -0.4199
 2754TIP3   OH229676   2.795   5.300   2.685  0.2104  0.4896 -0.0244
 2754TIP3    H129677   2.723   5.266   2.631  0.9789  0.4568 -1.0530
 2754TIP3    H229678   2.780   5.395   2.687  0.2584  0.5110 -0.4370
 2755TIP3   OH229679   5.661   4.499   4.756  0.2725  0.1237  0.4221
 2755TIP3    H129680   5.663   4.581   4.706  0.9866 -0.2909 -0.2456
 2755TIP3    H229681   5.702   4.521   4.840  0.4568  0.4512  0.2490
 2756TIP3   OH229682   6.473   2.349  16.588 -0.0226  0.4616  0.3641
 2756TIP3    H129683   6.384   2.381  16.604 -0.3706 -0.0470 -0.4682
 2756TIP3    H229684   6.508   2.407  16.520  0.1485  0.4347  0.4279
 2757TIP3   OH229685   3.253   3.033  16.474 -0.0480  0.2328  0.2688
 2757TIP3    H129686   3.249   2.945  16.435  1.1674  0.1911  0.1910
 2757TIP3    H229687   3.226   3.092  16.403  1.7614  0.1207 -0.5848
 2758TIP3   OH229688   1.492   5.105   3.290  0.4345  0.3122 -0.1190
 2758TIP3    H129689   1.460   5.026   3.335  0.1928  0.5369  0.1026
 2758TIP3    H229690   1.526   5.072   3.207  0.2079 -0.0098 -0.0877
 2759TIP3   OH229691   3.864   2.659   6.124  0.3659 -1.4047 -0.0646
 2759TIP3    H129692   3.863   2.740   6.174  0.3613 -1.8872  0.7371
 2759TIP3    H229693   3.893   2.592   6.186 -0.4221 -2.1605 -0.4786
 2760TIP3   OH229694   1.055   0.614   1.817  0.8107  0.2364  0.2326
 2760TIP3    H129695   1.084   0.676   1.750 -1.0965 -0.1718 -1.0446
 2760TIP3    H229696   1.104   0.639   1.895  0.0614  3.4442 -0.1832
 2761TIP3   OH229697   2.879   0.769  16.701  0.3143 -0.3854 -0.3708
 2761TIP3    H129698   2.806   0.741  16.756  2.3453 -1.9493  1.7504
 2761TIP3    H229699   2.877   0.864  16.705 -0.4133 -0.4264  1.4270
 2762TIP3   OH229700   6.275   5.400   3.375 -0.2303 -0.9035 -0.1495
 2762TIP3    H129701   6.364   5.369   3.358  0.1730 -0.0784  0.4212
 2762TIP3    H229702   6.221   5.353   3.311  0.9792  0.7076 -2.5070
 2763TIP3   OH229703   2.368   0.173   0.618  0.5335  0.4400  0.0159
 2763TIP3    H129704   2.428   0.163   0.691  0.5921  1.9514  0.2047
 2763TIP3    H229705   2.293   0.117   0.641  1.3049 -0.4877  0.3550
 2764TIP3   OH229706   5.451   0.531  13.306 -0.2969 -0.0577  0.3421
 2764TIP3    H129707   5.366   0.513  13.346 -0.5516  0.8535  0.2195
 2764TIP3    H229708   5.498   0.448  13.311 -1.5112 -0.8132 -0.3967
 2765TIP3   OH229709   5.154   6.787   3.816 -0.6694 -0.0831 -0.1041
 2765TIP3    H129710   5.092   6.861   3.815 -0.1862  0.3480  0.6523
 2765TIP3    H229711   5.180   6.780   3.908 -1.1545 -1.5844 -0.0636
 2766TIP3   OH229712   5.937   6.285   2.855 -0.1508 -0.1128 -0.0524
 2766TIP3    H129713   5.879   6.212   2.878  0.8892  0.0509  3.7777
 2766TIP3    H229714   6.024   6.246   2.848 -0.0803  0.2704 -1.5572
 2767TIP3   OH229715   1.525   6.113  11.311  0.0334 -0.5550 -0.0535
 2767TIP3    H129716   1.511   6.124  11.217  1.1470 -0.4823 -0.2254
 2767TIP3    H229717   1.578   6.188  11.336 -0.0642 -0.6973  0.5911
 2768TIP3   OH229718   4.888   0.660  11.052 -0.3814 -0.5867 -0.0406
 2768TIP3    H129719   4.837   0.727  11.097  0.8813  0.3831 -0.0221
 2768TIP3    H229720   4.854   0.662  10.962  0.8947  1.4522 -0.5484
 2769TIP3   OH229721   3.172   4.112   5.525  0.0790  0.2119 -0.1267
 2769TIP3    H129722   3.225   4.190   5.540  0.4935 -0.2443  0.8713
 2769TIP3    H229723   3.142   4.087   5.612  0.3798 -1.0445 -0.3733
 2770TIP3   OH229724   0.584   4.317   4.028 -0.1629 -0.5721  0.1688
 2770TIP3    H129725   0.632   4.360   4.098 -1.2197  1.2046 -0.1243
 2770TIP3    H229726   0.495   4.308   4.062  0.0447 -2.7680  0.2820
 2771TIP3   OH229727   2.194   4.016  13.954  0.4106  0.1607 -0.4717
 2771TIP3    H129728   2.142   4.078  13.902 -0.5931  1.2725  1.7342
 2771TIP3    H229729   2.129   3.970  14.007  1.2357 -2.1857 -1.3587
 2772TIP3   OH229730   3.089   1.792   3.601 -0.3351  0.1952 -0.0460
 2772TIP3    H129731   3.176   1.830   3.617 -0.7189  1.2970 -0.4721
 2772TIP3    H229732   3.040   1.863   3.559 -1.3909 -0.4721  0.0413
 2773TIP3   OH229733   2.085   5.817  11.842 -0.4015  0.4935  0.0191
 2773TIP3    H129734   2.130   5.782  11.765 -0.1199  1.0364 -0.0617
 2773TIP3    H229735   1.996   5.781  11.836  0.1956 -1.1621  0.5572
 2774TIP3   OH229736   2.183   3.047   5.517 -0.2794  0.3851  0.6449
 2774TIP3    H129737   2.120   3.046   5.589 -0.3438  1.6826  0.6213
 2774TIP3    H229738   2.208   3.139   5.507  0.9225  0.0169  0.0403
 2775TIP3   OH229739   0.467   0.462   6.696 -0.4729  0.3890  0.9259
 2775TIP3    H129740   0.480   0.380   6.648 -1.1436 -0.1776  1.6878
 2775TIP3    H229741   0.544   0.469   6.753 -0.2476  0.4729  0.6173
 2776TIP3   OH229742   3.137   5.468   6.080  0.0468 -0.1503 -0.4098
 2776TIP3    H129743   3.096   5.516   6.009  0.6709  0.4855 -0.3551
 2776TIP3    H229744   3.065   5.443   6.138 -0.7562 -2.5808 -2.3362
 2777TIP3   OH229745   0.237   2.293   1.791  0.0801 -0.0762  0.0128
 2777TIP3    H129746   0.223   2.273   1.699  1.5388 -3.4868  0.4075
 2777TIP3    H229747   0.332   2.302   1.800 -0.0276  0.0069  1.2268
 2778TIP3   OH229748   2.330   2.623   2.391  0.2249 -0.3603 -0.5707
 2778TIP3    H129749   2.269   2.630   2.464  1.5935 -0.7115  0.6323
 2778TIP3    H229750   2.296   2.685   2.326 -1.2039 -0.2939  0.1956
 2779TIP3   OH229751   2.370   5.236   2.303 -0.6041 -0.1893  0.0161
 2779TIP3    H129752   2.313   5.285   2.243 -0.5968 -0.8921 -0.5779
 2779TIP3    H229753   2.337   5.146   2.299  0.7718 -0.6819 -0.6188
 2780TIP3   OH229754   0.921   2.264  14.829 -1.0168  0.0622 -0.0693
 2780TIP3    H129755   0.979   2.335  14.802 -1.0894 -0.0999 -0.6499
 2780TIP3    H229756   0.977   2.207  14.881 -0.1480 -1.0763 -2.1421
 2781TIP3   OH229757   4.891   4.965  16.880 -0.1330  0.2457 -0.2380
 2781TIP3    H129758   4.836   5.043  16.882 -1.1381 -0.4318 -1.0551
 2781TIP3    H229759   4.942   4.973  16.799  0.0523  0.2358 -0.1245
 2782TIP3   OH229760   5.383   5.688  15.033 -0.2695  0.2686 -0.6338
 2782TIP3    H129761   5.435   5.719  14.959  1.4084  1.4761  0.9600
 2782TIP3    H229762   5.438   5.705  15.110 -1.7510 -1.3294  0.8727
 2783TIP3   OH229763   1.024   3.068  13.667 -0.4342  0.3925 -0.0328
 2783TIP3    H129764   0.950   3.109  13.711  0.7019  2.0995  0.4221
 2783TIP3    H229765   1.101   3.109  13.707  0.8642 -2.5550  0.7588
 2784TIP3   OH229766   6.441   3.662  16.801  0.1554  0.4947  0.1898
 2784TIP3    H129767   6.459   3.724  16.730 -0.4690 -1.0575 -1.3846
 2784TIP3    H229768   6.368   3.701  16.850 -0.9278  0.5411 -1.4063
 2785TIP3   OH229769   5.313   1.716  14.706  0.0053  0.8379  0.7671
 2785TIP3    H129770   5.405   1.737  14.725  0.5194 -0.1687 -0.4847
 2785TIP3    H229771   5.314   1.624  14.683 -0.9273  1.3383 -1.5293
 2786TIP3   OH229772   0.898   0.329  15.485 -0.0079  0.7323  0.3481
 2786TIP3    H129773   0.825   0.333  15.547  0.3530 -1.2554  0.9753
 2786TIP3    H229774   0.975   0.348  15.538  0.0311  1.9153 -0.1199
 2787TIP3   OH229775   0.432   2.890   2.492 -0.2847 -0.3655  0.0981
 2787TIP3    H129776   0.395   2.836   2.561 -1.0167 -1.2580 -0.9717
 2787TIP3    H229777   0.371   2.882   2.419 -1.1321  2.9367  0.2786
 2788TIP3   OH229778   0.664   0.383  15.617 -0.0152  0.0990 -0.4890
 2788TIP3    H129779   0.622   0.386  15.704 -2.6491 -3.5205 -1.3880
 2788TIP3    H229780   0.605   0.433  15.560  0.4288  0.4620 -0.6336
 2789TIP3   OH229781   1.998   6.603   5.454 -0.1541  0.4241  0.4379
 2789TIP3    H129782   1.916   6.628   5.411 -0.2833 -0.4502  0.1544
 2789TIP3    H229783   2.027   6.682   5.498 -0.7632  0.9481 -0.0867
 2790TIP3   OH229784   5.865   1.035  15.782 -0.5593  0.2246  0.3982
 2790TIP3    H129785   5.806   0.975  15.737  1.6733 -0.8776 -1.2367
 2790TIP3    H229786   5.897   0.986  15.858 -0.8885  0.4041  0.6539
 2791TIP3   OH229787   2.460   4.285   3.818  0.0152 -0.2517  0.0995
 2791TIP3    H129788   2.462   4.379   3.838  0.2207  0.4944 -2.8827
 2791TIP3    H229789   2.550   4.264   3.792 -0.1773 -1.1107  0.1029
 2792TIP3   OH229790   0.846   5.406  14.372 -0.4887  0.5986  0.4706
 2792TIP3    H129791   0.864   5.499  14.389 -1.6926  1.2637 -1.5132
 2792TIP3    H229792   0.932   5.366  14.362  0.1197  2.3005 -2.2684
 2793TIP3   OH229793   5.436   0.532  10.391 -0.1007  0.4011  0.0312
 2793TIP3    H129794   5.346   0.502  10.380  0.2165 -0.8165  0.6006
 2793TIP3    H229795   5.440   0.562  10.482  0.3949 -0.7520  0.3995
 2794TIP3   OH229796   4.527   0.765  16.638 -0.1180 -0.0716 -0.1659
 2794TIP3    H129797   4.501   0.675  16.660 -0.0119 -0.0712 -0.0445
 2794TIP3    H229798   4.616   0.757  16.603  0.1037  0.0590  0.3703
 2795TIP3   OH229799   6.230   1.357   1.843  0.0242  0.0110 -0.5289
 2795TIP3    H129800   6.307   1.414   1.844  1.4119 -1.7024 -1.7492
 2795TIP3    H229801   6.157   1.414   1.866  1.4898  1.9707 -0.4690
 2796TIP3   OH229802   4.219   3.678  12.526 -0.0565 -0.3841 -0.0348
 2796TIP3    H129803   4.293   3.627  12.494 -0.0621 -0.9183  0.7984
 2796TIP3    H229804   4.151   3.665  12.460  1.1004  1.4643 -1.7044
 2797TIP3   OH229805   6.734   1.837   2.643 -0.4168 -0.1536 -0.2867
 2797TIP3    H129806   6.700   1.845   2.732 -1.4952  0.7562 -0.7589
 2797TIP3    H229807   6.697   1.913   2.597  0.2220 -0.5512 -1.4772
 2798TIP3   OH229808   5.411   4.198   1.785 -0.4454  0.1730  0.1297
 2798TIP3    H129809   5.433   4.280   1.741 -1.8991  1.8158  2.2572
 2798TIP3    H229810   5.318   4.205   1.805 -0.4128 -1.6292  1.1395
 2799TIP3   OH229811   2.737   1.727   5.789  0.3594  0.4768 -0.0370
 2799TIP3    H129812   2.786   1.691   5.863 -0.2275  1.6545  0.9586
 2799TIP3    H229813   2.694   1.805   5.825 -1.5180 -0.0224 -1.1113
 2800TIP3   OH229814   5.941   3.424  14.870 -0.0087  0.3667  0.1862
 2800TIP3    H129815   5.974   3.486  14.936 -0.9990  0.7703  0.3121
 2800TIP3    H229816   5.856   3.459  14.844 -0.9720 -1.3672  0.8549
 2801TIP3   OH229817   2.952   0.700   4.776 -0.6623  0.3988  0.1444
 2801TIP3    H129818   2.872   0.751   4.770 -1.5144 -1.0490 -1.5928
 2801TIP3    H229819   3.009   0.736   4.708 -0.6408  0.0675 -0.0133
 2802TIP3   OH229820   6.145   0.313  15.489 -0.4231 -0.3335 -0.2558
 2802TIP3    H129821   6.232   0.276  15.477  0.5228  1.9155 -0.7852
 2802TIP3    H229822   6.137   0.326  15.584 -0.1720 -0.5360 -0.2078
 2803TIP3   OH229823   0.767   4.537  14.990  0.0956 -0.1900  0.3487
 2803TIP3    H129824   0.847   4.573  15.027  0.5969 -1.6206  0.7221
 2803TIP3    H229825   0.720   4.500  15.065 -0.0288 -0.9702 -0.1032
 2804TIP3   OH229826   0.606   0.737   5.769 -0.2617  0.1871 -0.2266
 2804TIP3    H129827   0.592   0.691   5.852  0.4870  1.1451  0.4535
 2804TIP3    H229828   0.605   0.830   5.793  0.0095  0.4741 -1.2893
 2805TIP3   OH229829   5.177   5.791   3.484  0.0093 -0.7008  0.1548
 2805TIP3    H129830   5.119   5.834   3.421  2.1856  0.2844 -1.2763
 2805TIP3    H229831   5.192   5.704   3.447 -0.1620 -0.7856  0.2815
 2806TIP3   OH229832   0.032   3.971  11.289  0.1068  0.3233 -0.3216
 2806TIP3    H129833   0.019   3.901  11.354 -1.0904 -1.6171 -2.4681
 2806TIP3    H229834  -0.026   4.041  11.317 -1.8757 -1.2493 -0.2430
 2807TIP3   OH229835   5.528   1.390  15.100  0.4923  0.1820 -0.2220
 2807TIP3    H129836   5.524   1.295  15.088 -1.0594  0.0191  1.2465
 2807TIP3    H229837   5.479   1.407  15.181  1.8065  2.1176  0.2598
 2808TIP3   OH229838   2.557   0.876   5.522 -0.2026  0.4015 -0.7083
 2808TIP3    H129839   2.501   0.799   5.514 -0.5910  0.7315 -1.3451
 2808TIP3    H229840   2.627   0.850   5.581 -1.9479  0.5017  1.5810
 2809TIP3   OH229841   0.543   6.115   2.805 -0.3715 -0.3217  0.5713
 2809TIP3    H129842   0.484   6.081   2.738  0.2624  1.0479 -0.7374
 2809TIP3    H229843   0.622   6.140   2.757 -0.1626  1.3395  1.7089
 2810TIP3   OH229844   5.313   0.539   2.348  0.2795 -0.1887  0.4709
 2810TIP3    H129845   5.397   0.580   2.368  1.9436 -2.3170 -1.5585
 2810TIP3    H229846   5.248   0.609   2.360  2.3705  1.6897  1.5419
 2811TIP3   OH229847   0.807   1.414  15.480  0.1738  0.1996 -0.1067
 2811TIP3    H129848   0.877   1.374  15.429  0.5586 -0.4452  0.9029
 2811TIP3    H229849   0.726   1.383  15.439  0.3941 -2.9378  1.5150
 2812TIP3   OH229850   6.402   6.347  13.354  0.0921 -0.2088 -0.0529
 2812TIP3    H129851   6.308   6.336  13.340 -0.1351  0.4777  0.8487
 2812TIP3    H229852   6.411   6.435  13.392  0.9453 -0.7945  1.1913
 2813TIP3   OH229853   0.902   2.094   4.751  0.4096 -0.1198  0.0616
 2813TIP3    H129854   0.933   2.147   4.825 -1.9279  0.6039  0.6339
 2813TIP3    H229855   0.865   2.015   4.793 -1.2998  0.4800 -0.2307
 2814TIP3   OH229856   2.735   1.738   5.166 -0.1785 -0.1409  0.1355
 2814TIP3    H129857   2.783   1.770   5.243 -2.4498 -0.3375  1.7333
 2814TIP3    H229858   2.725   1.644   5.182 -0.1084 -0.2976 -0.7297
 2815TIP3   OH229859   3.363   0.810   0.111  0.2064 -0.2601  0.1197
 2815TIP3    H129860   3.317   0.725   0.108 -0.2988  0.0361 -1.4798
 2815TIP3    H229861   3.438   0.794   0.168 -0.6191 -1.4066  0.9404
 2816TIP3   OH229862   3.037   2.551  15.013 -0.5972 -0.8611  0.0906
 2816TIP3    H129863   3.064   2.640  15.035  1.5831 -1.1753 -0.9866
 2816TIP3    H229864   3.024   2.507  15.097  0.2268 -0.0554  0.6517
 2817TIP3   OH229865   6.749   4.688   6.408 -0.1257  0.1220 -0.0456
 2817TIP3    H129866   6.753   4.686   6.504  1.8362  0.4020 -0.0650
 2817TIP3    H229867   6.661   4.721   6.388 -1.2406 -1.6762  1.5934
 2818TIP3   OH229868   4.992   1.800  11.791 -0.0804  0.5508  0.0985
 2818TIP3    H129869   4.982   1.890  11.760 -0.4999  0.3778 -0.2909
 2818TIP3    H229870   5.047   1.807  11.868  0.5339  1.0550 -0.3746
 2819TIP3   OH229871   5.109   2.693  12.639 -0.3392  0.2649 -0.3795
 2819TIP3    H129872   5.073   2.626  12.581 -0.5061 -0.5111  0.5901
 2819TIP3    H229873   5.147   2.643  12.711 -0.4866  1.2274  0.3754
 2820TIP3   OH229874   1.958   6.322  11.286 -0.1064  0.3591 -0.0697
 2820TIP3    H129875   1.957   6.410  11.249  0.6519 -0.0995 -1.2771
 2820TIP3    H229876   2.005   6.330  11.369 -1.3591  1.3278  0.5715
 2821TIP3   OH229877   5.307   0.563   6.335  0.1280 -0.1388  0.5361
 2821TIP3    H129878   5.272   0.576   6.247 -0.1740 -1.6105  0.4111
 2821TIP3    H229879   5.229   0.555   6.391  0.2684 -1.2405  0.5999
 2822TIP3   OH229880   6.375   5.621   3.080 -0.7137  0.2568  0.3448
 2822TIP3    H129881   6.291   5.576   3.092 -1.1161  0.9934  0.3398
 2822TIP3    H229882   6.352   5.714   3.071 -0.0302  0.3329 -1.0434
 2823TIP3   OH229883   1.718   3.031   1.472  0.4588 -0.1567 -0.4530
 2823TIP3    H129884   1.736   2.937   1.474  0.0410 -0.2297  0.1099
 2823TIP3    H229885   1.755   3.064   1.553  2.4228  0.5308 -1.5467
 2824TIP3   OH229886   6.250   2.327  15.884 -0.2462 -0.0955 -0.1170
 2824TIP3    H129887   6.321   2.384  15.914  0.4968 -0.8936 -0.3145
 2824TIP3    H229888   6.229   2.272  15.960 -1.0127  0.4743  0.0979
 2825TIP3   OH229889   4.440   5.690  15.562  0.2544 -0.0848 -0.8280
 2825TIP3    H129890   4.400   5.650  15.640  0.5749  0.2639 -0.4748
 2825TIP3    H229891   4.393   5.772  15.550  1.2354  0.6299 -0.0372
 2826TIP3   OH229892   2.583   6.264  11.160  0.2655 -0.1755  0.0799
 2826TIP3    H129893   2.628   6.193  11.114 -0.6571 -0.4353 -0.4411
 2826TIP3    H229894   2.649   6.334  11.167  0.9225 -0.7673 -0.1420
 2827TIP3   OH229895   4.339   0.341  11.430  0.3750 -0.1598  1.0534
 2827TIP3    H129896   4.287   0.309  11.504 -1.3534 -1.0540 -0.4909
 2827TIP3    H229897   4.393   0.266  11.404 -0.5997 -0.5454  0.0825
 2828TIP3   OH229898   5.927   2.796  14.656 -0.3596 -0.0941 -0.0983
 2828TIP3    H129899   5.888   2.743  14.725  2.8645 -2.2643  0.2777
 2828TIP3    H229900   5.956   2.876  14.699  1.4710 -1.3555  1.1418
 2829TIP3   OH229901   3.024   0.399  14.009  0.0621 -0.3078  0.3727
 2829TIP3    H129902   3.108   0.353  14.005 -0.1118 -0.6391  0.4639
 2829TIP3    H229903   2.962   0.340  13.967 -0.2743 -0.4115  0.9973
 2830TIP3   OH229904   1.061   5.351  15.745 -0.4280 -0.5100  0.5201
 2830TIP3    H129905   1.059   5.264  15.783 -1.3091 -1.1467 -0.9285
 2830TIP3    H229906   0.993   5.351  15.679 -0.0640  1.1023  0.0884
 2831TIP3   OH229907   3.201   4.861   0.140 -0.2206  0.0107 -0.0680
 2831TIP3    H129908   3.111   4.829   0.137 -0.9948  2.0178  0.2831
 2831TIP3    H229909   3.202   4.936   0.080  1.2992 -0.1763 -0.3089
 2832TIP3   OH229910   4.162   3.842   1.860  0.0741 -0.6973  0.0982
 2832TIP3    H129911   4.080   3.889   1.844  1.1055  1.3430  0.4324
 2832TIP3    H229912   4.134   3.755   1.891 -1.9661  0.2142  1.0301
 2833TIP3   OH229913   2.441   5.664  16.140 -0.1205  0.1527  0.4590
 2833TIP3    H129914   2.419   5.713  16.061  0.8651  0.1064  0.1471
 2833TIP3    H229915   2.507   5.601  16.112  0.7905  0.6349  1.4545
 2834TIP3   OH229916   2.734   0.292  17.092  0.4285  0.0894 -0.5803
 2834TIP3    H129917   2.753   0.254  17.178 -0.9281  1.0079  0.1547
 2834TIP3    H229918   2.647   0.329  17.101  0.2067  0.0894 -2.4146
 2835TIP3   OH229919   5.012   2.193   4.849 -0.1338  0.2453  0.2639
 2835TIP3    H129920   4.991   2.212   4.941  0.7264 -0.1553  0.5538
 2835TIP3    H229921   4.929   2.204   4.803 -0.5887  0.3995  1.0971
 2836TIP3   OH229922   1.998   0.246   5.149  0.4896 -0.4451 -0.2587
 2836TIP3    H129923   2.033   0.334   5.136 -1.0135  0.0496 -1.1670
 2836TIP3    H229924   2.071   0.188   5.128  1.5657  0.5538  0.5294
 2837TIP3   OH229925   2.330   4.752  16.858 -0.0483  0.1207 -0.2489
 2837TIP3    H129926   2.280   4.802  16.793 -1.3217 -1.4788 -0.5770
 2837TIP3    H229927   2.281   4.670  16.867  1.7976 -0.9503  0.4583
 2838TIP3   OH229928   1.071   5.568   6.181  0.6322 -0.4350 -0.1836
 2838TIP3    H129929   1.025   5.636   6.231 -0.0912 -0.5871 -0.6326
 2838TIP3    H229930   1.143   5.615   6.138 -0.1545  0.1490 -0.8815
 2839TIP3   OH229931   4.342   5.269   3.176 -0.5392 -0.2643  0.8382
 2839TIP3    H129932   4.368   5.204   3.241  0.7015 -0.9385 -0.2738
 2839TIP3    H229933   4.379   5.351   3.208  3.5359 -1.2102 -0.7918
 2840TIP3   OH229934   1.557   3.086   2.028  0.0964  0.1280  0.1118
 2840TIP3    H129935   1.487   3.149   2.046  2.4618  2.9005  0.4649
 2840TIP3    H229936   1.542   3.014   2.089 -2.0435  0.9279  0.6150
 2841TIP3   OH229937   1.344   0.132  16.454 -0.0344 -0.0698 -0.1510
 2841TIP3    H129938   1.393   0.180  16.521  0.7514  0.2001 -0.9072
 2841TIP3    H229939   1.276   0.086  16.504 -1.4876  2.5911  0.4951
 2842TIP3   OH229940   4.227   6.049  14.814  0.1677 -0.4313  0.0906
 2842TIP3    H129941   4.298   6.100  14.774 -2.2337  2.3556 -1.0460
 2842TIP3    H229942   4.270   5.995  14.880  3.2157  1.6960  0.0520
 2843TIP3   OH229943   1.850   6.695  14.396 -0.0524 -0.6249  0.1637
 2843TIP3    H129944   1.884   6.681  14.484  2.1140 -4.4160 -1.0355
 2843TIP3    H229945   1.761   6.661  14.399 -0.3249  0.1475  1.0942
 2844TIP3   OH229946   2.009   3.092  14.056 -0.3547 -0.4587 -0.3090
 2844TIP3    H129947   2.035   3.009  14.095  2.6519 -0.0587 -1.2285
 2844TIP3    H229948   1.973   3.142  14.130  0.4890 -1.5238  0.8731
 2845TIP3   OH229949   1.846   3.444  12.131  0.2537 -0.1426 -0.4443
 2845TIP3    H129950   1.926   3.397  12.110  1.2060 -0.3226  2.9624
 2845TIP3    H229951   1.876   3.529  12.165 -1.2514  1.4093 -2.6969
 2846TIP3   OH229952   0.427   3.057  12.959  0.2928  0.1933 -0.3581
 2846TIP3    H129953   0.356   3.082  12.900 -0.7469 -0.6245  0.5052
 2846TIP3    H229954   0.501   3.039  12.901  0.0893  1.9483 -1.2192
 2847TIP3   OH229955   1.458   1.368  11.677 -0.1281  0.4495 -0.2298
 2847TIP3    H129956   1.543   1.361  11.635 -0.3993  1.2591 -0.9407
 2847TIP3    H229957   1.476   1.403  11.764  0.1289  2.3753 -1.0111
 2848TIP3   OH229958   1.279   4.124  12.157 -0.2357  0.2802 -0.5292
 2848TIP3    H129959   1.318   4.209  12.134 -0.6377  0.6380  0.0890
 2848TIP3    H229960   1.185   4.138  12.147 -0.5923  0.9663  2.8831
 2849TIP3   OH229961   3.366   5.505   1.263 -0.4156 -0.2569 -0.2199
 2849TIP3    H129962   3.304   5.445   1.305 -0.2508 -0.0725  0.2900
 2849TIP3    H229963   3.325   5.591   1.272  0.5799  0.0893  1.4468
 2850TIP3   OH229964   2.918   1.962  13.876 -0.0885 -0.0330  0.1060
 2850TIP3    H129965   2.961   2.046  13.894  0.0050 -0.3646  1.5648
 2850TIP3    H229966   2.828   1.975  13.906 -0.6147  0.1333 -1.4374
 2851TIP3   OH229967   4.870   5.981   5.415  0.3910 -0.0472  0.1057
 2851TIP3    H129968   4.900   5.962   5.504 -0.7420  0.9383  0.7419
 2851TIP3    H229969   4.899   5.906   5.363 -0.8546 -1.8003  1.7550
 2852TIP3   OH229970   6.438   6.234   5.192  0.1369 -0.0257  0.2087
 2852TIP3    H129971   6.482   6.237   5.277 -2.2673  2.0821  1.5008
 2852TIP3    H229972   6.394   6.149   5.191  1.2644 -0.6291  0.4512
 2853TIP3   OH229973   2.749   6.558   2.044 -0.4169 -0.1233 -0.2657
 2853TIP3    H129974   2.696   6.545   1.965 -1.1985  0.7378  0.0996
 2853TIP3    H229975   2.718   6.492   2.105 -2.5657  1.6253  0.6723
 2854TIP3   OH229976   4.928   3.483  12.960 -0.1922  0.0056 -0.0993
 2854TIP3    H129977   5.017   3.452  12.942  0.3711  1.6771 -0.4141
 2854TIP3    H229978   4.919   3.477  13.055 -0.7019 -2.5459 -0.2639
 2855TIP3   OH229979   6.462   5.901  15.883 -0.3100 -0.0481  0.0472
 2855TIP3    H129980   6.450   5.880  15.975  0.7863  0.8885  0.4217
 2855TIP3    H229981   6.440   5.994  15.876  2.7799  0.7796  0.0622
 2856TIP3   OH229982   2.893   5.723  14.311 -0.5547 -0.0257 -0.0558
 2856TIP3    H129983   2.885   5.815  14.284 -0.9720 -0.0527 -0.0293
 2856TIP3    H229984   2.987   5.710  14.323 -0.5226  0.5313  0.3783
 2857TIP3   OH229985   4.534   4.976  15.805  1.3043  0.1468 -0.1386
 2857TIP3    H129986   4.497   4.926  15.732  0.1817 -0.5713  0.8775
 2857TIP3    H229987   4.624   4.943  15.813  1.2862 -0.1057 -0.8966
 2858TIP3   OH229988   1.976   0.390  12.302  0.2944  0.4403 -0.0365
 2858TIP3    H129989   1.891   0.375  12.343 -0.3932  0.5798 -1.3417
 2858TIP3    H229990   2.003   0.477  12.334  0.0639  0.2985  0.5611
 2859TIP3   OH229991   0.283   6.494   4.143  0.4349  0.0946 -0.5890
 2859TIP3    H129992   0.297   6.574   4.194  0.3610 -1.2395  1.7151
 2859TIP3    H229993   0.199   6.460   4.176  0.2905 -0.7481 -1.7740
 2860TIP3   OH229994   4.149   3.594   4.268 -0.1225  0.5222  0.0167
 2860TIP3    H129995   4.240   3.585   4.295  0.3966  1.9787 -1.0804
 2860TIP3    H229996   4.142   3.541   4.188  0.1458  1.4639 -0.6473
 2861TIP3   OH229997   6.486   0.771   1.255  0.6253 -0.2243  0.8654
 2861TIP3    H129998   6.399   0.807   1.238  0.7371 -0.6642 -0.7868
 2861TIP3    H229999   6.547   0.839   1.227  0.8335  0.0550  1.9519
 2862TIP3   OH230000   3.612   0.268   1.148 -0.3073 -0.1454  0.3749
 2862TIP3    H130001   3.610   0.342   1.209  1.8366  1.4152 -1.2726
 2862TIP3    H230002   3.520   0.242   1.138 -1.0177  1.6297  1.8063
 2863TIP3   OH230003   1.750   3.795   3.832 -0.0052 -0.0040  0.0092
 2863TIP3    H130004   1.718   3.878   3.795 -1.6352 -0.6558 -0.1267
 2863TIP3    H230005   1.836   3.782   3.791  0.7673  2.1006  0.7958
 2864TIP3   OH230006   4.168   3.285   1.238  0.2011 -0.0030  0.5287
 2864TIP3    H130007   4.222   3.361   1.221  0.2818 -0.0003  0.7975
 2864TIP3    H230008   4.132   3.261   1.152 -0.0321  0.4930  0.4882
 2865TIP3   OH230009   3.798   6.260  16.236  0.3488 -0.0942 -0.4652
 2865TIP3    H130010   3.852   6.240  16.312  1.1707 -0.2919 -1.0795
 2865TIP3    H230011   3.718   6.298  16.272  0.2888 -1.1299  0.5376
 2866TIP3   OH230012   1.176   4.273  12.604  0.8307 -0.4932 -0.9791
 2866TIP3    H130013   1.260   4.237  12.633  0.9291  0.5093  0.0792
 2866TIP3    H230014   1.113   4.244  12.670  0.8593  0.9496 -0.2772
 2867TIP3   OH230015   0.988   0.814   4.504  0.3118 -0.4560 -0.4725
 2867TIP3    H130016   0.967   0.887   4.446 -0.7454  0.2691  0.7776
 2867TIP3    H230017   1.050   0.761   4.453  2.0734  1.9178 -0.9822
 2868TIP3   OH230018   1.468   2.189  15.142 -0.1775 -0.5573 -0.1542
 2868TIP3    H130019   1.415   2.138  15.204  0.0812 -1.1541 -0.4192
 2868TIP3    H230020   1.539   2.130  15.118  1.8072  0.8695  1.7502
 2869TIP3   OH230021   3.120   0.568   0.562  0.0194 -0.7548  0.4606
 2869TIP3    H130022   3.040   0.621   0.565  0.7711  0.6212 -1.5838
 2869TIP3    H230023   3.090   0.479   0.580 -1.7512 -0.0878  1.1149
 2870TIP3   OH230024   4.298   2.429   4.561 -0.2701 -0.4723  0.2559
 2870TIP3    H130025   4.391   2.434   4.536 -1.1796  0.2112 -3.7444
 2870TIP3    H230026   4.277   2.518   4.590 -0.1924  0.1434 -1.4310
 2871TIP3   OH230027   3.319   6.760   3.943 -0.2659 -0.0995 -0.2250
 2871TIP3    H130028   3.281   6.791   3.861 -2.5877 -0.7384  0.5249
 2871TIP3    H230029   3.279   6.814   4.011 -1.7481 -2.3277  0.8043
 2872TIP3   OH230030   3.542   5.536  11.969  0.0415  0.0835 -0.6081
 2872TIP3    H130031   3.494   5.512  11.890 -1.0578  0.1273  0.0273
 2872TIP3    H230032   3.597   5.460  11.988  0.8678  0.3513 -1.8016
 2873TIP3   OH230033   2.706   0.603  15.828  0.1527 -0.1514  0.4479
 2873TIP3    H130034   2.722   0.581  15.736  2.9989  1.0454  0.5330
 2873TIP3    H230035   2.682   0.520  15.869 -0.3569 -0.8632 -1.2079
 2874TIP3   OH230036   2.380   0.898   5.200  0.1846  0.1672 -0.0115
 2874TIP3    H130037   2.400   0.831   5.266  0.2574  1.9105  1.8485
 2874TIP3    H230038   2.289   0.923   5.218  0.7148  1.8258  0.5917
 2875TIP3   OH230039   0.269   1.171  15.424 -0.2299 -0.8811  0.2621
 2875TIP3    H130040   0.218   1.092  15.407  0.2648 -0.9184 -1.1798
 2875TIP3    H230041   0.234   1.236  15.362  0.6132 -0.5350  0.1323
 2876TIP3   OH230042   3.287   2.052   4.984 -0.1876 -0.9682  0.1126
 2876TIP3    H130043   3.278   1.957   4.977 -1.1263 -0.7890 -2.5353
 2876TIP3    H230044   3.368   2.071   4.936 -0.5957 -0.3797 -0.3616
 2877TIP3   OH230045   0.007   0.233   2.334 -0.2914  0.5358 -0.2835
 2877TIP3    H130046   0.035   0.325   2.337 -0.9529  0.7934 -1.3218
 2877TIP3    H230047   0.082   0.187   2.295  0.9382  0.2218  2.2862
 2878TIP3   OH230048   5.958   0.578   3.159 -0.3410  0.3434  0.0946
 2878TIP3    H130049   5.900   0.502   3.163 -1.8564  1.5032  1.2831
 2878TIP3    H230050   5.951   0.608   3.068 -0.3124 -0.4748 -0.1880
 2879TIP3   OH230051   1.893   5.054   6.730  0.1959  0.0014 -0.2560
 2879TIP3    H130052   1.953   5.079   6.800  0.1821 -0.8421  0.0609
 2879TIP3    H230053   1.923   4.969   6.701 -1.0432 -0.6183  0.1628
 2880TIP3   OH230054   4.905   2.125  11.941 -0.0008  0.3013 -0.1956
 2880TIP3    H130055   4.870   2.163  12.022 -0.3109 -0.8815  0.2604
 2880TIP3    H230056   4.947   2.198  11.896 -0.7010  1.2009  0.5502
 2881TIP3   OH230057   0.056   4.369  13.108  0.1697 -0.0168  0.4965
 2881TIP3    H130058  -0.025   4.373  13.159 -0.8860 -1.5617 -0.9628
 2881TIP3    H230059   0.065   4.457  13.071 -0.6348  0.2766  0.9749
 2882TIP3   OH230060   1.634   6.730   1.734  0.0816  0.3561 -0.2630
 2882TIP3    H130061   1.699   6.709   1.668  0.4842 -1.2292  0.5778
 2882TIP3    H230062   1.551   6.734   1.686  0.4949  0.2027 -0.9998
 2883TIP3   OH230063   2.491   3.433   0.570  0.5529  0.0430 -0.4253
 2883TIP3    H130064   2.575   3.426   0.525  0.6972  1.3976 -0.4258
 2883TIP3    H230065   2.497   3.371   0.643  1.3907 -0.1789 -0.6753
 2884TIP3   OH230066   3.027   6.690  16.930  0.1611  0.0184  0.0538
 2884TIP3    H130067   3.075   6.759  16.885  0.3071  0.7271  1.2546
 2884TIP3    H230068   2.937   6.700  16.900  0.4253 -0.1579 -0.8219
 2885TIP3   OH230069   3.125   3.075  12.040  0.1673 -0.4618  0.0038
 2885TIP3    H130070   3.162   3.065  11.953 -0.1543 -0.3216 -0.1506
 2885TIP3    H230071   3.045   3.024  12.039 -0.9698  1.2394 -0.4863
 2886TIP3   OH230072   6.181   0.825  16.757 -0.1305 -0.3057  0.5257
 2886TIP3    H130073   6.244   0.798  16.690  0.6786  0.7559  0.8210
 2886TIP3    H230074   6.170   0.919  16.742  2.6034  0.7518  3.8335
 2887TIP3   OH230075   6.004   3.394  14.288  0.2918 -0.0838  0.5472
 2887TIP3    H130076   6.044   3.480  14.301  2.5209 -1.1340  1.2145
 2887TIP3    H230077   6.014   3.350  14.373 -2.3886 -0.4651  0.7697
 2888TIP3   OH230078   0.898   0.418   2.040 -0.1645  0.2369  0.1806
 2888TIP3    H130079   0.977   0.467   2.064 -0.4546  0.7934  0.0201
 2888TIP3    H230080   0.827   0.467   2.081 -0.5026  0.2173 -0.3809
 2889TIP3   OH230081   0.729   6.131   4.185  0.1642  1.1280  0.1968
 2889TIP3    H130082   0.681   6.214   4.191  0.6683  1.4190  0.2607
 2889TIP3    H230083   0.676   6.070   4.236 -0.8263  1.1097 -0.8163
 2890TIP3   OH230084   5.856   1.837  15.587 -0.0257 -0.1356 -0.0040
 2890TIP3    H130085   5.913   1.892  15.640  1.1239  0.2237 -1.5480
 2890TIP3    H230086   5.817   1.896  15.523 -2.8583 -0.2033  1.4848
 2891TIP3   OH230087   3.232   3.160  14.296 -0.1889 -0.4524 -0.2960
 2891TIP3    H130088   3.153   3.151  14.242 -0.6904  0.7867  0.2059
 2891TIP3    H230089   3.295   3.099  14.256 -0.6139  0.2450 -2.1477
 2892TIP3   OH230090   4.278   6.207   0.315  0.4900  0.4907 -0.5489
 2892TIP3    H130091   4.300   6.269   0.384 -1.5272  0.2933  0.3436
 2892TIP3    H230092   4.294   6.254   0.233 -0.3445  1.9643  0.1047
 2893TIP3   OH230093   5.036   4.850  11.263  0.5654 -0.4704  0.4663
 2893TIP3    H130094   5.074   4.892  11.341 -1.0401 -0.5830  1.3533
 2893TIP3    H230095   4.978   4.782  11.298  0.3087 -0.9697 -0.8585
 2894TIP3   OH230096   4.746   3.736   5.275  0.2269 -0.3300 -0.1990
 2894TIP3    H130097   4.700   3.661   5.236  1.2481 -1.7475  1.1681
 2894TIP3    H230098   4.834   3.703   5.293  1.7162  2.1234 -2.2599
 2895TIP3   OH230099   0.087   5.792   1.207 -0.1249 -0.1993 -0.5062
 2895TIP3    H130100   0.156   5.731   1.183 -0.8981 -0.9721 -0.7795
 2895TIP3    H230101   0.100   5.867   1.149  0.0067 -0.6687 -1.0896
 2896TIP3   OH230102   5.967   3.418  11.879 -0.2497  0.8232  0.7395
 2896TIP3    H130103   5.934   3.495  11.833  0.9372  0.8443 -0.1364
 2896TIP3    H230104   6.060   3.416  11.859 -0.2284 -0.7792  0.8346
 2897TIP3   OH230105   3.766   6.035  13.315  0.3243 -0.0717  0.3086
 2897TIP3    H130106   3.686   6.085  13.299 -0.4596 -1.7636 -1.4097
 2897TIP3    H230107   3.834   6.101  13.330 -1.0855  1.4284  0.3070
 2898TIP3   OH230108   3.404   3.710  12.525  0.1362 -0.0981 -0.2127
 2898TIP3    H130109   3.380   3.669  12.442 -5.5936  0.2611  0.9198
 2898TIP3    H230110   3.406   3.804  12.506 -0.9802 -0.0286 -0.0070
 2899TIP3   OH230111   4.155   5.942   5.426 -0.1332 -0.1493 -0.1671
 2899TIP3    H130112   4.175   5.882   5.498 -0.1766  0.1441  0.0905
 2899TIP3    H230113   4.102   6.011   5.466 -1.8577 -0.9983 -0.8616
 2900TIP3   OH230114   5.042   6.494   3.221 -0.2157 -0.4125  0.1876
 2900TIP3    H130115   4.976   6.429   3.247 -2.4160  1.1002 -1.2590
 2900TIP3    H230116   5.018   6.573   3.269  0.6939  0.1191 -0.2129
 2901TIP3   OH230117   5.918   0.683  14.808  0.0359 -0.1198  0.1335
 2901TIP3    H130118   5.990   0.620  14.803 -0.9506 -1.2866  0.2264
 2901TIP3    H230119   5.868   0.669  14.728 -0.9799 -0.4430  0.8087
 2902TIP3   OH230120   6.421   4.900  12.935 -0.0371 -0.2311  0.5585
 2902TIP3    H130121   6.380   4.973  12.890  0.6207  0.4196  1.0056
 2902TIP3    H230122   6.365   4.884  13.011 -0.0373 -0.0174  0.6040
 2903TIP3   OH230123   6.787   1.444   2.923 -0.3471  0.1017 -0.5068
 2903TIP3    H130124   6.726   1.416   2.991  0.2420  0.9165  0.3748
 2903TIP3    H230125   6.732   1.453   2.844 -1.0057 -0.9897 -0.1939
 2904TIP3   OH230126   4.525   2.343   3.982  0.8419  0.1011 -0.5116
 2904TIP3    H130127   4.617   2.338   3.957  0.4587  0.6881 -2.2185
 2904TIP3    H230128   4.478   2.332   3.899 -0.5834  1.1146  0.1261
 2905TIP3   OH230129   3.226   2.258  10.235  0.0108  0.1730 -0.4493
 2905TIP3    H130130   3.281   2.324  10.277  0.8693 -0.0274 -1.2295
 2905TIP3    H230131   3.215   2.190  10.302  0.9454  0.0881 -0.3644
 2906TIP3   OH230132   6.607   0.392   4.387  0.5114 -0.0941  0.0653
 2906TIP3    H130133   6.554   0.429   4.316  1.5293 -0.1837 -0.7824
 2906TIP3    H230134   6.585   0.299   4.388 -0.7040  0.1825  0.9775
 2907TIP3   OH230135   3.761   5.325  14.424  0.1086  0.1715  0.1155
 2907TIP3    H130136   3.684   5.310  14.479 -0.6534 -0.6605 -1.1099
 2907TIP3    H230137   3.808   5.242  14.425  0.8451  0.5923  0.6308
 2908TIP3   OH230138   2.161   4.997   0.397  0.4612 -0.0227  0.0221
 2908TIP3    H130139   2.135   4.917   0.351  2.2188 -1.0649  0.7595
 2908TIP3    H230140   2.116   5.067   0.350 -1.5132 -1.4518 -0.3589
 2909TIP3   OH230141   2.683   4.455   2.087 -0.1994  0.9583 -0.0144
 2909TIP3    H130142   2.710   4.450   1.995  2.0548 -0.3671  0.6711
 2909TIP3    H230143   2.735   4.389   2.132 -2.8001  0.0567  1.9116
 2910TIP3   OH230144   5.712   3.516  14.753 -0.0458  0.0990  0.1420
 2910TIP3    H130145   5.675   3.491  14.668 -0.0785  0.9282 -0.0954
 2910TIP3    H230146   5.636   3.526  14.810 -0.0574 -0.0110  0.1458
 2911TIP3   OH230147   0.313   0.599  15.226 -0.6462 -0.4201  0.5646
 2911TIP3    H130148   0.290   0.519  15.272 -0.9271 -0.1657  0.8683
 2911TIP3    H230149   0.230   0.641  15.204 -0.6013 -1.3255 -1.6316
 2912TIP3   OH230150   0.124   1.916  13.389 -0.5680 -0.3096 -0.3072
 2912TIP3    H130151   0.033   1.898  13.412  0.3535 -2.6058  2.1010
 2912TIP3    H230152   0.125   1.918  13.293 -2.8350 -2.1844 -0.4620
 2913TIP3   OH230153   0.932   6.125  15.705  0.1686  0.0409 -0.1133
 2913TIP3    H130154   0.915   6.216  15.730 -1.5821 -0.2885  0.0108
 2913TIP3    H230155   0.948   6.129  15.610  0.6511  0.5465 -0.0123
 2914TIP3   OH230156   5.506   0.317   3.085 -0.4641 -0.8341 -0.1219
 2914TIP3    H130157   5.471   0.275   3.007  1.6446 -0.4796 -1.3524
 2914TIP3    H230158   5.458   0.400   3.091  0.2714 -0.2239 -1.9074
 2915TIP3   OH230159   1.875   4.619   5.562 -0.2711  0.2119  0.5354
 2915TIP3    H130160   1.795   4.640   5.612  0.0581  0.5830  0.9188
 2915TIP3    H230161   1.852   4.540   5.513 -0.9349  0.4159  0.5027
 2916TIP3   OH230162   5.240   3.970   4.049  0.0845  0.3551  0.4649
 2916TIP3    H130163   5.315   3.918   4.079 -0.7351 -0.4039  1.2570
 2916TIP3    H230164   5.266   4.002   3.963  0.5653 -1.5123 -0.1406
 2917TIP3   OH230165   3.808   1.364  15.475 -0.1832 -0.0458  0.1644
 2917TIP3    H130166   3.763   1.283  15.499  0.2113 -0.2492  0.2144
 2917TIP3    H230167   3.757   1.398  15.402 -0.2804 -0.3999  0.0647
 2918TIP3   OH230168   3.004   3.337  13.485  0.1171  0.3305 -0.0811
 2918TIP3    H130169   2.939   3.380  13.429  2.2758  2.4155 -1.2123
 2918TIP3    H230170   2.965   3.339  13.572 -1.5619  0.9866 -0.7937
 2919TIP3   OH230171   3.337   4.165  13.372  0.2241  0.3478  0.2877
 2919TIP3    H130172   3.246   4.135  13.378  0.2069  0.4672  0.5956
 2919TIP3    H230173   3.331   4.261  13.376  0.2420  0.4306 -1.1052
 2920TIP3   OH230174   2.014   3.232  13.107  0.3292  0.4276 -0.5917
 2920TIP3    H130175   2.026   3.140  13.083 -0.6630 -0.1065  0.8336
 2920TIP3    H230176   2.047   3.280  13.032 -0.3504 -1.1094 -1.9408
 2921TIP3   OH230177   5.543   1.754   3.372 -0.1407 -0.3320  0.1685
 2921TIP3    H130178   5.602   1.721   3.440 -1.2353 -0.0794  1.2765
 2921TIP3    H230179   5.504   1.675   3.335  1.6830 -0.5801 -1.3741
 2922TIP3   OH230180   4.404   3.434   5.338  0.2356  0.6529  0.4566
 2922TIP3    H130181   4.359   3.351   5.322 -1.2350  1.2809  1.1980
 2922TIP3    H230182   4.395   3.449   5.432  0.8892  1.4415  0.4083
 2923TIP3   OH230183   3.638   6.781  13.877  0.0813  0.2269  0.1098
 2923TIP3    H130184   3.652   6.688  13.858 -0.4708  0.0095  0.7295
 2923TIP3    H230185   3.546   6.787  13.901  0.4168  0.6982  1.3649
 2924TIP3   OH230186   5.263   1.760   0.328  0.6923  0.0315 -0.0254
 2924TIP3    H130187   5.185   1.805   0.297  1.7597 -0.1269 -3.3917
 2924TIP3    H230188   5.296   1.815   0.399 -0.9980  1.5470 -0.3473
 2925TIP3   OH230189   2.260   1.789  11.367  0.1160 -0.4159 -0.3887
 2925TIP3    H130190   2.239   1.855  11.301 -0.3063 -1.2258 -1.0831
 2925TIP3    H230191   2.268   1.838  11.449  0.8516  0.6318 -1.0697
 2926TIP3   OH230192   5.191   6.135   5.415 -0.1501 -0.0751  0.4936
 2926TIP3    H130193   5.113   6.116   5.468  0.0028 -0.6212  0.5306
 2926TIP3    H230194   5.174   6.092   5.331  0.6966 -1.4183  0.9692
 2927TIP3   OH230195   2.827   0.497   2.419  0.2701 -0.2856  0.3953
 2927TIP3    H130196   2.767   0.548   2.473 -1.4600 -0.3678 -1.3136
 2927TIP3    H230197   2.894   0.560   2.392  0.9996 -0.1764  2.3031
 2928TIP3   OH230198   0.799   1.890  16.715  0.1226  0.2706 -0.1137
 2928TIP3    H130199   0.704   1.903  16.723 -0.0228 -0.7046 -0.0415
 2928TIP3    H230200   0.808   1.820  16.650  0.8245  0.7460 -0.5365
 2929TIP3   OH230201   4.511   1.861   0.698  0.6219 -0.7264 -0.5700
 2929TIP3    H130202   4.560   1.799   0.751  1.4197  0.2623 -0.1404
 2929TIP3    H230203   4.420   1.831   0.705  0.8888 -1.3843  0.2617
 2930TIP3   OH230204   0.099   6.435   6.030 -0.1444  0.4048  0.0694
 2930TIP3    H130205   0.170   6.377   6.058 -1.4874 -0.3001  2.2384
 2930TIP3    H230206   0.043   6.443   6.107 -2.0563  1.5085 -1.3581
 2931TIP3   OH230207   3.856   6.456   2.266 -0.5767 -0.1330 -0.4242
 2931TIP3    H130208   3.775   6.496   2.299 -1.3617 -1.5990 -0.4436
 2931TIP3    H230209   3.899   6.423   2.345 -0.5073 -0.2151 -0.4962
 2932TIP3   OH230210   5.903   0.983  14.320 -0.5251  0.4542  0.0278
 2932TIP3    H130211   5.956   0.948  14.392  1.4842 -0.5036 -1.8050
 2932TIP3    H230212   5.868   0.905  14.277 -2.1473  1.0378  0.2176
 2933TIP3   OH230213   6.383   1.284  16.173 -0.2059 -0.1879 -0.4175
 2933TIP3    H130214   6.431   1.203  16.192  0.0268 -0.0440 -0.3831
 2933TIP3    H230215   6.444   1.335  16.119  0.8268  1.1916  1.8793
 2934TIP3   OH230216   3.541   0.640   5.807  0.1195 -0.3678  0.8903
 2934TIP3    H130217   3.536   0.674   5.896  1.3303  0.5275  0.6549
 2934TIP3    H230218   3.482   0.696   5.757 -0.7092 -0.9957  1.1581
 2935TIP3   OH230219   6.257   0.255   3.315 -0.0577  0.5858 -0.7605
 2935TIP3    H130220   6.185   0.235   3.256  0.0008 -2.2317 -0.0096
 2935TIP3    H230221   6.332   0.268   3.257 -0.5029  0.3446 -1.4065
 2936TIP3   OH230222   0.302   0.965   4.840  0.8807 -0.3703  0.0136
 2936TIP3    H130223   0.290   1.038   4.901 -0.7552 -2.4032  2.3058
 2936TIP3    H230224   0.388   0.930   4.861  0.9892 -0.1031  0.0246
 2937TIP3   OH230225   5.103   4.543   1.584  0.1240  0.0255  0.1451
 2937TIP3    H130226   5.169   4.568   1.519  2.0219 -0.2878  1.8611
 2937TIP3    H230227   5.102   4.616   1.646 -1.2321  0.0504  0.1134
 2938TIP3   OH230228   6.419   4.786  13.893 -0.2680  0.2023 -0.0361
 2938TIP3    H130229   6.349   4.739  13.849 -0.5459 -0.4916  1.1269
 2938TIP3    H230230   6.438   4.860  13.835  0.5895 -1.6208 -2.2220
 2939TIP3   OH230231   2.415   4.449   2.523  0.4248 -0.1890  0.3690
 2939TIP3    H130232   2.320   4.457   2.523  0.3945 -0.5243  1.1107
 2939TIP3    H230233   2.439   4.448   2.615  1.2113  0.5831  0.1869
 2940TIP3   OH230234   0.132   6.384   4.358 -0.0119  0.8906  0.1222
 2940TIP3    H130235   0.044   6.404   4.391  0.0575  0.3408  0.6622
 2940TIP3    H230236   0.181   6.465   4.368 -0.1925  0.9278  0.7285
 2941TIP3   OH230237   1.432   3.781   1.223  0.3205  0.3140 -0.0153
 2941TIP3    H130238   1.401   3.866   1.193  1.6405  0.5739 -0.6738
 2941TIP3    H230239   1.455   3.734   1.143  2.0285  0.2899  0.4524
 2942TIP3   OH230240   3.610   4.208   4.487  0.5391  0.0509  0.4906
 2942TIP3    H130241   3.611   4.166   4.573 -0.2191  1.4578  1.2154
 2942TIP3    H230242   3.634   4.299   4.505 -0.1857  0.4972 -0.7193
 2943TIP3   OH230243   5.748   3.523   3.171  0.3991  0.1774  0.2439
 2943TIP3    H130244   5.769   3.447   3.226 -0.2173 -0.2632 -0.1277
 2943TIP3    H230245   5.665   3.556   3.205 -0.3886 -0.5653 -0.8969
 2944TIP3   OH230246   0.059   1.730  11.586  0.5542 -0.0230  0.1659
 2944TIP3    H130247   0.040   1.730  11.680 -2.3961  0.5779 -0.3316
 2944TIP3    H230248   0.080   1.821  11.566  1.0624 -0.1287  0.2043
 2945TIP3   OH230249   2.748   0.737  11.141  0.8934 -0.3459 -0.3981
 2945TIP3    H130250   2.777   0.727  11.232  1.8115 -1.1407 -0.7554
 2945TIP3    H230251   2.787   0.820  11.112  1.6038 -0.6754 -0.4139
 2946TIP3   OH230252   6.579   6.762  12.575  0.4813 -0.1744 -0.0724
 2946TIP3    H130253   6.624   6.846  12.562 -0.7641  0.5409  0.0873
 2946TIP3    H230254   6.565   6.757  12.670 -1.6274  0.6286 -0.3113
 2947TIP3   OH230255   4.314   4.604   1.524  0.5316  0.2370  0.0900
 2947TIP3    H130256   4.304   4.678   1.465 -1.9117 -0.5462 -0.5682
 2947TIP3    H230257   4.385   4.552   1.486  0.8873  1.1693 -0.5491
 2948TIP3   OH230258   5.637   4.491   1.991 -0.1000  0.0858  0.1407
 2948TIP3    H130259   5.562   4.440   2.022  0.8174  0.0958  2.6351
 2948TIP3    H230260   5.622   4.579   2.027  0.4574  0.4327 -0.4592
 2949TIP3   OH230261   1.887   0.945  15.416 -0.1076  0.1653 -0.4308
 2949TIP3    H130262   1.951   0.943  15.346 -0.6631 -3.1858 -1.0018
 2949TIP3    H230263   1.815   0.998  15.381  0.5560  0.4069 -1.4645
 2950TIP3   OH230264   0.959   5.514  13.788 -0.3885  0.4890  0.1330
 2950TIP3    H130265   0.990   5.443  13.844  3.3194  0.8573 -1.2193
 2950TIP3    H230266   0.973   5.593  13.839 -3.1963  0.4836  1.0823
 2951TIP3   OH230267   3.239   6.455   4.357  0.3005  0.0764 -0.2901
 2951TIP3    H130268   3.246   6.489   4.268  0.1757 -2.7319 -1.4654
 2951TIP3    H230269   3.326   6.420   4.376  0.6637  1.6534  1.2072
 2952TIP3   OH230270   1.854   4.002  13.223 -0.0178 -0.2106  0.1402
 2952TIP3    H130271   1.934   4.027  13.270 -0.2011 -1.5777  1.2530
 2952TIP3    H230272   1.836   3.912  13.252 -1.0420 -0.5316 -1.3625
 2953TIP3   OH230273   2.228   6.624  12.143  0.0394  0.5342 -0.1845
 2953TIP3    H130274   2.281   6.695  12.109  2.5450 -1.7065 -1.3459
 2953TIP3    H230275   2.238   6.553  12.079 -1.3508 -1.2717  1.4522
 2954TIP3   OH230276   5.831   6.560   5.349 -0.1651  0.1647 -0.4801
 2954TIP3    H130277   5.901   6.553   5.284  0.0884  1.3358 -0.3656
 2954TIP3    H230278   5.858   6.501   5.420  2.2814  2.6884  0.8991
 2955TIP3   OH230279   3.832   4.200  10.439  0.1541  0.2957  0.6246
 2955TIP3    H130280   3.833   4.286  10.480  0.7074 -0.1537  1.6178
 2955TIP3    H230281   3.822   4.139  10.513  1.0534 -0.5363  0.0911
 2956TIP3   OH230282   3.917   1.794  15.213 -0.1529 -0.0419 -0.0285
 2956TIP3    H130283   4.009   1.765  15.211 -0.3904 -0.7916 -1.6617
 2956TIP3    H230284   3.917   1.869  15.272  1.4247 -0.3166  0.3737
 2957TIP3   OH230285   5.250   5.834   5.827  1.0666  0.4479  0.0211
 2957TIP3    H130286   5.252   5.929   5.833  0.3746  0.5187 -0.7216
 2957TIP3    H230287   5.157   5.811   5.825  1.2243 -0.2099 -0.1615
 2958TIP3   OH230288   1.533   1.327  10.371 -0.2944  0.2421 -0.0421
 2958TIP3    H130289   1.598   1.283  10.317 -0.2374 -0.4438  0.5698
 2958TIP3    H230290   1.571   1.329  10.458 -0.1841  1.7643 -0.0972
 2959TIP3   OH230291   6.562   2.930   2.688  0.3312 -0.1297 -0.0712
 2959TIP3    H130292   6.495   2.994   2.663  0.1227 -0.4270 -0.2831
 2959TIP3    H230293   6.512   2.855   2.721  0.5760 -0.1554  0.2501
 2960TIP3   OH230294   0.414   5.237  13.254 -0.0068  0.5626 -0.2620
 2960TIP3    H130295   0.374   5.271  13.173  1.0584  0.0510 -1.0167
 2960TIP3    H230296   0.449   5.151  13.230  1.8364  1.1233  0.2792
 2961TIP3   OH230297   1.487   4.945  15.434 -0.1881 -0.4823 -0.0257
 2961TIP3    H130298   1.473   4.873  15.495 -0.9695 -0.8602 -0.6260
 2961TIP3    H230299   1.547   5.004  15.479 -1.5704 -0.2084  1.5719
 2962TIP3   OH230300   2.793   3.162  12.731 -0.2780 -0.1718 -0.1551
 2962TIP3    H130301   2.830   3.077  12.710  1.5579  0.3599  0.7425
 2962TIP3    H230302   2.813   3.217  12.656 -1.7081 -0.5579 -0.8570
 2963TIP3   OH230303   1.805   5.172  12.676 -0.2732 -0.5916 -0.2617
 2963TIP3    H130304   1.840   5.251  12.635 -0.0588 -0.3323  0.3995
 2963TIP3    H230305   1.783   5.200  12.765  1.8412 -1.7630  0.7074
 2964TIP3   OH230306   4.637   2.615  13.733  0.3730  0.4005  0.5680
 2964TIP3    H130307   4.653   2.651  13.820  1.2002  2.4047 -0.3561
 2964TIP3    H230308   4.713   2.642  13.681  0.3101 -1.4664 -0.5981
 2965TIP3   OH230309   2.017   0.760   5.998  0.4263  0.5811 -0.0004
 2965TIP3    H130310   2.112   0.776   6.004  0.9353 -1.7520 -0.7809
 2965TIP3    H230311   1.998   0.704   6.073 -0.0462 -0.0387 -0.5696
 2966TIP3   OH230312   0.856   0.204   2.779 -0.2443 -0.1932  0.1127
 2966TIP3    H130313   0.846   0.199   2.684 -1.2906 -2.2848  0.2902
 2966TIP3    H230314   0.948   0.182   2.795 -0.7125 -2.7168 -0.2976
 2967TIP3   OH230315   6.538   2.714  13.048 -0.6249  0.1160  0.0767
 2967TIP3    H130316   6.511   2.780  13.112 -0.8396  1.1836 -1.0743
 2967TIP3    H230317   6.488   2.736  12.969  0.5345 -0.4220 -0.8236
 2968TIP3   OH230318   2.096   2.759  10.952  0.0247  0.3922 -0.4243
 2968TIP3    H130319   2.099   2.738  11.045  0.3012  0.4621 -0.4183
 2968TIP3    H230320   2.145   2.841  10.944  0.5815  0.0319 -0.7321
 2969TIP3   OH230321   6.722   5.273   1.994  0.2412 -0.0988 -0.0937
 2969TIP3    H130322   6.808   5.314   2.005 -0.0590  0.3417  0.7133
 2969TIP3    H230323   6.680   5.324   1.925 -0.6156  1.8600  1.7411
 2970TIP3   OH230324   3.803   1.130  16.812  0.3552 -0.4314  0.2646
 2970TIP3    H130325   3.859   1.052  16.815  0.3243 -0.4476  0.4915
 2970TIP3    H230326   3.803   1.162  16.903 -0.8683 -1.0369  0.4849
 2971TIP3   OH230327   6.419   3.218   2.219 -0.2708 -0.0158 -0.3489
 2971TIP3    H130328   6.379   3.164   2.152  2.0883 -0.1775 -1.7538
 2971TIP3    H230329   6.491   3.165   2.254 -0.2428  0.8097  0.9470
 2972TIP3   OH230330   6.146   5.264   2.790 -0.0748  0.4165  0.1707
 2972TIP3    H130331   6.193   5.280   2.872 -0.9673  1.6967  0.4559
 2972TIP3    H230332   6.083   5.195   2.812 -1.6593  2.0791  1.1526
 2973TIP3   OH230333   5.109   0.316   2.402 -0.2903  0.1486 -0.4244
 2973TIP3    H130334   5.172   0.244   2.414  0.3525  0.7261 -0.3023
 2973TIP3    H230335   5.159   0.385   2.360 -0.8723  0.5805 -0.4174
 2974TIP3   OH230336   0.046   1.358  13.837 -0.1671 -0.0753  0.0390
 2974TIP3    H130337   0.021   1.305  13.762  0.9115 -1.5259  0.6425
 2974TIP3    H230338   0.059   1.446  13.802 -1.6676 -0.2642 -1.0649
 2975TIP3   OH230339   0.448   5.872  16.233 -0.1403 -0.7195 -0.2598
 2975TIP3    H130340   0.433   5.828  16.149 -1.1460 -0.0919 -0.4263
 2975TIP3    H230341   0.451   5.801  16.297 -2.3437 -1.0528 -0.4382
 2976TIP3   OH230342   5.713   4.548  16.580  0.3151  0.0917 -0.0537
 2976TIP3    H130343   5.775   4.575  16.512 -0.5793 -0.4460 -1.1275
 2976TIP3    H230344   5.704   4.454  16.567  0.2591 -0.0478  0.9408
 2977TIP3   OH230345   3.977   1.323   2.999  0.2432 -0.4368 -0.6266
 2977TIP3    H130346   3.992   1.404   2.951  0.0170 -0.1797 -0.2713
 2977TIP3    H230347   4.035   1.328   3.075 -0.1389 -0.3724 -0.3347
 2978TIP3   OH230348   3.400   3.013   0.519  0.0314 -0.3131  0.4921
 2978TIP3    H130349   3.333   2.986   0.457 -0.0863 -0.9491  0.8777
 2978TIP3    H230350   3.357   3.078   0.575  0.0704  0.0908  0.0561
 2979TIP3   OH230351   2.994   1.684  11.990 -0.4688 -0.3963  0.7544
 2979TIP3    H130352   2.959   1.726  11.911 -0.1674  0.2103  0.9407
 2979TIP3    H230353   2.999   1.591  11.967  1.0733 -0.0493 -0.4930
 2980TIP3   OH230354   0.108   3.227   4.782  0.0238 -0.3937 -0.4222
 2980TIP3    H130355   0.054   3.245   4.704  1.0420  2.1126 -0.6331
 2980TIP3    H230356   0.109   3.310   4.829 -0.4386 -1.8141  2.2641
 2981TIP3   OH230357   2.908   0.927   1.618 -0.1332 -0.5479 -0.2896
 2981TIP3    H130358   2.819   0.922   1.655 -0.6507  2.9311 -0.7570
 2981TIP3    H230359   2.894   0.938   1.524  0.6661  1.4355 -0.2183
 2982TIP3   OH230360   2.530   0.878   1.203  0.0491 -0.2405  0.1700
 2982TIP3    H130361   2.458   0.845   1.148 -1.6321  3.8921 -0.5247
 2982TIP3    H230362   2.606   0.880   1.145 -0.1425 -1.4793 -0.1432
 2983TIP3   OH230363   5.110   5.861  15.106  0.4546 -0.4008 -0.1147
 2983TIP3    H130364   5.105   5.833  15.197  0.9044 -0.3512 -0.0695
 2983TIP3    H230365   5.194   5.827  15.075  1.3823  1.4991  0.1526
 2984TIP3   OH230366   2.131   1.304   4.795 -0.9080  0.1257 -0.1954
 2984TIP3    H130367   2.139   1.235   4.860  0.0025  0.1247 -0.2970
 2984TIP3    H230368   2.137   1.385   4.845  0.9693  0.1298 -0.3880
 2985TIP3   OH230369   0.697   2.914  15.732 -0.2967 -0.2809  0.1013
 2985TIP3    H130370   0.684   2.821  15.713 -1.2145  0.0772 -1.0726
 2985TIP3    H230371   0.747   2.947  15.657  1.4043 -0.1281  1.2426
 2986TIP3   OH230372   5.216   0.240  13.690 -0.7216 -0.0341 -0.0949
 2986TIP3    H130373   5.276   0.221  13.763  2.4701 -0.6523 -2.6659
 2986TIP3    H230374   5.199   0.154  13.651  1.4154  0.5981 -2.7166
 2987TIP3   OH230375   6.742   2.234  11.502 -0.3288  0.2831 -0.0967
 2987TIP3    H130376   6.797   2.156  11.508 -0.1222  0.5220  1.3447
 2987TIP3    H230377   6.744   2.258  11.409  0.7612 -0.5933 -0.3105
 2988TIP3   OH230378   1.967   5.044   6.088 -0.4598 -0.3600  0.3968
 2988TIP3    H130379   1.880   5.041   6.126 -0.6176 -0.5653  0.0236
 2988TIP3    H230380   2.026   5.024   6.162 -0.7378 -0.4188  0.6032
 2989TIP3   OH230381   0.071   5.331   6.783 -0.2900 -0.1620 -0.3990
 2989TIP3    H130382   0.138   5.264   6.797  0.1603  0.1377 -1.0317
 2989TIP3    H230383   0.120   5.413   6.782 -0.9245  0.2757  1.1324
 2990TIP3   OH230384   5.886   1.890  11.028 -0.0855 -0.1494 -0.1813
 2990TIP3    H130385   5.951   1.927  11.088 -0.9461  0.3187  0.4811
 2990TIP3    H230386   5.851   1.814  11.074 -1.2128  0.5880  0.2121
 2991TIP3   OH230387   4.151   5.183   0.008 -0.0220 -0.0308 -0.7105
 2991TIP3    H130388   4.148   5.171  -0.087  0.1053 -0.0240 -0.7161
 2991TIP3    H230389   4.207   5.260   0.020  1.3247 -0.9754 -0.5697
 2992TIP3   OH230390   2.712   4.418  14.194  0.0205  0.0487 -0.2439
 2992TIP3    H130391   2.714   4.460  14.108 -2.0452 -0.3795 -0.5534
 2992TIP3    H230392   2.760   4.478  14.251 -0.0436  1.1991 -1.3449
 2993TIP3   OH230393   0.589   5.246   5.881  0.0362  0.0686  0.7299
 2993TIP3    H130394   0.555   5.168   5.837 -1.0826 -0.5497  2.5941
 2993TIP3    H230395   0.584   5.315   5.814 -0.4378 -1.0834 -0.4722
 2994TIP3   OH230396   2.925   2.596   0.849 -0.6983  0.1362  0.0588
 2994TIP3    H130397   2.982   2.590   0.773  0.0426  1.3050  0.4921
 2994TIP3    H230398   2.912   2.506   0.877  0.5777 -0.1814 -0.3240
 2995TIP3   OH230399   1.534   3.158  13.436 -0.3825 -0.1017 -0.5357
 2995TIP3    H130400   1.494   3.078  13.471  1.2702 -1.1620 -0.9510
 2995TIP3    H230401   1.469   3.226  13.453 -1.3331 -1.2927  0.9436
 2996TIP3   OH230402   0.105   4.781   0.618 -0.2015 -0.2474 -0.1933
 2996TIP3    H130403   0.059   4.713   0.569 -1.3393  0.0927  0.3862
 2996TIP3    H230404   0.037   4.825   0.669  0.5262  1.2419 -0.4434
 2997TIP3   OH230405   5.899   2.227   5.061  0.3135 -0.1613  0.2916
 2997TIP3    H130406   5.978   2.281   5.056 -0.7513  1.6260  1.4744
 2997TIP3    H230407   5.918   2.165   5.132  1.7696 -1.8560 -1.4570
 2998TIP3   OH230408   0.580   4.187   3.452  0.4523  0.3075  0.7347
 2998TIP3    H130409   0.583   4.242   3.530  0.5194  0.3787  0.6827
 2998TIP3    H230410   0.552   4.101   3.484  1.0582  0.1782  0.9279
 2999TIP3   OH230411   4.127   0.900  16.611 -0.6803  0.5213  0.3062
 2999TIP3    H130412   4.168   0.874  16.528  0.8103 -2.5880  1.8653
 2999TIP3    H230413   4.064   0.830  16.630 -2.1872  2.0030  1.0985
 3000TIP3   OH230414   4.729   3.502   2.868 -0.4618  0.0411 -0.1894
 3000TIP3    H130415   4.752   3.504   2.775  2.2751 -0.0066  0.3940
 3000TIP3    H230416   4.639   3.472   2.870 -0.2520 -1.0170 -2.7824
 3001TIP3   OH230417   0.926   3.805   3.572  0.5160 -0.1535  0.9396
 3001TIP3    H130418   1.022   3.799   3.576  0.5412  0.4702  1.4602
 3001TIP3    H230419   0.897   3.750   3.645  0.4177 -1.3467  0.0405
 3002TIP3   OH230420   6.029   1.501   1.970  0.7543  0.4211 -0.2332
 3002TIP3    H130421   6.000   1.592   1.968  1.3348  0.5900 -1.6031
 3002TIP3    H230422   6.092   1.498   2.042  0.4952  1.0107  0.0294
 3003TIP3   OH230423   6.081   6.722  11.830 -0.4981 -0.2436  0.7176
 3003TIP3    H130424   6.038   6.804  11.854 -0.8868 -0.2772  0.1558
 3003TIP3    H230425   6.027   6.686  11.760 -0.3498 -1.0012  0.9859
 3004TIP3   OH230426   5.651   0.548  16.794 -0.0185 -0.2007  0.6071
 3004TIP3    H130427   5.723   0.517  16.739 -0.3254  0.2551 -0.0694
 3004TIP3    H230428   5.600   0.469  16.813  1.0023 -0.6500  1.6494
 3005TIP3   OH230429   1.487   4.222   3.082  0.2644 -0.0185  0.1641
 3005TIP3    H130430   1.462   4.178   3.000  1.1500  0.1549 -0.2178
 3005TIP3    H230431   1.443   4.172   3.151 -2.3709  1.1883 -0.5317
 3006TIP3   OH230432   2.207   1.337  13.164  0.3178  0.2857  0.1401
 3006TIP3    H130433   2.289   1.315  13.120  0.3707  1.7077 -0.5295
 3006TIP3    H230434   2.207   1.433  13.170 -1.5690  0.3754 -0.4364
 3007TIP3   OH230435   0.631   0.540   2.029 -0.1791 -0.1377 -0.1594
 3007TIP3    H130436   0.542   0.566   2.009  0.0548  0.2762 -0.6756
 3007TIP3    H230437   0.686   0.607   1.988  0.3708 -0.4120  0.1103
 3008TIP3   OH230438   0.946   5.942   1.925 -0.2225  0.6197 -0.0390
 3008TIP3    H130439   0.985   5.890   1.995 -0.4333  0.0158 -0.3696
 3008TIP3    H230440   0.964   6.033   1.951  0.0006  0.3953  0.6216
 3009TIP3   OH230441   4.925   3.342   2.684  0.1753  0.1007  0.2220
 3009TIP3    H130442   4.848   3.295   2.655  1.0229 -0.6035 -0.9654
 3009TIP3    H230443   4.999   3.295   2.645  1.4059 -0.7594  3.3184
 3010TIP3   OH230444   3.355   1.470   1.649 -0.0009 -0.1503  0.5537
 3010TIP3    H130445   3.288   1.500   1.711  0.7958 -0.5615  1.6401
 3010TIP3    H230446   3.419   1.541   1.646  0.2297 -0.3533  0.6154
 3011TIP3   OH230447   1.467   0.061  16.729 -0.1437  0.2779 -0.1678
 3011TIP3    H130448   1.493   0.011  16.806 -1.2486  0.0655  0.0784
 3011TIP3    H230449   1.498   0.150  16.747  0.2704  0.0702  0.1712
 3012TIP3   OH230450   3.027   0.202  11.847 -0.0641  0.4860  0.6086
 3012TIP3    H130451   2.950   0.247  11.883  0.2688  0.5305  1.2630
 3012TIP3    H230452   3.096   0.269  11.848 -0.0448  0.4833 -0.0969
 3013TIP3   OH230453   5.581   6.501   1.958 -0.1890  0.5831 -0.1472
 3013TIP3    H130454   5.653   6.438   1.966  0.6779  1.0663 -2.8708
 3013TIP3    H230455   5.519   6.476   2.026  0.7423 -2.3330 -0.2288
 3014TIP3   OH230456   0.684   0.966   0.617 -0.1553  0.0881  1.3287
 3014TIP3    H130457   0.735   1.023   0.674 -1.0152  1.0263  1.1940
 3014TIP3    H230458   0.748   0.926   0.559  0.5028  0.7176  1.6060
 3015TIP3   OH230459   0.797   3.537  16.247  0.6561 -0.0596  0.0187
 3015TIP3    H130460   0.882   3.551  16.204 -0.5859  1.7065 -2.0728
 3015TIP3    H230461   0.745   3.490  16.181 -0.4729  0.2792  0.6427
 3016TIP3   OH230462   2.369   6.368   3.899  0.1110 -0.6467 -0.1439
 3016TIP3    H130463   2.353   6.364   3.993 -2.0775 -1.0027 -0.4814
 3016TIP3    H230464   2.464   6.355   3.890  0.2476 -1.4530  1.9509
 3017TIP3   OH230465   0.623   1.795  12.301 -0.2203  0.3646 -0.0203
 3017TIP3    H130466   0.668   1.877  12.280 -0.7689  0.6517 -0.0974
 3017TIP3    H230467   0.541   1.800  12.252 -0.4995  0.0140  0.4093
 3018TIP3   OH230468   3.736   4.005  12.332 -0.2156 -0.3109  0.1726
 3018TIP3    H130469   3.772   3.917  12.346 -0.9007 -0.6695 -0.2748
 3018TIP3    H230470   3.813   4.061  12.324  0.2290 -0.8737  0.4242
 3019TIP3   OH230471   6.514   4.678   4.839  0.0032 -0.0670  0.1958
 3019TIP3    H130472   6.569   4.682   4.917  0.3233 -3.6996  0.3513
 3019TIP3    H230473   6.576   4.682   4.766 -0.1766  1.9341  0.0990
 3020TIP3   OH230474   5.715   5.781  14.378 -0.2760 -0.2459  0.5646
 3020TIP3    H130475   5.642   5.736  14.420 -0.7289 -0.5337 -0.5046
 3020TIP3    H230476   5.731   5.732  14.297 -0.5837  1.3079 -0.4891
 3021TIP3   OH230477   5.533   2.560  16.116 -0.0243  0.0595 -0.5331
 3021TIP3    H130478   5.513   2.556  16.023  0.9941 -0.2202 -0.7519
 3021TIP3    H230479   5.540   2.468  16.143 -1.6038  0.0975  0.1286
 3022TIP3   OH230480   2.057   5.453   3.884  0.4101 -0.2637 -0.1570
 3022TIP3    H130481   2.063   5.405   3.802 -1.4890 -1.1516  0.1601
 3022TIP3    H230482   2.007   5.395   3.942  0.4182  0.9657  1.1359
 3023TIP3   OH230483   4.022   1.040  12.629  0.0511 -0.2601  0.2780
 3023TIP3    H130484   3.929   1.058  12.643  0.0772  0.2780 -0.2390
 3023TIP3    H230485   4.059   1.035  12.718 -0.6343 -1.4197  0.5269
 3024TIP3   OH230486   4.587   3.760  15.876 -0.4716 -0.4606  0.7246
 3024TIP3    H130487   4.503   3.723  15.902 -1.4985  1.1059 -0.1167
 3024TIP3    H230488   4.563   3.838  15.826  1.4451 -0.9364 -1.0816
 3025TIP3   OH230489   0.998   3.936  16.651 -0.1327 -0.1747  0.2352
 3025TIP3    H130490   1.026   3.948  16.742  1.2408 -0.3149 -0.1343
 3025TIP3    H230491   0.925   3.996  16.640  0.5278  0.8239  1.0702
 3026TIP3   OH230492   3.347   6.682   2.893  0.5937 -0.4366  0.1363
 3026TIP3    H130493   3.324   6.749   2.828  0.0407 -3.6710 -3.3332
 3026TIP3    H230494   3.283   6.695   2.963 -1.2746  1.0177 -1.6813
 3027TIP3   OH230495   0.477   3.497   3.233  0.2481 -0.0770 -0.2346
 3027TIP3    H130496   0.554   3.550   3.254  0.5392 -0.3157 -0.6759
 3027TIP3    H230497   0.511   3.428   3.175 -0.4079  0.2152 -0.9919
 3028TIP3   OH230498   5.982   5.102   3.986  0.2565  0.0601  0.2024
 3028TIP3    H130499   5.946   5.054   3.911  1.8668 -1.0658  0.0933
 3028TIP3    H230500   5.949   5.056   4.063 -1.0156  0.9329  0.2116
 3029TIP3   OH230501   6.593   1.078   2.021  0.8736  0.3547 -0.1779
 3029TIP3    H130502   6.503   1.047   2.013  0.7030  0.6626  0.4187
 3029TIP3    H230503   6.644   1.020   1.966  0.5913 -1.1290  1.0488
 3030TIP3   OH230504   1.052   0.068   3.890  0.0464  0.4947  0.1978
 3030TIP3    H130505   1.049   0.156   3.852  1.3209  1.3446  1.9114
 3030TIP3    H230506   0.961   0.039   3.893 -0.3027  1.3472 -1.2632
 3031TIP3   OH230507   2.965   2.415   0.066 -0.6442 -0.1922  0.2705
 3031TIP3    H130508   2.887   2.457   0.031  0.0463  0.7797 -0.1598
 3031TIP3    H230509   3.002   2.479   0.127  2.0274  1.2087 -2.5348
 3032TIP3   OH230510   1.415   0.160   1.201 -0.2436 -0.4034 -0.3466
 3032TIP3    H130511   1.480   0.103   1.159  0.5236  0.7547 -0.7670
 3032TIP3    H230512   1.399   0.229   1.137 -0.0667  0.6563  0.7281
 3033TIP3   OH230513   5.379   3.364  13.461 -0.1981 -0.1469 -0.1368
 3033TIP3    H130514   5.461   3.394  13.500  0.3054  1.7725 -2.4133
 3033TIP3    H230515   5.327   3.443  13.451 -1.0809 -0.8583 -1.4522
 3034TIP3   OH230516   3.569   0.174  16.298 -0.1310 -0.2272 -0.7630
 3034TIP3    H130517   3.589   0.180  16.392 -1.6436 -0.7988 -0.3870
 3034TIP3    H230518   3.628   0.106  16.266  1.9741  1.4631 -0.7295
 3035TIP3   OH230519   3.482   5.756  11.718 -0.3691 -0.1259 -0.1257
 3035TIP3    H130520   3.434   5.813  11.657  0.2774  1.0059  0.4008
 3035TIP3    H230521   3.545   5.814  11.761  2.5350 -1.7975 -1.7967
 3036TIP3   OH230522   6.104   0.267   4.715  0.3772 -0.1164  0.1000
 3036TIP3    H130523   6.126   0.356   4.689  1.8118 -0.3049  0.5687
 3036TIP3    H230524   6.053   0.277   4.796  1.4541  0.2694  0.7568
 3037TIP3   OH230525   3.348   0.255  14.524  0.3915  0.3979 -0.0849
 3037TIP3    H130526   3.440   0.266  14.502  0.3854 -1.1799 -1.0640
 3037TIP3    H230527   3.302   0.264  14.440 -0.0932 -1.0993 -0.0087
 3038TIP3   OH230528   2.025   5.356  11.832 -0.5608  0.2533  0.1160
 3038TIP3    H130529   2.104   5.410  11.846 -1.1429  1.3031 -0.5185
 3038TIP3    H230530   2.023   5.298  11.908  1.0600 -0.1027 -0.0608
 3039TIP3   OH230531   2.977   1.980   0.294  0.0446 -0.7566 -0.4347
 3039TIP3    H130532   2.955   1.891   0.268  1.9228 -1.8260  1.4104
 3039TIP3    H230533   2.940   1.990   0.381  1.3588 -0.3756  0.1009
 3040TIP3   OH230534   3.498   2.073   4.412  0.2073 -0.3637  0.2627
 3040TIP3    H130535   3.471   2.020   4.337 -0.7624 -1.7790  1.5733
 3040TIP3    H230536   3.574   2.027   4.448 -0.3226 -0.5794  1.1052
 3041TIP3   OH230537   6.183   1.901  16.824  0.9035 -0.7889 -0.1067
 3041TIP3    H130538   6.256   1.960  16.807 -0.5710  0.7601 -1.4929
 3041TIP3    H230539   6.164   1.861  16.740  0.2291 -1.2546  0.2546
 3042TIP3   OH230540   5.005   1.907  13.333  0.2521 -0.5556  0.8849
 3042TIP3    H130541   4.915   1.895  13.303  0.4178  0.4765 -0.1050
 3042TIP3    H230542   4.996   1.939  13.422 -0.3437 -1.1310  1.0389
 3043TIP3   OH230543   5.472   1.955   5.537 -0.0655  0.3193 -0.5201
 3043TIP3    H130544   5.537   1.910   5.483  0.8850  0.6534  0.2879
 3043TIP3    H230545   5.481   1.914   5.623 -0.7057  0.5919 -0.3236
 3044TIP3   OH230546   4.850   1.290  16.906 -0.1512  0.0534 -0.5547
 3044TIP3    H130547   4.935   1.287  16.861 -0.4375  0.2952 -1.1276
 3044TIP3    H230548   4.869   1.331  16.990  0.1874  0.7930 -0.9771
 3045TIP3   OH230549   5.434   6.783  15.330 -0.0843  0.1000  0.3591
 3045TIP3    H130550   5.384   6.701  15.327  0.2630 -0.3029  3.0118
 3045TIP3    H230551   5.524   6.757  15.313 -0.0648  0.0199  0.5794
 3046TIP3   OH230552   2.696   5.826   3.459  0.3416  0.1633 -0.1931
 3046TIP3    H130553   2.633   5.839   3.530 -0.6904 -1.8681 -0.6579
 3046TIP3    H230554   2.697   5.910   3.413 -0.8263  0.7394  0.7595
 3047TIP3   OH230555   4.966   6.202   4.131  0.7707  0.2291  0.4432
 3047TIP3    H130556   4.977   6.297   4.135  1.2021  0.2088 -0.1715
 3047TIP3    H230557   5.046   6.167   4.171 -0.3665  0.1163  2.8138
 3048TIP3   OH230558   3.531   1.415   2.680  0.7732  0.1910 -0.0431
 3048TIP3    H130559   3.603   1.438   2.621 -0.1283 -0.1907 -1.3258
 3048TIP3    H230560   3.547   1.323   2.702  0.4938  0.0054 -0.6054
 3049TIP3   OH230561   1.041   3.985   5.369 -0.4742  0.5567  0.4756
 3049TIP3    H130562   1.067   3.918   5.433  3.5323  1.3995  0.0240
 3049TIP3    H230563   1.046   4.067   5.417 -4.2591  0.8150  0.7171
 3050TIP3   OH230564   2.724   3.250  14.138 -0.4369  0.8919  0.5087
 3050TIP3    H130565   2.717   3.345  14.131  0.8354  0.9766  0.1817
 3050TIP3    H230566   2.699   3.217  14.051  1.3070  1.0827 -0.0992
 3051TIP3   OH230567   5.243   3.461  14.086 -0.3854 -0.4534 -0.0330
 3051TIP3    H130568   5.251   3.539  14.031 -1.5641 -0.7748 -0.6916
 3051TIP3    H230569   5.149   3.448  14.097 -0.2015 -0.1610  2.4704
 3052TIP3   OH230570   1.558   4.838  11.316  0.4967  0.4062 -0.3953
 3052TIP3    H130571   1.632   4.872  11.266  1.5179 -0.0073  0.7577
 3052TIP3    H230572   1.598   4.776  11.378 -0.7921  0.3466  0.4148
 3053TIP3   OH230573   2.963   3.118  14.167  0.1323  0.4062  0.2093
 3053TIP3    H130574   2.975   3.102  14.074  0.6226 -2.1260  0.6133
 3053TIP3    H230575   2.874   3.153  14.175 -0.0718  0.2410 -1.1637
 3054TIP3   OH230576   0.054   6.632  15.273  0.4421  0.2091  0.1324
 3054TIP3    H130577   0.106   6.569  15.323  1.7340  0.9831 -0.1907
 3054TIP3    H230578   0.081   6.718  15.307 -3.1119  0.6567  2.4123
 3055TIP3   OH230579   1.670   1.515   1.107 -0.3072  0.1937 -0.2201
 3055TIP3    H130580   1.751   1.546   1.067 -0.6086 -1.0613 -1.9290
 3055TIP3    H230581   1.698   1.471   1.187  0.4331  1.7445  0.4264
 3056TIP3   OH230582   1.713   4.581  15.590  0.5686 -0.1245  0.4571
 3056TIP3    H130583   1.652   4.522  15.635  0.4272 -0.5850 -0.3302
 3056TIP3    H230584   1.799   4.556  15.623  0.3906  0.2101  1.2142
 3057TIP3   OH230585   3.291   0.142  12.387 -0.0880 -0.7717 -0.3221
 3057TIP3    H130586   3.227   0.213  12.379  1.7245  1.0060  0.1909
 3057TIP3    H230587   3.293   0.121  12.480  2.4411  1.5940  0.2627
 3058TIP3   OH230588   0.617   1.897   4.641 -0.2679  0.2275 -0.4306
 3058TIP3    H130589   0.598   1.934   4.727  0.0446 -1.7545  0.5480
 3058TIP3    H230590   0.687   1.953   4.606  0.5852  0.2682  1.2263
 3059TIP3   OH230591   0.521   4.816   4.927  0.2791  1.0068 -0.8623
 3059TIP3    H130592   0.566   4.745   4.882  2.8467  0.6385  1.9406
 3059TIP3    H230593   0.455   4.773   4.982  1.4298  0.7696  0.3828
 3060TIP3   OH230594   3.904   0.885  12.236  0.0887 -0.0119  0.4872
 3060TIP3    H130595   3.923   0.967  12.280  0.7521  0.4065 -0.5329
 3060TIP3    H230596   3.852   0.910  12.160  0.9211 -0.4350 -0.2398
 3061TIP3   OH230597   5.160   1.132   2.974  0.0791 -0.5583 -0.5865
 3061TIP3    H130598   5.188   1.041   2.968  1.0406 -0.2321 -1.4746
 3061TIP3    H230599   5.241   1.182   2.964 -0.6593  0.4174 -2.1272
 3062TIP3   OH230600   5.743   1.237  12.271 -0.1210  0.0362  0.5698
 3062TIP3    H130601   5.705   1.155  12.239  1.6675 -1.1777  1.3847
 3062TIP3    H230602   5.671   1.283  12.312 -1.3682 -0.6822 -0.7260
 3063TIP3   OH230603   1.037   4.895   0.117  0.2815  0.3048 -0.5867
 3063TIP3    H130604   1.024   4.814   0.068 -1.6595  0.8370 -1.0661
 3063TIP3    H230605   1.012   4.873   0.207  1.2738 -0.0059 -0.3799
 3064TIP3   OH230606   5.610   0.355   3.480  0.2551 -0.2264  0.0032
 3064TIP3    H130607   5.522   0.329   3.509  0.7266 -1.7871  0.1543
 3064TIP3    H230608   5.643   0.278   3.432  0.6633  1.1856 -2.1146
 3065TIP3   OH230609   5.678   6.726  11.680  0.9647  0.0728 -0.4335
 3065TIP3    H130610   5.670   6.816  11.712  2.3468  0.5024 -1.2090
 3065TIP3    H230611   5.659   6.732  11.586  0.0995 -0.6223 -0.3167
 3066TIP3   OH230612   3.015   3.817  17.162 -0.4562  0.1167 -0.2964
 3066TIP3    H130613   2.975   3.886  17.110 -0.9364  0.6401  0.7292
 3066TIP3    H230614   3.102   3.850  17.182 -0.0905 -0.2991 -1.1512
 3067TIP3   OH230615   2.588   2.520  12.618 -0.1767 -0.1400  0.1993
 3067TIP3    H130616   2.605   2.591  12.556 -1.4713  1.6678  1.7786
 3067TIP3    H230617   2.539   2.562  12.689 -2.3438 -2.9454  0.5047
 3068TIP3   OH230618   0.840   5.321  17.146  0.2687 -0.0649 -0.1005
 3068TIP3    H130619   0.885   5.244  17.111  2.4776  0.8171  0.6571
 3068TIP3    H230620   0.892   5.347  17.222 -0.4509  2.1448 -0.3073
 3069TIP3   OH230621   2.595   3.829   0.038  0.6255  0.1301  0.2677
 3069TIP3    H130622   2.631   3.773  -0.031 -0.6455  0.6372 -0.8426
 3069TIP3    H230623   2.633   3.795   0.119  1.9940 -0.6151 -0.6499
 3070TIP3   OH230624   1.367   5.695  15.964 -0.3303  0.4328 -0.1054
 3070TIP3    H130625   1.298   5.630  15.953 -0.6189  0.4883  1.2720
 3070TIP3    H230626   1.327   5.764  16.016  0.3902  1.0700 -0.3819
 3071TIP3   OH230627   1.340   1.824   4.986 -0.5804 -0.0264  0.2659
 3071TIP3    H130628   1.274   1.888   4.960 -2.9154 -2.3059  0.1251
 3071TIP3    H230629   1.312   1.795   5.073 -0.1699 -1.4542 -0.0428
 3072TIP3   OH230630   0.429   2.792  15.774  0.2976  0.1872  0.7759
 3072TIP3    H130631   0.335   2.782  15.790 -0.1390  0.3036 -1.3669
 3072TIP3    H230632   0.440   2.884  15.751  1.3917  0.7804  3.3861
 3073TIP3   OH230633   3.171   5.720  14.382  0.0439 -0.1796  0.4482
 3073TIP3    H130634   3.161   5.736  14.476  0.8369 -2.1830  0.9367
 3073TIP3    H230635   3.263   5.697  14.372  0.7619  3.0327 -1.3787
 3074TIP3   OH230636   2.903   3.180  11.813 -0.4260  0.2994 -0.2398
 3074TIP3    H130637   2.843   3.249  11.843 -0.9033  0.1867 -0.9233
 3074TIP3    H230638   2.855   3.136  11.743 -1.2258 -2.3742  1.7948
 3075TIP3   OH230639   2.684   0.791  13.674  0.3384  0.2613 -0.2848
 3075TIP3    H130640   2.589   0.807  13.670  0.3111  0.3234  0.5900
 3075TIP3    H230641   2.692   0.697  13.687  0.4192  0.1822 -0.8458
 3076TIP3   OH230642   6.452   3.851  14.769  0.2880  0.8053 -0.1178
 3076TIP3    H130643   6.396   3.924  14.795 -0.4788 -0.3564  1.7215
 3076TIP3    H230644   6.441   3.844  14.675 -1.0867  1.8786 -0.0598
 3077TIP3   OH230645   5.617   4.256  13.269 -0.1172 -0.0921  0.1503
 3077TIP3    H130646   5.659   4.275  13.185  1.7267  0.0073  1.0302
 3077TIP3    H230647   5.678   4.292  13.334 -1.6089  0.0433  1.5337
 3078TIP3   OH230648   1.206   4.244  13.613 -0.5041  0.9682 -0.3135
 3078TIP3    H130649   1.185   4.222  13.704  0.8007 -0.1633 -0.2488
 3078TIP3    H230650   1.211   4.340  13.612 -2.8558  1.1437  0.2314
 3079TIP3   OH230651   1.945   6.241  16.887  0.4575 -0.0484  0.5932
 3079TIP3    H130652   2.019   6.180  16.881 -0.5457 -1.1875 -0.7474
 3079TIP3    H230653   1.880   6.195  16.940  0.4084  0.6410  1.1422
 3080TIP3   OH230654   1.986   6.283  15.251 -0.1058 -0.4421  0.0182
 3080TIP3    H130655   1.940   6.226  15.313  2.5377 -0.9182  1.6943
 3080TIP3    H230656   1.988   6.232  15.170 -1.3650 -0.9348  0.2648
 3081TIP3   OH230657   0.795   5.255  12.478 -0.1810 -0.5749  0.0708
 3081TIP3    H130658   0.796   5.317  12.551  0.4268 -1.4124  0.7852
 3081TIP3    H230659   0.862   5.287  12.417 -0.6731  0.1101 -0.1185
 3082TIP3   OH230660   0.030   2.424   6.405 -0.3296  0.5979  0.1341
 3082TIP3    H130661   0.077   2.475   6.471 -0.0176  0.6804 -0.1446
 3082TIP3    H230662   0.091   2.354   6.381 -0.0594  1.1098 -0.7304
 3083TIP3   OH230663   4.364   3.345   3.692 -0.2787  0.1574 -0.8168
 3083TIP3    H130664   4.346   3.255   3.662  1.7395 -0.4461 -0.3828
 3083TIP3    H230665   4.371   3.337   3.787  0.7695  0.5931 -0.8486
 3084TIP3   OH230666   4.958   4.422   2.735 -0.0127  0.0169  0.3450
 3084TIP3    H130667   5.033   4.364   2.741  0.1653  0.4101  2.4045
 3084TIP3    H230668   4.970   4.486   2.805 -2.4555 -0.1451  1.0333
 3085TIP3   OH230669   6.192   0.498  14.295  0.7917 -0.3942 -0.2165
 3085TIP3    H130670   6.275   0.495  14.247  0.8863  1.2768 -0.1882
 3085TIP3    H230671   6.213   0.460  14.381  1.2924 -0.8511 -0.5333
 3086TIP3   OH230672   3.269   0.936  12.635 -0.5639 -0.6774 -0.0975
 3086TIP3    H130673   3.279   0.860  12.578 -2.1735 -1.3775  0.4899
 3086TIP3    H230674   3.244   1.007  12.576  0.8965 -0.6003 -0.6447
 3087TIP3   OH230675   6.682   1.680  13.785 -0.0947 -0.0198  0.3119
 3087TIP3    H130676   6.645   1.599  13.749  0.5008 -0.3578  0.4452
 3087TIP3    H230677   6.608   1.723  13.827 -0.0218 -1.5947  2.2214
 3088TIP3   OH230678   5.544   1.634   2.378 -0.5238  0.3717 -0.0086
 3088TIP3    H130679   5.541   1.544   2.411  2.4675  0.3458  0.5592
 3088TIP3    H230680   5.478   1.681   2.429 -1.6785 -1.3610  0.1560
 3089TIP3   OH230681   0.112   2.898  15.357  0.1985 -0.1544  0.7061
 3089TIP3    H130682   0.071   2.966  15.411 -1.4002 -1.1468  0.8157
 3089TIP3    H230683   0.148   2.835  15.420  0.4202 -0.1229  0.6115
 3090TIP3   OH230684   0.422   5.076  12.614 -0.2521  0.0731  0.0709
 3090TIP3    H130685   0.517   5.070  12.604 -0.1302 -0.1686  1.2504
 3090TIP3    H230686   0.406   5.056  12.706 -1.2730  2.0003  0.3721
 3091TIP3   OH230687   0.389   1.736  13.143  0.5358  0.0312 -0.1544
 3091TIP3    H130688   0.436   1.673  13.088  0.3907  0.7466 -1.1262
 3091TIP3    H230689   0.356   1.684  13.216 -0.6873 -1.3292 -1.5801
 3092TIP3   OH230690   2.866   0.227  13.836  0.5967  0.1509 -0.7738
 3092TIP3    H130691   2.865   0.250  13.743  0.9821  1.1319 -0.5506
 3092TIP3    H230692   2.809   0.151  13.843  1.0465 -0.3122 -1.9067
 3093TIP3   OH230693   0.496   5.846  12.568 -0.1133 -0.2667 -0.0500
 3093TIP3    H130694   0.479   5.880  12.655  0.3841  0.6847 -0.3188
 3093TIP3    H230695   0.411   5.849  12.524  0.2079  2.4220 -0.6699
 3094TIP3   OH230696   4.351   5.961   2.734  0.1280 -0.2426  0.5456
 3094TIP3    H130697   4.385   6.003   2.656 -2.2429  2.1380  0.6536
 3094TIP3    H230698   4.334   6.032   2.795 -1.5861 -1.6215  1.7951
 3095TIP3   OH230699   4.035   4.293   3.001  0.3018  0.1232  0.7910
 3095TIP3    H130700   4.072   4.355   2.938  1.9226  0.1469  1.7094
 3095TIP3    H230701   4.112   4.251   3.041 -0.7246 -1.1623  1.4845
 3096TIP3   OH230702   1.185   2.493   6.157 -0.5543  0.1454  0.3584
 3096TIP3    H130703   1.227   2.415   6.122  0.1067  0.8783 -0.5573
 3096TIP3    H230704   1.258   2.547   6.188 -0.6183  1.8910 -2.1801
 3097TIP3   OH230705   3.153   3.893  14.403 -0.2744  0.2820 -0.2023
 3097TIP3    H130706   3.090   3.951  14.444 -0.9459 -0.5296 -0.0666
 3097TIP3    H230707   3.206   3.859  14.475  0.0392  0.6161 -0.2690
 3098TIP3   OH230708   3.252   0.428   2.443 -0.0152 -0.8286 -0.3435
 3098TIP3    H130709   3.347   0.419   2.455 -0.0664 -0.5079  0.3668
 3098TIP3    H230710   3.243   0.501   2.381  0.1873 -0.4000  0.1261
 3099TIP3   OH230711   4.711   2.394  15.689  0.8192  0.0287  0.2134
 3099TIP3    H130712   4.636   2.359  15.738  1.1516  0.6576  1.2016
 3099TIP3    H230713   4.757   2.316  15.658 -0.2659 -0.3668 -0.4676
 3100TIP3   OH230714   3.664   0.997  13.254 -0.3465 -0.2589 -0.1058
 3100TIP3    H130715   3.739   1.021  13.309 -0.6277 -0.2650  0.2861
 3100TIP3    H230716   3.589   1.003  13.313 -0.2587 -4.2161  0.7038
 3101TIP3   OH230717   4.588   2.294  14.011 -0.2099  0.2179  0.0080
 3101TIP3    H130718   4.563   2.357  13.943 -0.5023  0.4319  0.3125
 3101TIP3    H230719   4.558   2.209  13.976 -0.2684  0.3122 -0.1736
 3102TIP3   OH230720   4.105   4.237   2.423  0.4715  0.4796  0.1144
 3102TIP3    H130721   4.125   4.245   2.516  0.5514 -1.0342  0.2544
 3102TIP3    H230722   4.152   4.310   2.382  3.2003 -0.6995  0.8849
 3103TIP3   OH230723   6.427   1.626   3.789  0.3748  0.2953  0.3291
 3103TIP3    H130724   6.494   1.686   3.820 -1.4300  1.4263  2.3496
 3103TIP3    H230725   6.349   1.680   3.778 -0.9688 -1.4185  0.9096
 3104TIP3   OH230726   6.517   3.782   1.206 -0.1940 -0.4855 -0.1531
 3104TIP3    H130727   6.461   3.741   1.140 -1.9354  3.0829 -1.1755
 3104TIP3    H230728   6.467   3.777   1.287  0.6751 -2.3545  0.3087
 3105TIP3   OH230729   4.798   1.039  13.721 -0.4427 -0.6066 -0.0407
 3105TIP3    H130730   4.744   0.964  13.694 -0.1976 -0.8447  0.1244
 3105TIP3    H230731   4.831   1.015  13.807 -1.8248  0.4637  0.8307
 3106TIP3   OH230732   1.550   4.454  13.180 -0.5229  0.5665 -0.1770
 3106TIP3    H130733   1.639   4.430  13.157 -0.5884  0.4393 -0.2985
 3106TIP3    H230734   1.514   4.493  13.101 -0.4050  1.1018  0.0314
 3107TIP3   OH230735   3.887   2.670  15.924 -0.2232 -0.3356  0.5009
 3107TIP3    H130736   3.965   2.672  15.980 -0.4093 -0.9846  0.7919
 3107TIP3    H230737   3.899   2.744  15.865  1.1189 -1.0157 -0.1308
 3108TIP3   OH230738   6.324   4.046  16.376  0.5465 -0.5693  0.8108
 3108TIP3    H130739   6.310   4.045  16.471  0.1176 -0.4289  0.7546
 3108TIP3    H230740   6.271   4.120  16.345 -0.4833 -1.4776  0.3042
 3109TIP3   OH230741   1.711   5.506   4.789  0.1022  0.5720  0.5235
 3109TIP3    H130742   1.646   5.457   4.839  0.1709 -0.9422 -0.7927
 3109TIP3    H230743   1.735   5.579   4.846  0.3709 -1.1798  2.7971
 3110TIP3   OH230744   1.641   2.090  13.175  0.1171 -0.3447 -0.2775
 3110TIP3    H130745   1.579   2.029  13.215 -0.3742  0.6690  0.5431
 3110TIP3    H230746   1.601   2.112  13.091 -0.7726  0.4889  0.3518
 3111TIP3   OH230747   0.199   0.211  16.441 -0.0232  0.3618  0.4898
 3111TIP3    H130748   0.164   0.203  16.530 -0.3460  0.8560  0.4136
 3111TIP3    H230749   0.198   0.121  16.407 -1.4458  0.3692  0.4231
 3112TIP3   OH230750   0.558   0.720   3.244 -0.4939  0.2697 -0.1266
 3112TIP3    H130751   0.470   0.749   3.266 -0.0927  0.4847  1.3332
 3112TIP3    H230752   0.553   0.624   3.246 -0.7284  0.2797 -0.2256
 3113TIP3   OH230753   0.382   2.451   1.003  0.5183  0.0453  0.3752
 3113TIP3    H130754   0.376   2.405   0.919  2.0987  1.1359 -0.3959
 3113TIP3    H230755   0.380   2.544   0.979  2.6817  0.3990  1.3289
 3114TIP3   OH230756   0.378   1.363   3.196  1.0055  0.3631  0.4298
 3114TIP3    H130757   0.331   1.280   3.181  0.9313  0.1855  1.5553
 3114TIP3    H230758   0.469   1.337   3.207  0.9913  0.4357  0.7223
 3115TIP3   OH230759   0.065   4.575   4.455 -0.4249 -0.1179  0.3336
 3115TIP3    H130760   0.058   4.492   4.502 -0.5359  0.1174  0.7274
 3115TIP3    H230761   0.041   4.642   4.518  0.3038  0.2744  0.2128
 3116TIP3   OH230762   1.650   6.633  10.559 -0.4146  0.0362 -0.8216
 3116TIP3    H130763   1.728   6.687  10.558  0.7903 -1.6129 -0.2699
 3116TIP3    H230764   1.591   6.674  10.496 -0.3445  3.0324  0.8935
 3117TIP3   OH230765   0.650   2.150  12.921 -0.5733  0.3207 -0.5080
 3117TIP3    H130766   0.653   2.208  12.997  1.3265 -0.9662  0.4635
 3117TIP3    H230767   0.731   2.169  12.874  0.0513 -1.4248 -0.2141
 3118TIP3   OH230768   0.491   0.460  13.645  0.2627  0.2981 -0.3296
 3118TIP3    H130769   0.506   0.407  13.567  0.0369  1.1844 -0.9910
 3118TIP3    H230770   0.416   0.419  13.688  0.2114 -0.0280 -0.7303
 3119TIP3   OH230771   1.883   0.556  11.032 -0.6609  0.0120  0.4831
 3119TIP3    H130772   1.955   0.535  10.973 -0.1132 -0.2737  1.2398
 3119TIP3    H230773   1.842   0.471  11.050 -0.2460 -0.0338  1.2443
 3120TIP3   OH230774   4.628   0.079   1.605  0.5753 -0.2770  0.2983
 3120TIP3    H130775   4.703   0.026   1.577  0.6935 -0.1246  0.3227
 3120TIP3    H230776   4.654   0.169   1.584  1.8249  0.1892  3.3868
 3121TIP3   OH230777   2.563   3.724  16.737  0.5721 -1.0616 -0.0108
 3121TIP3    H130778   2.499   3.657  16.761  1.2101 -0.8182  2.7707
 3121TIP3    H230779   2.510   3.802  16.719 -0.0089 -1.2092  0.9625
 3122TIP3   OH230780   3.402   0.866  12.269  0.1296  0.5373 -0.0785
 3122TIP3    H130781   3.399   0.777  12.233 -0.2596  0.4730  0.1074
 3122TIP3    H230782   3.463   0.860  12.343 -0.1987  0.3329  0.1784
 3123TIP3   OH230783   4.898   2.944   2.917  0.5565  0.4239  0.7573
 3123TIP3    H130784   4.836   3.012   2.891  0.0627 -0.7855 -1.4136
 3123TIP3    H230785   4.983   2.988   2.918  0.4804  0.7956 -2.1910
 3124TIP3   OH230786   0.730   6.072  13.766  0.3142 -0.2062  0.2416
 3124TIP3    H130787   0.819   6.091  13.734  0.5225  0.2426  1.0633
 3124TIP3    H230788   0.701   6.154  13.806 -0.3972 -0.4151  0.1674
 3125TIP3   OH230789   0.353   6.455  15.054  0.0865 -0.4582  0.0618
 3125TIP3    H130790   0.413   6.504  14.998 -1.5493  0.7571 -0.7066
 3125TIP3    H230791   0.376   6.482  15.143 -0.3992  1.3499 -0.3145
 3126TIP3   OH230792   4.152   0.366   4.452 -0.1382 -0.3587  0.2513
 3126TIP3    H130793   4.217   0.332   4.390 -1.5366 -0.5943 -1.1380
 3126TIP3    H230794   4.204   0.402   4.524  1.4945 -2.0816  0.0177
 3127TIP3   OH230795   6.524   2.450   2.564  0.3118 -0.1924  0.3790
 3127TIP3    H130796   6.536   2.456   2.658  0.0978 -1.3879  0.5028
 3127TIP3    H230797   6.597   2.396   2.533  0.7104  0.6758 -0.2222
 3128TIP3   OH230798   4.785   1.911   4.417  0.2200 -0.1244 -0.2756
 3128TIP3    H130799   4.698   1.947   4.400 -0.3483 -1.5309 -0.5020
 3128TIP3    H230800   4.814   1.877   4.333  0.9803  0.2804 -0.1891
 3129TIP3   OH230801   0.836   1.468  16.015 -0.1127  0.6985  0.5251
 3129TIP3    H130802   0.895   1.488  15.942 -0.1388 -1.0639 -0.0189
 3129TIP3    H230803   0.884   1.406  16.069 -0.9583  0.2684  0.7969
 3130TIP3   OH230804   5.597   4.334   5.125  0.1576  0.1529 -0.2798
 3130TIP3    H130805   5.675   4.364   5.079  1.2879 -2.8846 -0.5920
 3130TIP3    H230806   5.619   4.343   5.218  0.3721  0.4460 -0.3568
 3131TIP3   OH230807   5.707   2.476   1.446 -0.1810  1.1393  0.1124
 3131TIP3    H130808   5.787   2.510   1.486 -0.0453 -0.3702  1.2072
 3131TIP3    H230809   5.736   2.441   1.361  0.5404 -0.2917  0.9184
 3132TIP3   OH230810   3.010   6.669   2.038 -0.4722  0.4091 -0.1780
 3132TIP3    H130811   2.920   6.644   2.060 -0.7227  0.8354 -0.7026
 3132TIP3    H230812   3.009   6.765   2.042 -1.2389  0.7787 -4.6048
 3133TIP3   OH230813   0.030   2.102   3.784  0.6718  0.1782  0.1445
 3133TIP3    H130814   0.013   2.041   3.856 -1.2354 -0.0595 -0.4416
 3133TIP3    H230815  -0.000   2.187   3.819  2.4720  0.6593  0.6325
 3134TIP3   OH230816   1.738   4.174  15.554  0.3506 -0.2789  0.0531
 3134TIP3    H130817   1.686   4.122  15.494 -0.8962 -1.4493  2.0140
 3134TIP3    H230818   1.796   4.226  15.498 -1.0674 -0.9124 -2.1156
 3135TIP3   OH230819   0.543   5.376   2.127  0.1203  0.7029 -0.1227
 3135TIP3    H130820   0.589   5.298   2.157 -0.6592  0.4269  0.3854
 3135TIP3    H230821   0.513   5.419   2.207 -0.9350  0.6097 -0.4466
 3136TIP3   OH230822   2.012   1.251  14.855 -0.0030 -0.4259  0.4204
 3136TIP3    H130823   2.032   1.336  14.893  1.1370 -0.8610  0.8283
 3136TIP3    H230824   1.920   1.258  14.826  0.0550  0.8985  0.5170
 3137TIP3   OH230825   3.874   2.455  14.378 -0.4722 -0.0460  0.7666
 3137TIP3    H130826   3.881   2.532  14.321  1.2639 -1.3999 -0.9491
 3137TIP3    H230827   3.781   2.436  14.382 -0.6439  0.0755 -1.6899
 3138TIP3   OH230828   0.562   5.426  11.688 -0.5410  0.4113  0.6630
 3138TIP3    H130829   0.580   5.442  11.596  0.7227  2.4454  1.2020
 3138TIP3    H230830   0.470   5.450  11.699 -1.6209 -2.6913 -0.5865
 3139TIP3   OH230831   1.118   4.283   0.939 -0.9461 -0.1908  0.5169
 3139TIP3    H130832   1.156   4.197   0.924  1.9101  0.6605  2.1643
 3139TIP3    H230833   1.093   4.283   1.032 -0.9547  0.7299  0.5284
 3140TIP3   OH230834   2.356   2.193   3.015 -0.0684  0.2834 -1.3249
 3140TIP3    H130835   2.268   2.163   3.037 -0.9096  3.0532 -0.5015
 3140TIP3    H230836   2.409   2.169   3.092 -0.8923  1.4748 -0.3365
 3141TIP3   OH230837   1.466   2.249   3.159  0.0800 -0.2410 -0.2692
 3141TIP3    H130838   1.410   2.317   3.119  0.3448  1.0770  1.4896
 3141TIP3    H230839   1.437   2.244   3.250 -0.3789 -3.0332 -0.4774
 3142TIP3   OH230840   0.218   5.497   5.928  0.1142 -0.3454 -0.0651
 3142TIP3    H130841   0.232   5.591   5.917 -2.6276  0.3036  1.1078
 3142TIP3    H230842   0.244   5.479   6.019 -0.8411 -0.3611  0.2136
 3143TIP3   OH230843   4.836   1.569   2.450  0.1284  0.4023 -0.3137
 3143TIP3    H130844   4.831   1.484   2.493 -0.0350 -0.5315 -2.0778
 3143TIP3    H230845   4.840   1.632   2.522 -1.8421 -0.9383  1.0673
 3144TIP3   OH230846   5.367   1.122  14.195  0.4036  0.4672 -1.2498
 3144TIP3    H130847   5.339   1.098  14.107 -0.5002  2.3475 -1.5144
 3144TIP3    H230848   5.288   1.154  14.239  0.1189 -3.1134  1.3471
 3145TIP3   OH230849   2.137   0.240   1.816 -0.2538  0.3436  0.2747
 3145TIP3    H130850   2.049   0.278   1.824 -1.1069 -0.8031 -2.3166
 3145TIP3    H230851   2.191   0.310   1.781 -0.8153  0.3503 -0.6124
 3146TIP3   OH230852   3.099   0.940  13.564 -0.9786  0.4161 -0.3255
 3146TIP3    H130853   3.063   0.892  13.638 -1.0825  2.0364  0.7202
 3146TIP3    H230854   3.024   0.963  13.511 -1.1989  1.3035  0.3429
 3147TIP3   OH230855   5.592   0.089   0.157 -0.0543 -0.1224  0.3508
 3147TIP3    H130856   5.514   0.068   0.106 -0.9454  0.7115  1.3141
 3147TIP3    H230857   5.601   0.183   0.149  1.9790 -0.4026 -1.2644
 3148TIP3   OH230858   5.083   2.848  13.082  0.9114 -0.5641 -0.2293
 3148TIP3    H130859   5.021   2.831  13.011 -0.6159 -0.0091  0.9016
 3148TIP3    H230860   5.146   2.909  13.045 -0.5620  0.6898 -0.7865
 3149TIP3   OH230861   3.596   0.505   1.319 -0.0060  0.7489 -0.4714
 3149TIP3    H130862   3.528   0.478   1.380  0.4934  0.5179 -0.0065
 3149TIP3    H230863   3.571   0.594   1.293 -1.4090  0.0371 -1.6583
 3150TIP3   OH230864   1.541   2.524   5.469 -0.5288 -0.0809  0.6097
 3150TIP3    H130865   1.527   2.604   5.519  1.0696 -0.9389  2.5911
 3150TIP3    H230866   1.632   2.529   5.441 -0.6412 -0.8468  0.0806
 3151TIP3   OH230867   4.351   2.811  13.687 -0.2272 -0.0011  0.0290
 3151TIP3    H130868   4.272   2.758  13.688 -0.9540  1.0381 -0.1487
 3151TIP3    H230869   4.367   2.833  13.779 -0.0909 -0.2818  0.0733
 3152TIP3   OH230870   5.471   1.908   2.252 -0.1717  0.1255 -0.2283
 3152TIP3    H130871   5.533   1.843   2.285 -0.2201  0.2910  0.1966
 3152TIP3    H230872   5.525   1.982   2.226  0.1117 -0.8088 -2.6480
 3153TIP3   OH230873   2.928   0.395   0.750 -0.4516  0.5417 -0.2692
 3153TIP3    H130874   2.913   0.315   0.801  0.6507 -1.0887 -2.3211
 3153TIP3    H230875   2.847   0.445   0.760 -1.0476 -0.6381  1.3726
 3154TIP3   OH230876   1.730   4.172   0.704 -0.6845 -0.4258 -0.1572
 3154TIP3    H130877   1.791   4.117   0.754 -0.3380  0.2164  0.1323
 3154TIP3    H230878   1.769   4.259   0.705 -0.5463 -0.4312 -1.7344
 3155TIP3   OH230879   2.117   2.325  14.160 -0.8153 -0.5752 -0.2885
 3155TIP3    H130880   2.084   2.406  14.122 -1.0983 -0.7224 -0.3659
 3155TIP3    H230881   2.164   2.353  14.239  1.7021 -0.0575 -1.8638
 3156TIP3   OH230882   3.316   5.958   1.300 -0.0884  0.3848  0.2912
 3156TIP3    H130883   3.280   5.952   1.389  1.3542  0.8676  0.9546
 3156TIP3    H230884   3.288   6.043   1.268  0.2547  0.6592  0.7099
 3157TIP3   OH230885   6.302   4.834   2.547  0.1273  0.0795  0.1234
 3157TIP3    H130886   6.279   4.889   2.622 -0.6782  0.9545 -0.7465
 3157TIP3    H230887   6.279   4.886   2.470  0.7411 -0.8839 -0.7465
 3158TIP3   OH230888   6.221   4.290   0.368  0.4911 -0.2890  0.0971
 3158TIP3    H130889   6.138   4.338   0.369  0.0682 -1.0145  0.5169
 3158TIP3    H230890   6.232   4.259   0.458  1.1241 -0.3508 -0.0004
 3159TIP3   OH230891   2.872   5.052   0.873  0.0959  0.6982  0.2849
 3159TIP3    H130892   2.889   5.121   0.809  1.4653 -0.9968 -1.2912
 3159TIP3    H230893   2.844   4.977   0.820 -0.1566 -0.3277  1.8178
 3160TIP3   OH230894   5.428   5.507  15.491  0.0551  0.3129  0.0109
 3160TIP3    H130895   5.393   5.479  15.407  0.6092 -0.7298  0.1201
 3160TIP3    H230896   5.366   5.473  15.555  0.0541  0.4361  0.0762
 3161TIP3   OH230897   2.066   6.719   2.014  0.0608 -0.0220  0.2659
 3161TIP3    H130898   2.073   6.788   2.081 -0.3548  0.8437 -0.5558
 3161TIP3    H230899   1.976   6.687   2.024  0.6982 -1.5091  1.6301
 3162TIP3   OH230900   3.749   3.273  14.671  0.0891 -0.0851 -0.0919
 3162TIP3    H130901   3.778   3.361  14.694 -2.3783  0.5358  0.9999
 3162TIP3    H230902   3.737   3.229  14.755  0.2958 -1.1195 -0.5917
 3163TIP3   OH230903   0.585   1.249   5.332  0.6764 -0.2211 -1.1352
 3163TIP3    H130904   0.501   1.295   5.325  1.4611  1.4634 -0.0946
 3163TIP3    H230905   0.598   1.237   5.426  1.7112 -0.2454 -1.2707
 3164TIP3   OH230906   3.119   5.788   0.965  0.6744  0.4276  0.3646
 3164TIP3    H130907   3.202   5.813   0.926  1.2789 -0.8434  0.7751
 3164TIP3    H230908   3.116   5.693   0.956  0.6389  0.1091  2.9432
 3165TIP3   OH230909   3.225   5.475  15.189  0.1677 -0.0411  0.4259
 3165TIP3    H130910   3.160   5.493  15.121  3.0102  1.5103 -2.1613
 3165TIP3    H230911   3.274   5.400  15.156 -1.0681 -2.1847  3.0589
 3166TIP3   OH230912   0.859   6.093  15.130 -0.1634 -0.2516  0.1179
 3166TIP3    H130913   0.895   6.070  15.044 -0.1250  2.1022 -0.5703
 3166TIP3    H230914   0.795   6.162  15.111 -2.2978 -1.6734  1.7186
 3167TIP3   OH230915   2.023   2.241  16.994 -0.0406  0.5855 -0.1166
 3167TIP3    H130916   2.099   2.184  17.003 -1.7931 -1.7510  0.9948
 3167TIP3    H230917   2.058   2.329  17.002  2.7714 -0.2631 -1.5127
 3168TIP3   OH230918   1.374   4.087  12.748  0.2595 -0.6929 -0.0008
 3168TIP3    H130919   1.461   4.049  12.733  0.8011  0.7490 -0.6935
 3168TIP3    H230920   1.391   4.171  12.790 -0.7867 -0.2507 -0.4361
 3169TIP3   OH230921   2.428   3.667   5.409  0.2780 -0.5396 -0.4503
 3169TIP3    H130922   2.383   3.676   5.493  1.0827  0.3446 -0.0945
 3169TIP3    H230923   2.516   3.638   5.432  0.2827 -1.0229 -1.0508
 3170TIP3   OH230924   4.062   3.212  12.514  0.2411  0.7600  0.0226
 3170TIP3    H130925   4.108   3.241  12.435  1.3018 -1.4191 -0.2516
 3170TIP3    H230926   4.120   3.235  12.586  0.7458  0.0326 -0.1339
 3171TIP3   OH230927   6.081   2.580  10.715 -0.0522 -0.1739 -0.3858
 3171TIP3    H130928   5.992   2.580  10.682  0.0711  0.6813 -0.7603
 3171TIP3    H230929   6.129   2.521  10.657 -0.2527 -0.1844 -0.5410
 3172TIP3   OH230930   4.684   4.172  10.881  0.7323  0.4698 -0.1990
 3172TIP3    H130931   4.612   4.191  10.821 -0.0685  0.5872  0.7873
 3172TIP3    H230932   4.642   4.143  10.962  1.8122 -0.1516  0.1566
 3173TIP3   OH230933   3.084   3.433  10.886 -0.0709 -0.1382  0.2531
 3173TIP3    H130934   3.132   3.483  10.820 -0.9434  0.0015 -0.2941
 3173TIP3    H230935   3.128   3.453  10.968  1.1298 -0.4378 -0.2982
 3174TIP3   OH230936   5.543   5.694   3.739  0.4978  0.0731  0.0248
 3174TIP3    H130937   5.598   5.740   3.802 -0.4050  1.9817 -0.4954
 3174TIP3    H230938   5.575   5.722   3.653 -0.7434  0.6141 -0.2951
 3175TIP3   OH230939   1.666   0.900  14.920 -0.0786 -0.3910  0.7740
 3175TIP3    H130940   1.690   0.883  14.829  0.8663 -2.1403  1.2982
 3175TIP3    H230941   1.582   0.945  14.915 -0.1701 -0.6865 -0.9503
 3176TIP3   OH230942   2.415   5.771   2.444 -0.3446 -0.5238 -0.3309
 3176TIP3    H130943   2.404   5.694   2.388 -2.4082 -0.0458 -0.6650
 3176TIP3    H230944   2.421   5.844   2.382 -0.7941 -0.1918  0.0077
 3177TIP3   OH230945   1.470   0.141  15.192  0.3175 -1.0726 -0.0527
 3177TIP3    H130946   1.434   0.225  15.219 -0.5128 -1.0124 -1.2302
 3177TIP3    H230947   1.531   0.162  15.122 -0.9961 -1.5154 -1.3914
 3178TIP3   OH230948   5.727   3.679   0.124 -0.3671  0.2310 -0.0794
 3178TIP3    H130949   5.776   3.616   0.178  0.1648 -0.5077 -1.3964
 3178TIP3    H230950   5.766   3.671   0.037 -2.3063  0.1966 -0.9760
 3179TIP3   OH230951   3.483   5.732   6.286  0.3129 -0.5557 -0.2228
 3179TIP3    H130952   3.568   5.771   6.309 -0.5042  0.9979  0.2928
 3179TIP3    H230953   3.435   5.803   6.244 -1.0968 -1.1228  0.3816
 3180TIP3   OH230954   3.801   3.448  14.459 -0.6759 -0.3940  0.1878
 3180TIP3    H130955   3.810   3.480  14.548 -0.6694 -1.1446  0.4645
 3180TIP3    H230956   3.754   3.364  14.468 -2.7624  0.5915 -0.6975
 3181TIP3   OH230957   4.313   3.253   0.852 -0.3893  0.4623 -0.4884
 3181TIP3    H130958   4.401   3.290   0.848  0.0454 -0.1320  2.0547
 3181TIP3    H230959   4.326   3.160   0.872 -1.5788  0.5287  0.7764
 3182TIP3   OH230960   1.231   4.398   3.742 -0.3680  0.4696  0.0011
 3182TIP3    H130961   1.147   4.391   3.788  0.0047  0.8515  0.7606
 3182TIP3    H230962   1.207   4.429   3.654 -1.1475 -0.9144 -0.3000
 3183TIP3   OH230963   5.852   3.360   0.498  0.3227 -0.2463  0.0592
 3183TIP3    H130964   5.900   3.402   0.426 -0.9380 -0.5620 -1.0048
 3183TIP3    H230965   5.763   3.349   0.464 -0.1040 -1.1354  1.3935
 3184TIP3   OH230966   0.295   1.266  14.655  0.3651  0.3564 -0.7271
 3184TIP3    H130967   0.220   1.320  14.681  0.6084 -0.2243  1.3800
 3184TIP3    H230968   0.257   1.182  14.630  0.2513  0.3681 -0.5920
 3185TIP3   OH230969   1.578   2.504  13.819  0.6746  0.1986 -0.6316
 3185TIP3    H130970   1.595   2.517  13.912  3.7815  1.5127 -1.2622
 3185TIP3    H230971   1.484   2.484  13.814  0.0609  1.6867  2.5900
 3186TIP3   OH230972   2.425   6.179   0.094 -0.1521 -0.6321 -0.2644
 3186TIP3    H130973   2.406   6.143   0.181 -2.1880 -1.8958 -1.1788
 3186TIP3    H230974   2.382   6.264   0.094 -0.3595 -0.7349 -0.1173
 3187TIP3   OH230975   0.849   5.343  11.856 -0.4794 -0.3078  0.2561
 3187TIP3    H130976   0.916   5.313  11.917 -0.3095 -1.6683 -0.5623
 3187TIP3    H230977   0.898   5.385  11.786 -0.5589 -0.2609  0.2292
 3188TIP3   OH230978   2.221   6.034  13.651 -0.0935 -0.4233  0.1617
 3188TIP3    H130979   2.307   6.060  13.618  0.9475 -1.0115  2.1891
 3188TIP3    H230980   2.189   6.111  13.698 -0.3433 -0.4351  0.0109
 3189TIP3   OH230981   0.367   1.001  12.506 -0.2405 -0.5983  0.3801
 3189TIP3    H130982   0.379   0.955  12.589 -1.4860  0.1975  1.0287
 3189TIP3    H230983   0.400   1.089  12.522  1.3660 -0.9763 -0.6068
 3190TIP3   OH230984   1.578   2.454   2.129 -0.3516 -0.2673 -0.2476
 3190TIP3    H130985   1.635   2.379   2.146  0.0671  0.1437  0.1488
 3190TIP3    H230986   1.498   2.415   2.094  0.6510 -0.7716 -2.1084
 3191TIP3   OH230987   4.579   0.375   2.061 -0.4087  0.2186  0.0458
 3191TIP3    H130988   4.523   0.453   2.066  0.2813  0.8598 -1.5625
 3191TIP3    H230989   4.565   0.342   1.972  1.9628  0.5893 -0.5323
 3192TIP3   OH230990   4.891   2.494  10.641 -0.6182 -0.3755  0.6984
 3192TIP3    H130991   4.974   2.469  10.681  0.9570  1.8630 -0.9049
 3192TIP3    H230992   4.875   2.427  10.574  0.0444 -0.6712  0.8298
 3193TIP3   OH230993   1.576   2.634  14.074  0.4019 -0.5811  0.7130
 3193TIP3    H130994   1.503   2.625  14.135  0.4913 -0.1014  0.8961
 3193TIP3    H230995   1.565   2.721  14.036  1.2811 -0.2159  1.2770
 3194TIP3   OH230996   2.941   4.427   4.809 -0.3115  0.8031 -1.0434
 3194TIP3    H130997   3.029   4.419   4.846 -0.2871  0.5080 -1.1564
 3194TIP3    H230998   2.903   4.504   4.851  0.1394  1.1569 -1.2724
 3195TIP3   OH230999   0.116   4.732   1.095  0.2736 -0.0707  0.4213
 3195TIP3    H131000   0.061   4.810   1.085 -0.9124 -0.8560  0.5662
 3195TIP3    H231001   0.204   4.761   1.071  0.0026  1.4996  1.2184
 3196TIP3   OH231002   6.419   2.382   3.190  0.5895  0.0182  0.5981
 3196TIP3    H131003   6.378   2.408   3.107 -1.2630  0.4632  1.6115
 3196TIP3    H231004   6.424   2.463   3.241 -0.6475 -0.6691  1.8766
 3197TIP3   OH231005   2.844   3.707   2.794 -0.5604  0.1710  0.2245
 3197TIP3    H131006   2.930   3.692   2.755 -0.3540  2.7136 -0.4961
 3197TIP3    H231007   2.853   3.679   2.885  1.7111  2.2240  0.7203
 3198TIP3   OH231008   5.387   2.569   5.800 -0.4363 -0.1174 -0.1622
 3198TIP3    H131009   5.467   2.528   5.832 -0.1092  0.0389 -0.7784
 3198TIP3    H231010   5.411   2.609   5.716 -1.5801 -1.6916 -1.3163
 3199TIP3   OH231011   4.779   4.623   6.720  0.0305  0.3491 -0.3020
 3199TIP3    H131012   4.737   4.694   6.672 -0.8356 -0.7671 -1.2564
 3199TIP3    H231013   4.789   4.657   6.809  0.0409  1.8114 -0.8399
 3200TIP3   OH231014   6.311   6.686  10.575 -0.2007  0.5848  0.0803
 3200TIP3    H131015   6.358   6.756  10.530  0.6018  0.3585  0.5398
 3200TIP3    H231016   6.363   6.608  10.559 -0.4075  0.3283  0.6102
 3201TIP3   OH231017   1.216   3.266  16.582  0.4759 -0.3830 -0.0956
 3201TIP3    H131018   1.163   3.310  16.515  2.0045 -0.1158 -1.1875
 3201TIP3    H231019   1.213   3.325  16.657 -1.3241 -0.7135  0.1347
 3202TIP3   OH231020   2.240   6.483   2.456 -0.0450 -0.2538 -0.1593
 3202TIP3    H131021   2.234   6.550   2.524  1.9933  1.7136 -1.7450
 3202TIP3    H231022   2.162   6.495   2.403 -0.3563 -0.0506  0.3410
 3203TIP3   OH231023   0.095   6.788  11.882 -0.3464  0.1854  0.3712
 3203TIP3    H131024   0.150   6.741  11.820  0.7078  0.3936  1.1091
 3203TIP3    H231025   0.052   6.720  11.934 -0.4872  0.0248  0.0455
 3204TIP3   OH231026   6.788   5.907   2.055  0.4127 -0.0145 -0.5316
 3204TIP3    H131027   6.871   5.860   2.062  0.0904 -0.6038 -0.6016
 3204TIP3    H231028   6.770   5.911   1.961  1.2107  1.6548 -0.6674
 3205TIP3   OH231029   6.169   3.016   2.411  0.2018  0.4476  0.2434
 3205TIP3    H131030   6.084   3.051   2.384  0.9873  1.0834 -1.6269
 3205TIP3    H231031   6.173   2.928   2.373 -0.7288 -0.7596  2.7678
 3206TIP3   OH231032   2.326   6.708  16.313  0.0906 -0.6726 -0.3332
 3206TIP3    H131033   2.395   6.642  16.322 -1.1308 -1.8025  1.5394
 3206TIP3    H231034   2.268   6.673  16.246 -0.7980 -1.8042  0.9753
 3207TIP3   OH231035   1.950   5.185   4.391 -0.2835  0.3533 -0.7161
 3207TIP3    H131036   1.933   5.251   4.459 -1.1070  0.0093 -0.5777
 3207TIP3    H231037   1.868   5.179   4.343 -1.0017 -2.1707  0.6612
 3208TIP3   OH231038   5.151   5.196   4.136 -0.6725  0.1814 -0.4211
 3208TIP3    H131039   5.225   5.195   4.197 -0.9065 -2.9331  0.0059
 3208TIP3    H231040   5.077   5.226   4.188  0.1986  3.4995 -0.8945
 3209TIP3   OH231041   1.015   2.887  12.818  0.1318  0.4168  0.2462
 3209TIP3    H131042   1.023   2.888  12.723 -0.6949  0.6624  0.1759
 3209TIP3    H231043   1.005   2.979  12.843  0.6237  0.3787  0.5970
 3210TIP3   OH231044   2.848   5.683  16.662  0.3499  0.1826 -0.3307
 3210TIP3    H131045   2.819   5.654  16.749  0.6956  1.5421  0.2582
 3210TIP3    H231046   2.936   5.647  16.653  0.7270  0.8928  0.3411
 3211TIP3   OH231047   5.391   2.187   6.535 -0.0696 -0.3609 -0.3490
 3211TIP3    H131048   5.454   2.258   6.549  0.8271 -1.1997  0.0506
 3211TIP3    H231049   5.444   2.115   6.499 -0.8291 -1.0312 -0.1558
 3212TIP3   OH231050   0.845   1.102   4.733  0.1101  0.2817 -0.1344
 3212TIP3    H131051   0.880   1.186   4.704  1.1212 -0.1136 -0.0714
 3212TIP3    H231052   0.793   1.123   4.811 -0.3572  0.9615 -0.6193
 3213TIP3   OH231053   4.521   6.023  16.680 -0.0340  0.4665 -0.4174
 3213TIP3    H131054   4.518   6.107  16.634  1.8345  1.2048  0.6796
 3213TIP3    H231055   4.557   6.044  16.767 -0.1538 -1.3713  0.1244
 3214TIP3   OH231056   1.135   3.282  13.863  0.7465  0.0606  0.2826
 3214TIP3    H131057   1.202   3.240  13.810 -0.1522 -1.0794  0.0079
 3214TIP3    H231058   1.107   3.215  13.925 -0.8594  0.1235 -0.3030
 3215TIP3   OH231059   4.855   2.571  15.916 -0.2244  0.0939  0.3559
 3215TIP3    H131060   4.796   2.604  15.849  0.6260  2.1688  0.5628
 3215TIP3    H231061   4.829   2.617  15.996 -1.2777 -2.3935  1.5580
 3216TIP3   OH231062   0.641   0.177  14.219  0.0254  0.6304 -0.0352
 3216TIP3    H131063   0.708   0.109  14.228 -0.1933  0.3721 -0.3355
 3216TIP3    H231064   0.633   0.215  14.306  2.0135  2.0428 -0.3723
 3217TIP3   OH231065   1.289   6.410   0.153 -0.3630 -0.5206 -0.1684
 3217TIP3    H131066   1.355   6.469   0.116  0.4009 -1.3092 -0.1091
 3217TIP3    H231067   1.339   6.331   0.177 -1.2031 -0.8317  0.5968
 3218TIP3   OH231068   5.981   2.607  15.326 -0.4011 -0.3982  0.0903
 3218TIP3    H131069   5.991   2.541  15.395  0.4866  0.9038  1.2674
 3218TIP3    H231070   5.959   2.557  15.248 -0.3151 -2.0299  1.0636
 3219TIP3   OH231071   0.035   4.141   0.103  0.4332  0.4067  0.8072
 3219TIP3    H131072   0.083   4.216   0.139  2.5666 -0.5545  0.1499
 3219TIP3    H231073   0.102   4.087   0.061 -1.2237 -1.1760  0.0129
 3220TIP3   OH231074   6.632   4.414   5.987  0.1060  0.0695 -0.3305
 3220TIP3    H131075   6.726   4.401   5.972 -0.2250 -0.6451 -1.9582
 3220TIP3    H231076   6.620   4.396   6.080  1.2050 -2.2890 -0.5836
 3221TIP3   OH231077   3.582   0.706  12.968 -0.5982  0.2418  0.1052
 3221TIP3    H131078   3.630   0.677  12.890 -0.9145 -1.2272  0.4205
 3221TIP3    H231079   3.502   0.654  12.967 -1.0633  0.9207  0.8889
 3222TIP3   OH231080   5.729   2.958   2.890  0.5356  0.2874  0.2768
 3222TIP3    H131081   5.637   2.959   2.865  0.8272  1.1888 -0.8422
 3222TIP3    H231082   5.748   3.048   2.917  1.8309  0.9420 -2.4979
 3223TIP3   OH231083   4.510   3.571  14.984 -0.1431 -0.3452  0.2602
 3223TIP3    H131084   4.545   3.517  15.055 -0.6214 -1.0326 -0.0239
 3223TIP3    H231085   4.438   3.620  15.025 -0.3375 -0.6478  0.2808
 3224TIP3   OH231086   3.663   1.030   2.362 -0.1036 -0.3473  0.1963
 3224TIP3    H131087   3.644   0.982   2.281  0.3044  2.5180 -1.7845
 3224TIP3    H231088   3.759   1.027   2.369 -0.0052  0.7439 -0.4026
 3225TIP3   OH231089   6.433   4.326  11.380  0.5196 -0.8108 -0.1965
 3225TIP3    H131090   6.458   4.382  11.306 -0.3727 -1.3291 -0.9254
 3225TIP3    H231091   6.400   4.387  11.446  1.1695 -0.3488 -0.2830
 3226TIP3   OH231092   4.319   5.017  16.619 -0.3787  0.4937 -0.3017
 3226TIP3    H131093   4.361   5.071  16.686 -0.9855  0.9328 -0.2629
 3226TIP3    H231094   4.229   5.051  16.614 -0.5472 -0.0119 -0.8233
 3227TIP3   OH231095   6.572   3.118   5.500 -0.3103  0.4516  0.8008
 3227TIP3    H131096   6.668   3.111   5.495 -0.3372  0.0776 -3.7955
 3227TIP3    H231097   6.554   3.207   5.468 -1.4806 -0.2554 -0.5954
 3228TIP3   OH231098   1.426   3.025  15.583 -0.1531  0.4320 -0.4853
 3228TIP3    H131099   1.440   2.941  15.627  2.0811  1.9321  1.9612
 3228TIP3    H231100   1.343   3.014  15.537 -0.8583 -2.4918  1.1916
 3229TIP3   OH231101   3.944   6.188  16.448 -0.0571  0.0702 -0.0060
 3229TIP3    H131102   4.000   6.262  16.472 -1.6592  1.4878 -0.3543
 3229TIP3    H231103   3.892   6.171  16.527  0.0288 -0.4288 -0.0551
 3230TIP3   OH231104   6.032   6.103   0.600 -0.0524  0.1090  0.1204
 3230TIP3    H131105   6.007   6.133   0.687 -1.7843 -0.4817 -0.1267
 3230TIP3    H231106   5.994   6.167   0.540 -0.8454 -0.6977 -0.2678
 3231TIP3   OH231107   5.478   4.864  12.132 -0.1035 -0.5694  0.2188
 3231TIP3    H131108   5.557   4.835  12.177 -1.8736  0.2427  4.3507
 3231TIP3    H231109   5.410   4.803  12.162 -1.4989  0.2229 -1.1923
 3232TIP3   OH231110   2.472   0.677  14.257 -0.2326  1.2947  0.0502
 3232TIP3    H131111   2.487   0.761  14.214 -2.1442  0.4478 -2.5208
 3232TIP3    H231112   2.426   0.624  14.192 -0.7373 -1.1412  2.2002
 3233TIP3   OH231113   6.196   4.646  11.137 -0.2343  0.0230  0.2714
 3233TIP3    H131114   6.256   4.597  11.081 -1.1864 -1.6289  0.6247
 3233TIP3    H231115   6.248   4.721  11.168  0.7881  0.1241 -1.5323
 3234TIP3   OH231116   0.081   0.590  12.685  0.0583  0.0536 -0.0525
 3234TIP3    H131117  -0.008   0.564  12.659 -0.5183 -0.8902  2.5384
 3234TIP3    H231118   0.081   0.685  12.679 -0.7793 -0.0014 -1.1051
 3235TIP3   OH231119   2.305   3.206  15.419 -0.2555  0.0953 -0.0683
 3235TIP3    H131120   2.310   3.113  15.397 -0.8669 -0.0305  0.2927
 3235TIP3    H231121   2.282   3.249  15.336  1.7747  0.1485 -0.6488
 3236TIP3   OH231122   0.319   4.220  14.089  0.0859 -0.1180 -0.2080
 3236TIP3    H131123   0.316   4.312  14.066 -0.4129 -0.0204  0.2451
 3236TIP3    H231124   0.410   4.194  14.072  1.0802  1.2067  2.5024
 3237TIP3   OH231125   1.524   4.104  13.446  0.0504  0.5415 -0.1651
 3237TIP3    H131126   1.601   4.085  13.500  1.0928 -1.4158 -2.1840
 3237TIP3    H231127   1.483   4.019  13.433 -1.3795  1.2923 -0.7148
 3238TIP3   OH231128   4.515   1.652   2.711  0.4072  0.3620 -0.7979
 3238TIP3    H131129   4.498   1.561   2.738  0.3067  0.4693 -0.4898
 3238TIP3    H231130   4.489   1.704   2.787  2.6907  0.5143 -0.0365
 3239TIP3   OH231131   5.112   1.758  12.749  0.1677 -0.1941 -0.0357
 3239TIP3    H131132   5.119   1.786  12.840 -0.2204  0.0091 -0.0671
 3239TIP3    H231133   5.131   1.836  12.698  0.8875 -0.4243 -0.1404
 3240TIP3   OH231134   2.313   2.272  17.107 -0.8975 -0.5296 -0.5089
 3240TIP3    H131135   2.286   2.268  17.199 -0.3947 -0.3791 -0.3546
 3240TIP3    H231136   2.352   2.187  17.089 -0.1105 -0.2184 -0.3048
 3241TIP3   OH231137   3.038   0.231  15.085  0.0246  0.4415  0.5244
 3241TIP3    H131138   2.991   0.295  15.032 -1.4392 -0.1719  1.0106
 3241TIP3    H231139   2.995   0.148  15.064  0.1797  0.0239  1.7934
 3242TIP3   OH231140   6.472   5.447  10.641 -0.0631 -0.0206  0.2186
 3242TIP3    H131141   6.527   5.522  10.618  0.5252 -0.9742 -1.7376
 3242TIP3    H231142   6.428   5.473  10.722  0.7748  2.0689  0.0643
 3243TIP3   OH231143   4.770   3.242   4.123  0.5161  0.4955 -0.2499
 3243TIP3    H131144   4.764   3.300   4.047  0.7507  2.6024  1.2589
 3243TIP3    H231145   4.853   3.264   4.164  0.6412 -0.9883  0.3574
 3244TIP3   OH231146   5.011   6.658   2.682 -0.0714  0.0955 -0.3245
 3244TIP3    H131147   5.035   6.729   2.742 -0.1943  0.6816 -0.9602
 3244TIP3    H231148   5.089   6.643   2.630 -0.1176 -0.0930 -0.3418
 3245TIP3   OH231149   5.492   6.050   3.045  0.0421 -0.3307  0.5314
 3245TIP3    H131150   5.465   6.002   3.123 -3.0701  0.8693  0.3606
 3245TIP3    H231151   5.418   6.042   2.985  1.4654  0.5404 -1.4601
 3246TIP3   OH231152   4.907   2.474  13.390  0.5336  0.0350 -0.3410
 3246TIP3    H131153   4.864   2.539  13.335 -0.3022 -1.1912 -1.1946
 3246TIP3    H231154   4.983   2.519  13.426 -0.2188  1.5828 -0.6032
 3247TIP3   OH231155   4.542   4.728  12.844  0.8232  0.4886  0.2338
 3247TIP3    H131156   4.606   4.657  12.844  1.8426  1.3606 -1.1816
 3247TIP3    H231157   4.525   4.745  12.751 -0.5326  1.1067  0.5766
 3248TIP3   OH231158   0.571   6.504  16.052 -0.1759 -0.1390  0.1220
 3248TIP3    H131159   0.660   6.536  16.065  0.7445 -2.7093  0.7649
 3248TIP3    H231160   0.516   6.567  16.099  1.3561  1.0359  0.4334
 3249TIP3   OH231161   6.349   5.858  12.796 -0.3955  0.4987 -0.0386
 3249TIP3    H131162   6.324   5.766  12.801 -0.6991  0.5553 -0.4321
 3249TIP3    H231163   6.426   5.866  12.852 -1.3352  0.3462  1.3146
 3250TIP3   OH231164   1.452   1.854   2.342  0.1466 -0.5360  0.1601
 3250TIP3    H131165   1.394   1.927   2.365  2.6722  0.8236  3.0254
 3250TIP3    H231166   1.434   1.787   2.408  2.4133  0.3825  1.8655
 3251TIP3   OH231167   1.161   5.378  11.465 -0.0917  0.5536 -0.3577
 3251TIP3    H131168   1.257   5.375  11.474  0.0676 -0.5668 -1.9362
 3251TIP3    H231169   1.139   5.471  11.469  0.7830  0.7374  2.1445
 3252TIP3   OH231170   0.228   0.433  11.526  0.1769 -0.3349 -0.4201
 3252TIP3    H131171   0.148   0.467  11.566 -0.0808 -1.2320 -0.1322
 3252TIP3    H231172   0.299   0.467  11.581 -0.1727 -1.5303  0.8237
 3253TIP3   OH231173   4.676   0.288   1.050  0.1611 -0.5200  0.4135
 3253TIP3    H131174   4.668   0.345   1.127 -1.7439  0.6471 -0.6089
 3253TIP3    H231175   4.625   0.210   1.073 -1.5875  0.4211 -0.1729
 3254TIP3   OH231176   1.680   4.728   3.861  0.1850 -0.5521 -0.0147
 3254TIP3    H131177   1.619   4.654   3.864  0.6289 -0.9910 -1.0186
 3254TIP3    H231178   1.765   4.690   3.885  0.6825 -0.7126 -1.8300
 3255TIP3   OH231179   1.470   5.618   3.666 -0.1686 -0.4241  0.6059
 3255TIP3    H131180   1.451   5.696   3.718 -0.3747 -0.5751  0.7594
 3255TIP3    H231181   1.566   5.614   3.663 -0.1415  0.6044 -0.5741
 3256TIP3   OH231182   2.735   5.838  10.815 -0.2619  0.0186 -0.2426
 3256TIP3    H131183   2.828   5.821  10.829 -0.3808  0.4147  1.1287
 3256TIP3    H231184   2.720   5.813  10.724  0.7923 -1.7952  0.0365
 3257TIP3   OH231185   5.010   6.460   1.050  0.7418 -0.0193  0.1751
 3257TIP3    H131186   4.940   6.482   0.987 -0.9774 -0.8981  1.6760
 3257TIP3    H231187   5.075   6.530   1.038  0.1163  0.2819 -1.9872
 3258TIP3   OH231188   5.439   3.404   2.300  0.0950 -0.5863  0.1360
 3258TIP3    H131189   5.399   3.318   2.315  0.2069 -0.4942  1.0078
 3258TIP3    H231190   5.470   3.431   2.387  1.0257 -0.1494 -0.3168
 3259TIP3   OH231191   3.673   5.374  14.133 -0.2151  0.0620  0.3916
 3259TIP3    H131192   3.681   5.470  14.136 -1.7831  0.1956  1.4117
 3259TIP3    H231193   3.707   5.345  14.217 -0.2047 -0.2341  0.2833
 3260TIP3   OH231194   0.867   3.961  13.422 -0.2772 -0.0780 -0.5377
 3260TIP3    H131195   0.950   3.915  13.408  0.5778  1.5002 -0.8916
 3260TIP3    H231196   0.884   4.019  13.496 -1.3749 -0.4049 -0.0093
 3261TIP3   OH231197   4.077   0.594  16.212  0.2319  0.4753  0.0645
 3261TIP3    H131198   4.075   0.564  16.121  0.0872  0.0534  0.2018
 3261TIP3    H231199   4.125   0.526  16.258  1.7676  1.4851  0.0329
 3262TIP3   OH231200   4.334   6.776  14.530 -0.0760  0.2539  0.3274
 3262TIP3    H131201   4.415   6.727  14.517 -0.0713  0.3200  0.1029
 3262TIP3    H231202   4.266   6.708  14.536  0.0143  0.1915  0.6719
 3263TIP3   OH231203   3.885   0.347   4.469 -0.2381  0.2128  0.0524
 3263TIP3    H131204   3.858   0.304   4.388 -0.4195 -2.8411  1.6090
 3263TIP3    H231205   3.981   0.341   4.469 -0.2896 -0.7535  0.5208
 3264TIP3   OH231206   5.008   6.252  11.621 -0.1989  0.5811 -0.5609
 3264TIP3    H131207   4.939   6.186  11.621  1.0451 -0.8251 -2.1612
 3264TIP3    H231208   4.963   6.335  11.602 -1.9835  0.5594  2.8266
 3265TIP3   OH231209   0.049   6.518   1.816  0.2991  0.3760  0.6952
 3265TIP3    H131210  -0.035   6.541   1.857 -0.0509  0.4296 -0.0274
 3265TIP3    H231211   0.110   6.512   1.888 -0.9046 -2.3726  1.6234
 3266TIP3   OH231212   3.406   1.953   2.096 -0.5941  0.0845  0.7180
 3266TIP3    H131213   3.321   1.987   2.070 -1.3494 -1.6034  0.8187
 3266TIP3    H231214   3.392   1.859   2.106  1.3170 -0.2528  0.6411
 3267TIP3   OH231215   4.276   1.134   5.388  0.1936 -0.1250 -0.1779
 3267TIP3    H131216   4.287   1.039   5.392  0.3981 -0.1236 -0.6358
 3267TIP3    H231217   4.181   1.147   5.383  0.1720 -0.3118 -0.2481
 3268TIP3   OH231218   2.670   5.065  11.531 -0.0553  0.2959 -0.0364
 3268TIP3    H131219   2.694   4.996  11.593  2.0913  0.3512 -0.7233
 3268TIP3    H231220   2.730   5.052  11.457 -1.1274  1.5326 -1.1631
 3269TIP3   OH231221   3.022   3.186   4.550 -0.4063  0.4938  0.2308
 3269TIP3    H131222   2.964   3.145   4.615  0.2476 -1.6231 -0.4384
 3269TIP3    H231223   2.992   3.153   4.466  0.8689  0.4843 -0.2489
 3270TIP3   OH231224   0.882   2.550  13.030 -0.4087  0.6544  0.7476
 3270TIP3    H131225   0.903   2.462  12.999  0.6612  1.0646  0.2695
 3270TIP3    H231226   0.861   2.538  13.123 -0.0865 -0.0769  0.7313
 3271TIP3   OH231227   6.353   1.043  15.893  0.1865 -0.5895  0.5504
 3271TIP3    H131228   6.291   1.068  15.961  0.5389 -1.7767  1.3573
 3271TIP3    H231229   6.303   1.048  15.811 -0.6374 -0.4402  1.0523
 3272TIP3   OH231230   5.532   0.709   3.827 -0.2176  0.2707  0.1592
 3272TIP3    H131231   5.617   0.683   3.863 -0.0807  0.1907 -0.2172
 3272TIP3    H231232   5.552   0.737   3.738 -0.6728 -0.2625 -0.1114
 3273TIP3   OH231233   3.218   2.342   4.722  0.2020 -0.1806  0.4823
 3273TIP3    H131234   3.258   2.257   4.704  0.6646 -0.3365  2.0661
 3273TIP3    H231235   3.244   2.362   4.812 -0.3087  1.4138  0.3061
 3274TIP3   OH231236   6.048   3.375  12.169  0.4527  0.3257  0.6448
 3274TIP3    H131237   6.111   3.445  12.151  0.4557  0.6503  1.8102
 3274TIP3    H231238   5.998   3.366  12.088  0.4362  1.7143  0.4759
 3275TIP3   OH231239   6.571   4.840  12.233  0.0712 -0.0733 -0.3842
 3275TIP3    H131240   6.630   4.906  12.272 -1.5852  0.9519  0.4966
 3275TIP3    H231241   6.532   4.796  12.309 -0.6213 -0.4382 -0.9485
 3276TIP3   OH231242   2.961   4.008   2.652  0.6110 -0.0367  0.0294
 3276TIP3    H131243   3.021   4.069   2.695 -0.2480  2.1827 -1.6675
 3276TIP3    H231244   3.002   3.922   2.660  2.4433  0.9198  1.5903
 3277TIP3   OH231245   5.124   4.964   2.552 -0.3748  0.5692 -0.0633
 3277TIP3    H131246   5.125   5.059   2.557 -0.8770  0.6714 -1.4395
 3277TIP3    H231247   5.181   4.943   2.478 -0.2525 -0.2002  0.2374
 3278TIP3   OH231248   4.297   1.566  15.762  0.1154 -0.1214 -0.2659
 3278TIP3    H131249   4.379   1.600  15.725 -0.0407  1.7813  0.9661
 3278TIP3    H231250   4.309   1.472  15.764  2.3246  0.1068 -0.0338
 3279TIP3   OH231251   3.021   0.561  11.517 -0.0363  0.9041 -0.3955
 3279TIP3    H131252   2.985   0.499  11.581 -0.7626  1.3934 -0.3328
 3279TIP3    H231253   3.111   0.575  11.546  1.1644 -2.3509 -2.0126
 3280TIP3   OH231254   2.213   5.420  11.056  0.3785  0.8016 -0.2291
 3280TIP3    H131255   2.153   5.441  11.127 -0.0530  1.2392 -0.7103
 3280TIP3    H231256   2.277   5.491  11.057  0.4815  0.7080 -0.1595
 3281TIP3   OH231257   6.664   2.181   1.362 -0.5537 -0.3860  0.0560
 3281TIP3    H131258   6.668   2.255   1.422 -0.2959 -0.7450  0.4893
 3281TIP3    H231259   6.596   2.124   1.397 -0.7446 -0.3633 -0.2695
 3282TIP3   OH231260   5.880   5.765  11.618 -0.3412  0.7693  0.5797
 3282TIP3    H131261   5.921   5.770  11.531  0.6057  0.8995  1.0247
 3282TIP3    H231262   5.907   5.845  11.662  1.4642 -0.5062  1.9512
 3283TIP3   OH231263   1.905   1.249   3.403 -0.6037  0.1968  0.0632
 3283TIP3    H131264   1.827   1.194   3.410 -0.3017 -0.8670 -3.0869
 3283TIP3    H231265   1.978   1.189   3.421 -0.4054  0.7283  1.1145
 3284TIP3   OH231266   1.630   6.410   6.113  0.0229  0.0088 -0.5276
 3284TIP3    H131267   1.585   6.444   6.036 -0.0874 -0.1798 -0.5467
 3284TIP3    H231268   1.645   6.487   6.168 -1.3447 -0.0592 -0.0033
 3285TIP3   OH231269   4.473   3.846  11.732  0.0734  0.5907  0.2169
 3285TIP3    H131270   4.486   3.793  11.810 -0.6573 -0.3931 -0.3078
 3285TIP3    H231271   4.509   3.932  11.755  0.2671  0.1951  1.4685
 3286TIP3   OH231272   0.720   0.626   2.705 -0.4071  0.1960  0.5141
 3286TIP3    H131273   0.665   0.563   2.658  0.7044  1.2270 -2.3739
 3286TIP3    H231274   0.779   0.572   2.757 -2.1595 -0.9903  1.3882
 3287TIP3   OH231275   5.302   2.000   3.070  0.5034  0.4286  0.0724
 3287TIP3    H131276   5.224   1.946   3.083  1.0924 -0.6003 -0.4824
 3287TIP3    H231277   5.269   2.089   3.058 -0.4120  0.4282  2.2627
 3288TIP3   OH231278   4.668   4.703  15.098  0.6473  0.2195  0.6262
 3288TIP3    H131279   4.762   4.703  15.078  0.8677  0.6572  1.5796
 3288TIP3    H231280   4.644   4.796  15.097  0.7452  0.3075  2.5770
 3289TIP3   OH231281   6.418   2.131   1.505 -0.3801 -0.2904 -0.1709
 3289TIP3    H131282   6.388   2.200   1.564 -1.9109 -0.7890 -0.3336
 3289TIP3    H231283   6.339   2.083   1.481  0.6719 -2.2993  0.1665
 3290TIP3   OH231284   2.521   5.560   0.884  0.8446  0.0227  0.3673
 3290TIP3    H131285   2.461   5.634   0.883  0.1191 -0.4534  2.7734
 3290TIP3    H231286   2.465   5.483   0.887  1.5995 -0.6679 -1.3849
 3291TIP3   OH231287   6.162   0.177  11.444 -0.2132 -0.1742  0.5641
 3291TIP3    H131288   6.073   0.141  11.450  0.5849 -2.7717 -1.1493
 3291TIP3    H231289   6.156   0.242  11.374 -0.5797 -1.1714 -0.3689
 3292TIP3   OH231290   1.730   5.654  15.012 -0.1647 -0.0290 -0.1163
 3292TIP3    H131291   1.690   5.568  15.001  0.0640 -0.4259  1.7548
 3292TIP3    H231292   1.824   5.637  15.005 -0.1748  0.4528 -1.8327
 3293TIP3   OH231293   5.690   1.411  13.160  0.3176 -0.7776  0.4401
 3293TIP3    H131294   5.697   1.493  13.111 -1.1133 -2.1000 -2.1778
 3293TIP3    H231295   5.771   1.364  13.141  0.4085 -0.6669  0.5579
 3294TIP3   OH231296   4.421   4.176   1.582 -0.1881 -0.1238  0.6944
 3294TIP3    H131297   4.360   4.247   1.604 -2.0526 -1.4912  0.2290
 3294TIP3    H231298   4.441   4.135   1.666 -0.8943 -0.3921  0.7457
 3295TIP3   OH231299   3.187   5.279  11.518  0.2439 -0.4659  0.4582
 3295TIP3    H131300   3.138   5.340  11.462  1.5554  0.1787 -0.0317
 3295TIP3    H231301   3.239   5.228  11.457  2.6808  1.1206  1.0819
 3296TIP3   OH231302   0.373   1.602  15.284 -0.2859  0.2040 -0.5894
 3296TIP3    H131303   0.337   1.642  15.205  1.7251 -1.4686 -2.4838
 3296TIP3    H231304   0.413   1.675  15.331 -1.6954  1.2732 -0.9712
 3297TIP3   OH231305   5.177   4.681  13.869 -0.4237 -0.3947 -0.0288
 3297TIP3    H131306   5.251   4.657  13.814 -0.2530  0.5836 -0.2405
 3297TIP3    H231307   5.108   4.707  13.808 -0.5558 -0.2064  0.1963
 3298TIP3   OH231308   2.521   5.270  13.223  0.7034  0.4157 -0.2094
 3298TIP3    H131309   2.594   5.280  13.163  1.4724 -0.0686  0.6230
 3298TIP3    H231310   2.559   5.287  13.310  0.3588 -2.0543  0.4887
 3299TIP3   OH231311   0.096   2.007  16.201 -0.3177 -0.2974  0.1355
 3299TIP3    H131312   0.189   1.988  16.197 -0.7161 -2.3095 -0.4381
 3299TIP3    H231313   0.074   2.044  16.116 -0.3971 -1.6837 -0.4629
 3300TIP3   OH231314   3.790   1.801  11.133 -0.5841  0.3398 -0.2174
 3300TIP3    H131315   3.760   1.711  11.146  0.4751 -0.1880 -1.2856
 3300TIP3    H231316   3.816   1.805  11.041 -0.1888  1.6121 -0.0673
 3301TIP3   OH231317   2.855   1.481   4.326  0.1840  0.0336  0.2458
 3301TIP3    H131318   2.923   1.423   4.291  0.1609 -0.0547  0.3446
 3301TIP3    H231319   2.848   1.552   4.262 -0.8529 -0.8531 -0.6630
 3302TIP3   OH231320   5.843   0.003   1.577 -0.4462 -0.4410  0.3002
 3302TIP3    H131321   5.916   0.004   1.639 -0.6050  0.4032  0.4896
 3302TIP3    H231322   5.776   0.059   1.617 -1.0373 -0.8742 -0.0628
 3303TIP3   OH231323   5.401   5.060   1.599  0.0641  0.2754 -0.2440
 3303TIP3    H131324   5.331   5.066   1.533 -0.4827 -0.0044  0.2944
 3303TIP3    H231325   5.466   5.002   1.559  0.4442  1.2958 -1.1384
 3304TIP3   OH231326   1.631   1.327  14.815  0.2412  0.4089 -0.2048
 3304TIP3    H131327   1.656   1.257  14.754  0.4831  1.3102 -1.1684
 3304TIP3    H231328   1.540   1.347  14.791 -1.0074 -1.7630  2.2313
 3305TIP3   OH231329   5.210   3.574  14.668  0.3046  0.4711 -0.6561
 3305TIP3    H131330   5.248   3.662  14.677  1.0415  0.1747 -0.8062
 3305TIP3    H231331   5.224   3.533  14.753 -0.5762  0.6881 -0.3858
 3306TIP3   OH231332   3.140   3.344   0.971  0.4922 -0.0549  0.4289
 3306TIP3    H131333   3.232   3.362   0.954  0.2518 -1.7196 -3.7804
 3306TIP3    H231334   3.136   3.250   0.989 -0.2681  0.3244  2.5595
 3307TIP3   OH231335   6.187   5.551  12.561 -0.0089  0.0399  0.5576
 3307TIP3    H131336   6.218   5.558  12.652  2.3756 -0.6174 -0.1326
 3307TIP3    H231337   6.267   5.547  12.509 -1.3238  0.1724 -1.5839
 3308TIP3   OH231338   5.016   5.414   5.227  0.5712  0.2928  0.2855
 3308TIP3    H131339   4.986   5.505   5.232  0.7591  0.3394  0.6506
 3308TIP3    H231340   4.939   5.362   5.249 -0.1842  0.2386 -2.1942
 3309TIP3   OH231341   0.579   3.784  14.831 -0.1320 -0.1620 -0.2974
 3309TIP3    H131342   0.618   3.833  14.903 -0.0584 -1.7015  0.7533
 3309TIP3    H231343   0.654   3.756  14.778  0.0291 -0.9568  0.3193
 3310TIP3   OH231344   0.840   4.931  12.068  0.1554  0.0597  0.2385
 3310TIP3    H131345   0.796   4.909  12.150 -1.6422 -0.6342 -0.8419
 3310TIP3    H231346   0.786   5.001  12.030 -0.5156 -1.3271 -1.4800
 3311TIP3   OH231347   2.002   2.577  14.117  0.0306  0.1967  0.1817
 3311TIP3    H131348   1.909   2.595  14.131  0.2655  1.1159  0.6755
 3311TIP3    H231349   2.041   2.664  14.104  0.7169 -0.2314 -0.6636
 3312TIP3   OH231350   6.249   2.592   3.543 -0.6057  0.2473 -0.0345
 3312TIP3    H131351   6.160   2.568   3.520 -0.3316 -1.1384  0.2384
 3312TIP3    H231352   6.297   2.587   3.460 -0.5450 -0.2021  0.0251
 3313TIP3   OH231353   0.434   4.447   2.995  0.3198 -0.1111  0.0273
 3313TIP3    H131354   0.472   4.406   3.073  0.3740 -0.5770 -0.2405
 3313TIP3    H231355   0.340   4.440   3.009  0.0882  4.4485  2.5389
 3314TIP3   OH231356   6.655   6.560   5.185  0.0076 -0.0226  0.1614
 3314TIP3    H131357   6.751   6.562   5.186 -0.0054  0.5733  0.1171
 3314TIP3    H231358   6.632   6.502   5.258  0.3702  1.2142  1.3052
 3315TIP3   OH231359   3.742   6.295  13.795 -0.3554  0.3710  0.0821
 3315TIP3    H131360   3.679   6.273  13.863 -0.0907 -0.0510  0.2023
 3315TIP3    H231361   3.807   6.225  13.800  0.8820  1.5248  0.9031
 3316TIP3   OH231362   2.112   3.938  14.521 -0.1968 -0.5491 -0.0421
 3316TIP3    H131363   2.103   4.024  14.480 -1.7794 -0.3078  0.7327
 3316TIP3    H231364   2.118   3.877  14.448 -0.1870  0.1109 -0.6077
 3317TIP3   OH231365   5.733   4.035  14.232  0.2152 -0.0388  0.0338
 3317TIP3    H131366   5.712   4.048  14.325  1.9327  1.4518  0.2565
 3317TIP3    H231367   5.746   4.124  14.198 -1.5947 -0.4665 -1.9728
 3318TIP3   OH231368   3.756   1.709   1.479 -0.3474  0.1186 -0.5947
 3318TIP3    H131369   3.820   1.643   1.454  1.3543  1.5231 -0.1663
 3318TIP3    H231370   3.805   1.770   1.535 -1.3968  2.6101 -2.2150
 3319TIP3   OH231371   4.477   0.902   1.001  0.1949 -0.2026 -0.4948
 3319TIP3    H131372   4.451   0.993   1.017 -1.1650 -0.7575  0.6306
 3319TIP3    H231373   4.553   0.889   1.058 -1.2455 -0.5150  1.4692
 3320TIP3   OH231374   2.320   6.332   0.406  0.7021  0.2740  0.1348
 3320TIP3    H131375   2.326   6.265   0.474 -0.0987 -0.0886 -0.1509
 3320TIP3    H231376   2.409   6.367   0.399  1.2327 -1.0617 -0.0183
 3321TIP3   OH231377   4.438   0.659  17.123  0.3724  0.0216 -0.2966
 3321TIP3    H131378   4.443   0.744  17.165 -1.5584  0.8852 -1.6745
 3321TIP3    H231379   4.509   0.660  17.059  0.7175  0.3475  0.0819
 3322TIP3   OH231380   0.018   3.508  13.489 -0.5978  0.8147 -0.2562
 3322TIP3    H131381  -0.032   3.555  13.556 -0.5068  0.5643 -0.0107
 3322TIP3    H231382   0.097   3.480  13.534 -0.8074  0.1335 -0.3101
 3323TIP3   OH231383   0.919   6.775  13.827  0.0057  0.2054 -0.1396
 3323TIP3    H131384   0.973   6.727  13.765  0.4250  0.8631 -0.2988
 3323TIP3    H231385   0.866   6.708  13.871  2.1186 -0.6819  1.1973
 3324TIP3   OH231386   4.260   1.464   3.069 -0.1647  0.6185  0.0875
 3324TIP3    H131387   4.234   1.555   3.084 -2.0902  0.1640 -0.2808
 3324TIP3    H231388   4.214   1.415   3.136  0.0415 -0.2145 -0.3700
 3325TIP3   OH231389   2.576   4.478  14.554 -0.4831 -0.4071 -0.3932
 3325TIP3    H131390   2.519   4.552  14.534  0.1227 -0.0553 -0.8089
 3325TIP3    H231391   2.664   4.515  14.560 -0.4240 -0.7262  1.4755
 3326TIP3   OH231392   2.541   1.963   6.287  0.3892  0.3005 -0.4176
 3326TIP3    H131393   2.535   2.019   6.364 -0.1084  2.2891 -1.8089
 3326TIP3    H231394   2.456   1.919   6.283  0.7699 -0.5796  0.6697
 3327TIP3   OH231395   2.578   4.837   5.190 -0.0420  0.1251 -0.2117
 3327TIP3    H131396   2.660   4.798   5.160 -0.5676  0.0825 -1.6633
 3327TIP3    H231397   2.521   4.762   5.208 -0.2761  0.1675 -0.7468
 3328TIP3   OH231398   3.724   6.243   4.470  0.0284  0.0071  0.3716
 3328TIP3    H131399   3.781   6.170   4.445 -0.3258 -0.5084  1.0557
 3328TIP3    H231400   3.773   6.289   4.539  0.3501  0.5581 -0.2123
 3329TIP3   OH231401   5.546   0.399  16.332 -0.0160 -0.0759  0.0358
 3329TIP3    H131402   5.608   0.377  16.263  1.7830 -2.4618  2.2501
 3329TIP3    H231403   5.596   0.455  16.392 -0.5924 -0.4700  0.8989
 3330TIP3   OH231404   5.410   0.830  15.697  0.1442  0.8741  0.1930
 3330TIP3    H131405   5.368   0.809  15.614  0.2757  1.1787  0.0494
 3330TIP3    H231406   5.448   0.747  15.726  0.0291  0.7494 -0.0093
 3331TIP3   OH231407   0.928   0.552  12.258  0.5230 -0.2804 -0.0365
 3331TIP3    H131408   0.838   0.582  12.249  0.5447 -0.1608  0.1344
 3331TIP3    H231409   0.926   0.460  12.232  0.4778 -0.0997 -0.6725
 3332TIP3   OH231410   4.620   3.788   4.282 -0.5784  0.1507 -0.0377
 3332TIP3    H131411   4.562   3.803   4.357 -0.4449 -1.7779  0.5266
 3332TIP3    H231412   4.686   3.857   4.288 -0.9831  0.4583  1.1996
 3333TIP3   OH231413   2.319   2.394  16.857 -0.2590 -0.4136  0.1248
 3333TIP3    H131414   2.247   2.450  16.885  0.0584  0.2597 -0.3621
 3333TIP3    H231415   2.358   2.362  16.938 -1.0175 -0.6877  0.3942
 3334TIP3   OH231416   5.948   4.938  14.018 -0.0448 -0.3050 -0.7377
 3334TIP3    H131417   5.945   4.969  13.927 -0.4080 -1.9760 -1.3213
 3334TIP3    H231418   5.863   4.963  14.054 -0.4404 -0.8281 -1.2843
 3335TIP3   OH231419   3.532   2.546   0.475  0.0815  0.3885  0.2543
 3335TIP3    H131420   3.601   2.487   0.508  1.4250  1.3488 -0.7467
 3335TIP3    H231421   3.564   2.634   0.494 -1.1031  0.8530  0.1831
 3336TIP3   OH231422   1.955   1.903  12.010 -0.3339 -0.5807  0.5718
 3336TIP3    H131423   2.010   1.826  11.998  2.4066  1.1214  1.3617
 3336TIP3    H231424   1.894   1.901  11.935  0.6659 -2.6637 -0.2521
 3337TIP3   OH231425   0.545   4.765  15.421  0.0843 -0.3246  0.1001
 3337TIP3    H131426   0.512   4.788  15.334  1.0701 -3.2266 -1.1508
 3337TIP3    H231427   0.610   4.833  15.440 -1.5150  1.4739 -0.4730
 3338TIP3   OH231428   1.074   4.252  12.870  0.1613 -0.6168 -0.1373
 3338TIP3    H131429   1.155   4.277  12.916  0.3992 -0.4352 -0.6493
 3338TIP3    H231430   1.082   4.157  12.859  0.0440 -0.6816  0.3036
 3339TIP3   OH231431   6.723   2.174  17.087 -0.0256 -0.4929  0.0821
 3339TIP3    H131432   6.631   2.167  17.061  0.3497  0.2432 -1.6359
 3339TIP3    H231433   6.748   2.263  17.063  0.8536 -0.2997  1.5940
 3340TIP3   OH231434   0.221   0.131   3.483  0.0389  0.1048  0.4182
 3340TIP3    H131435   0.130   0.104   3.474  0.4504 -1.2447  0.1186
 3340TIP3    H231436   0.263   0.101   3.402  0.9548 -0.1578  0.9818
 3341TIP3   OH231437   3.109   5.230  16.745 -0.1478  0.4574 -0.0153
 3341TIP3    H131438   3.204   5.232  16.756  0.3502 -0.7044 -3.1134
 3341TIP3    H231439   3.077   5.188  16.824  2.2561 -2.0405 -0.2025
 3342TIP3   OH231440   0.981   4.581   6.218  0.1088 -0.3466  0.2074
 3342TIP3    H131441   1.047   4.649   6.232 -0.0045  0.0353 -0.9745
 3342TIP3    H231442   0.968   4.542   6.304  4.0817 -2.4877  0.1000
 3343TIP3   OH231443   5.695   3.058  14.330  0.0404 -0.1717  0.2321
 3343TIP3    H131444   5.726   2.971  14.356  1.0102 -0.1327 -0.7028
 3343TIP3    H231445   5.627   3.040  14.265  0.1273 -0.2483  0.1598
 3344TIP3   OH231446   2.312   2.920  11.556 -0.1968 -0.1042 -0.2622
 3344TIP3    H131447   2.312   2.999  11.502  1.9383  0.6605  0.7448
 3344TIP3    H231448   2.234   2.927  11.610 -1.1042  0.2890 -1.5893
 3345TIP3   OH231449   4.441   2.248   1.315  0.3622 -0.3472 -0.2697
 3345TIP3    H131450   4.347   2.231   1.327 -0.0941 -0.6850 -3.4442
 3345TIP3    H231451   4.484   2.169   1.349 -0.6921 -1.1283 -0.6769
 3346TIP3   OH231452   4.975   2.658  13.720  0.6162 -0.5300  0.2431
 3346TIP3    H131453   4.963   2.575  13.767 -2.9276 -0.5186 -0.3240
 3346TIP3    H231454   5.002   2.633  13.632 -1.0196 -1.2446 -0.1093
 3347TIP3   OH231455   0.201   1.970  12.756 -0.0035 -0.4855 -0.0832
 3347TIP3    H131456   0.216   1.923  12.675 -0.6154 -2.6006  0.9560
 3347TIP3    H231457   0.275   2.031  12.763  0.5456 -0.9171 -1.7425
 3348TIP3   OH231458   6.332   5.330  15.719  0.4005 -0.1407  0.2573
 3348TIP3    H131459   6.292   5.243  15.712 -0.7614  0.2931  1.1674
 3348TIP3    H231460   6.338   5.346  15.813  1.0192  0.5800  0.1033
 3349TIP3   OH231461   4.253   6.056   4.274 -0.0778  0.7987 -0.0557
 3349TIP3    H131462   4.308   5.993   4.226  2.5092  1.0340  2.3325
 3349TIP3    H231463   4.231   6.123   4.209  1.7958  0.2592 -1.3362
 3350TIP3   OH231464   3.156   0.439  16.790 -0.8691  0.2304 -0.3039
 3350TIP3    H131465   3.114   0.477  16.867 -0.8217 -1.6829  0.7147
 3350TIP3    H231466   3.245   0.418  16.818 -1.3931 -2.1767 -0.2423
 3351TIP3   OH231467   2.462   4.806  12.754  0.0801 -0.5454  0.0602
 3351TIP3    H131468   2.454   4.866  12.680 -0.0401  0.2024  0.6688
 3351TIP3    H231469   2.409   4.846  12.822  0.6273 -0.9542  0.7306
 3352TIP3   OH231470   2.905   3.888  12.994 -0.8714  0.3419 -0.0736
 3352TIP3    H131471   2.928   3.860  12.905  2.7422 -1.1517  1.1669
 3352TIP3    H231472   2.837   3.825  13.020  0.9041 -1.8874 -0.4579
 3353TIP3   OH231473   5.515   1.294   4.324  0.4524 -0.3133 -0.4833
 3353TIP3    H131474   5.524   1.381   4.363 -0.4035 -0.1440 -0.6463
 3353TIP3    H231475   5.605   1.268   4.303  0.7315  0.4648 -0.2904
 3354TIP3   OH231476   5.737   5.885   3.090 -0.4829  0.1832 -0.1584
 3354TIP3    H131477   5.675   5.815   3.108 -1.7178  1.2644 -0.0576
 3354TIP3    H231478   5.753   5.925   3.175 -0.5273  0.6185 -0.3519
 3355TIP3   OH231479   5.332   3.803  14.269  0.2155  0.0213  0.8400
 3355TIP3    H131480   5.243   3.835  14.285 -0.6173 -1.8110  0.1722
 3355TIP3    H231481   5.328   3.710  14.290  2.6766  0.3296  3.3220
 3356TIP3   OH231482   4.783   6.084  13.376  0.4704  0.2960 -0.0801
 3356TIP3    H131483   4.692   6.058  13.390  0.7309 -0.7616 -0.2749
 3356TIP3    H231484   4.835   6.020  13.425  1.0851  1.7977  1.3383
 3357TIP3   OH231485   1.580   3.137  12.130 -0.0809  0.7827 -0.2658
 3357TIP3    H131486   1.493   3.105  12.104 -0.0438 -0.4464  1.0103
 3357TIP3    H231487   1.611   3.187  12.054 -1.7915  1.0380 -0.8359
 3358TIP3   OH231488   2.205   5.829  13.460  0.0723  0.0646 -0.0692
 3358TIP3    H131489   2.121   5.870  13.442  0.0770  0.6556  1.1502
 3358TIP3    H231490   2.239   5.875  13.537  1.0112 -0.8796  0.1127
 3359TIP3   OH231491   0.091   2.420   3.769  0.0182 -0.2910 -0.4778
 3359TIP3    H131492   0.156   2.418   3.699  0.2939 -1.2694 -0.2030
 3359TIP3    H231493   0.125   2.360   3.835 -1.5627 -1.4927 -0.6999
 3360TIP3   OH231494   5.549   2.851  11.096  0.8373 -0.3560  0.2707
 3360TIP3    H131495   5.576   2.940  11.076  1.6527 -0.2586  1.7027
 3360TIP3    H231496   5.464   2.841  11.053  0.0480  1.5973  1.2593
 3361TIP3   OH231497   5.989   2.826   2.954  0.6122  0.1578  0.1068
 3361TIP3    H131498   5.917   2.883   2.927  0.8548  0.2485 -0.3619
 3361TIP3    H231499   6.047   2.824   2.878  2.2287  1.8311  1.2316
 3362TIP3   OH231500   2.240   2.452  15.163 -0.2865  0.0017  0.0002
 3362TIP3    H131501   2.334   2.457  15.182 -0.6998 -0.0655  2.3548
 3362TIP3    H231502   2.235   2.453  15.068  2.0905  0.1902 -0.1860
 3363TIP3   OH231503   3.815   2.949   3.695 -0.1024  0.0051  0.2265
 3363TIP3    H131504   3.830   2.855   3.700  0.9437  0.1755  0.3906
 3363TIP3    H231505   3.884   2.988   3.749  1.3545  1.0265 -2.2487
 3364TIP3   OH231506   6.729   5.311   6.538 -0.3956 -0.3868  0.0910
 3364TIP3    H131507   6.794   5.373   6.505  0.1359 -1.0255 -0.0717
 3364TIP3    H231508   6.753   5.297   6.629 -0.5669 -0.3044  0.1513
 3365TIP3   OH231509   0.153   3.505   2.674  0.6660 -0.1680 -0.0814
 3365TIP3    H131510   0.127   3.582   2.724 -1.3789 -0.6853 -0.2330
 3365TIP3    H231511   0.178   3.440   2.740 -2.3931 -0.9860  0.4393
 3366TIP3   OH231512   4.770   3.261   5.299  0.3770 -0.9326 -0.6160
 3366TIP3    H131513   4.758   3.193   5.233 -0.5224 -0.2924 -1.1235
 3366TIP3    H231514   4.766   3.213   5.382  1.9321 -1.8043 -0.9834
 3367TIP3   OH231515   3.437   3.361   0.402 -0.3232  0.7216  0.2185
 3367TIP3    H131516   3.390   3.396   0.326 -1.7925  1.0550  1.2425
 3367TIP3    H231517   3.369   3.323   0.457  0.6699  0.8304  1.5620
 3368TIP3   OH231518   3.263   0.941  15.986  0.0039 -0.0719  0.0867
 3368TIP3    H131519   3.206   0.948  15.909  2.1631 -1.6050 -1.7959
 3368TIP3    H231520   3.226   0.868  16.036 -1.3848  0.8994  0.5407
 3369TIP3   OH231521   3.217   3.473   3.735  0.1555  0.0532 -0.7712
 3369TIP3    H131522   3.280   3.523   3.786 -0.8804  1.5058 -0.8450
 3369TIP3    H231523   3.265   3.445   3.658  1.2822 -0.7419  0.1938
 3370TIP3   OH231524   5.306   1.440   1.891 -0.0501  0.4077 -0.2634
 3370TIP3    H131525   5.322   1.534   1.893 -1.1778  0.6115 -0.3402
 3370TIP3    H231526   5.221   1.428   1.935 -0.1769 -0.5097 -0.7227
 3371TIP3   OH231527   1.837   3.473   0.658 -0.2620 -0.5374  0.5587
 3371TIP3    H131528   1.785   3.418   0.717 -1.3376  2.2385  2.4067
 3371TIP3    H231529   1.874   3.541   0.714  2.8976 -0.5683 -1.2264
 3372TIP3   OH231530   2.557   4.930   1.910  0.0164  0.2182  0.3685
 3372TIP3    H131531   2.482   4.879   1.940  0.0440 -1.7058 -2.4636
 3372TIP3    H231532   2.631   4.869   1.913  0.3704  0.4911 -1.6765
 3373TIP3   OH231533   3.366   3.399   3.529  0.2045  0.5856  0.3142
 3373TIP3    H131534   3.450   3.356   3.515  1.0494  2.5121 -0.8548
 3373TIP3    H231535   3.335   3.421   3.441 -1.7677 -0.4636  0.6898
 3374TIP3   OH231536   0.450   6.453  12.963  0.3724 -0.4221 -0.1744
 3374TIP3    H131537   0.479   6.389  12.898  2.1449 -1.1191  1.2200
 3374TIP3    H231538   0.354   6.447  12.961  0.3435 -0.4587 -2.6163
 3375TIP3   OH231539   1.794   5.434  11.343 -0.4504  0.5471 -0.6938
 3375TIP3    H131540   1.741   5.404  11.269 -0.2569 -0.5094 -0.4190
 3375TIP3    H231541   1.883   5.442  11.309 -0.1148 -1.1539 -0.3001
 3376TIP3   OH231542   1.922   0.150   3.030  0.1511 -0.0973  0.2109
 3376TIP3    H131543   1.953   0.083   3.091  0.2061  0.9533  1.3797
 3376TIP3    H231544   1.983   0.146   2.957  0.7798 -0.6069  0.7540
 3377TIP3   OH231545   4.326   1.862   1.829 -0.5088 -0.0376  0.2546
 3377TIP3    H131546   4.355   1.804   1.758 -0.6016 -1.7350  1.5515
 3377TIP3    H231547   4.404   1.912   1.852 -0.6035  0.9422 -1.3617
 3378TIP3   OH231548   3.200   5.717  15.285 -0.2767 -0.1611  0.0748
 3378TIP3    H131549   3.210   5.630  15.247  1.3642  0.9017 -2.1506
 3378TIP3    H231550   3.110   5.742  15.263  0.4163  0.1700 -2.8366
 3379TIP3   OH231551   3.290   6.183   5.780 -0.2382  0.2125  0.3483
 3379TIP3    H131552   3.369   6.238   5.783 -0.3304  0.3546  0.1952
 3379TIP3    H231553   3.295   6.130   5.860 -0.1451  0.4385  0.4951
 3380TIP3   OH231554   5.417   3.664   5.222 -0.0295  0.0424  0.2825
 3380TIP3    H131555   5.436   3.730   5.289  3.5939 -2.0966  1.6829
 3380TIP3    H231556   5.355   3.605   5.264  2.9985 -1.8900  2.5151
 3381TIP3   OH231557   3.464   0.419  14.838 -0.0148 -0.3971 -0.3273
 3381TIP3    H131558   3.387   0.370  14.868  0.9550 -1.8880 -0.1628
 3381TIP3    H231559   3.431   0.506  14.817 -1.6290 -0.8266  0.3261
 3382TIP3   OH231560   2.150   1.981   0.130  0.4309  0.0247 -0.6384
 3382TIP3    H131561   2.207   2.018   0.197 -0.8231 -0.2328  0.6304
 3382TIP3    H231562   2.205   1.917   0.085  1.2872  0.1261  0.2098
 3383TIP3   OH231563   5.027   0.042  11.110 -0.1008 -0.1153  0.5836
 3383TIP3    H131564   5.120   0.020  11.119  0.5484  1.2413 -1.7891
 3383TIP3    H231565   4.987  -0.036  11.073 -0.3540 -1.3351  3.2029
 3384TIP3   OH231566   0.899   4.494   0.124  0.4451 -0.2099 -0.0439
 3384TIP3    H131567   0.955   4.430   0.167  0.2922 -0.4766 -0.2345
 3384TIP3    H231568   0.845   4.531   0.194 -0.3730 -1.2260 -0.1128
 3385TIP3   OH231569   5.206   1.960   3.407  0.0580  0.3652 -0.5416
 3385TIP3    H131570   5.217   2.051   3.379  0.8460  0.3916 -0.1775
 3385TIP3    H231571   5.249   1.957   3.493  1.3505 -0.6935 -1.2002
 3386TIP3   OH231572   4.931   3.596   2.135 -0.5281 -0.2192  0.6924
 3386TIP3    H131573   4.917   3.502   2.148  0.0942 -0.5914 -1.0496
 3386TIP3    H231574   5.003   3.618   2.195  0.0434 -1.1075  0.3586
 3387TIP3   OH231575   5.911   4.689   4.262 -0.0622  0.5698 -0.0740
 3387TIP3    H131576   5.868   4.605   4.278 -0.4145  1.2984  3.6702
 3387TIP3    H231577   5.845   4.741   4.216 -1.4493  0.1307  1.3352
 3388TIP3   OH231578   0.192   4.494  15.731  0.6701  0.0105  0.0667
 3388TIP3    H131579   0.136   4.416  15.730 -2.4097  2.0410  0.7422
 3388TIP3    H231580   0.258   4.475  15.798 -0.7942 -1.5540  1.1634
 3389TIP3   OH231581   2.410   2.530   1.581 -0.0644 -0.2390  0.2465
 3389TIP3    H131582   2.397   2.612   1.629 -0.4428 -1.0724  1.6372
 3389TIP3    H231583   2.498   2.537   1.545  0.3319  0.3375  1.2835
 3390TIP3   OH231584   2.863   6.738  14.083  0.3643  0.5838  0.6433
 3390TIP3    H131585   2.944   6.777  14.050  0.4263  0.7458  0.9891
 3390TIP3    H231586   2.793   6.791  14.043  0.4515  1.1992  1.2983
 3391TIP3   OH231587   4.727   4.757   0.900 -0.7501 -0.0697  0.5647
 3391TIP3    H131588   4.646   4.763   0.850 -0.2488 -0.3773 -0.3060
 3391TIP3    H231589   4.793   4.796   0.844 -0.3795  0.6729  1.4970
 3392TIP3   OH231590   4.303   3.953  14.195  0.1915  0.4421  0.1247
 3392TIP3    H131591   4.379   3.960  14.137  4.0120 -1.0656  4.3623
 3392TIP3    H231592   4.302   3.861  14.222 -0.9024  1.1697  2.8656
 3393TIP3   OH231593   5.046   4.611   3.897  0.1057  0.3406  0.3257
 3393TIP3    H131594   4.992   4.689   3.884  1.0786  0.8079 -1.1159
 3393TIP3    H231595   5.015   4.548   3.831  2.4133  1.2657 -1.8010
 3394TIP3   OH231596   6.288   1.323   4.727 -0.2116  0.0475 -0.0617
 3394TIP3    H131597   6.221   1.276   4.775  0.6782 -2.1770 -0.8777
 3394TIP3    H231598   6.368   1.272   4.739  0.4014  0.2956 -2.4820
 3395TIP3   OH231599   2.898   6.763  11.659  0.3990  0.6006 -0.6124
 3395TIP3    H131600   2.937   6.837  11.706  1.1524  0.8362 -1.5724
 3395TIP3    H231601   2.881   6.798  11.571 -1.7445  0.4238 -0.3221
 3396TIP3   OH231602   3.150   1.964   2.032 -0.6831  0.0096  0.1025
 3396TIP3    H131603   3.094   2.033   1.996  0.1509  1.0696  0.7691
 3396TIP3    H231604   3.094   1.919   2.095 -0.7959  1.1105  0.8218
 3397TIP3   OH231605   2.319   0.828   0.713 -0.3949  0.7255  0.1644
 3397TIP3    H131606   2.389   0.788   0.661 -0.4070  0.1688  0.5721
 3397TIP3    H231607   2.316   0.919   0.683  0.4860  0.7485  0.1256
 3398TIP3   OH231608   5.928   1.752  13.271  0.7913  0.3571 -0.1929
 3398TIP3    H131609   5.932   1.693  13.195 -0.0560 -0.7933  0.6109
 3398TIP3    H231610   5.836   1.781  13.273  1.0920  1.3595 -0.2997
 3399TIP3   OH231611   0.759   2.215  11.052  0.7027  0.2812  0.5722
 3399TIP3    H131612   0.688   2.152  11.065 -0.4765  1.3708 -0.2712
 3399TIP3    H231613   0.817   2.173  10.990  0.5802 -0.4669  0.9535
 3400TIP3   OH231614   1.436   3.504  13.372 -0.3288 -0.4101  0.1580
 3400TIP3    H131615   1.498   3.534  13.438  0.1657  0.2641 -0.6034
 3400TIP3    H231616   1.489   3.492  13.293 -1.0207 -0.6296 -0.2773
 3401TIP3   OH231617   3.700   5.779  14.041  0.1414 -0.0114 -0.3078
 3401TIP3    H131618   3.726   5.719  14.111  1.8153  1.1166  0.0899
 3401TIP3    H231619   3.771   5.775  13.977  0.4310  1.6856 -0.1507
 3402TIP3   OH231620   2.618   4.500  16.569  0.0147 -0.4494  0.4859
 3402TIP3    H131621   2.538   4.538  16.532  1.0073  2.0575  0.7090
 3402TIP3    H231622   2.607   4.406  16.558 -3.0324 -0.2153  0.6761
 3403TIP3   OH231623   1.307   5.166   3.554 -0.5684 -0.4730  0.4120
 3403TIP3    H131624   1.333   5.082   3.515 -0.0780  0.2183 -0.8227
 3403TIP3    H231625   1.280   5.219   3.479 -0.6200  0.5546  1.1453
 3404TIP3   OH231626   2.189   0.729  16.344  0.0163  0.0643  0.0064
 3404TIP3    H131627   2.134   0.804  16.366 -0.9026  0.1624 -2.3308
 3404TIP3    H231628   2.128   0.663  16.312  1.1266 -0.3198 -1.4164
 3405TIP3   OH231629   2.607   5.013   0.305 -0.2897  0.5743 -0.0930
 3405TIP3    H131630   2.592   4.948   0.237  0.0407  0.9643 -0.5471
 3405TIP3    H231631   2.530   5.070   0.301  0.1480  1.1380 -0.7719
 3406TIP3   OH231632   1.462   4.154  11.017  0.1543 -0.2207  0.7068
 3406TIP3    H131633   1.504   4.134  11.101 -1.9234 -0.3133  1.7860
 3406TIP3    H231634   1.371   4.173  11.040 -0.2126  0.8523 -1.4182
 3407TIP3   OH231635   2.702   1.856  15.853 -0.5910 -0.2798 -0.0327
 3407TIP3    H131636   2.757   1.868  15.930 -0.2786 -0.2869 -0.2543
 3407TIP3    H231637   2.632   1.798  15.882 -1.0027  0.4597  0.5091
 3408TIP3   OH231638   1.924   1.702   4.530 -0.2393 -0.0247  0.2139
 3408TIP3    H131639   2.014   1.735   4.534 -0.7307  1.5916 -0.9724
 3408TIP3    H231640   1.890   1.712   4.619  0.1253  1.2987  0.2234
 3409TIP3   OH231641   3.406   2.472   1.354 -0.3721 -0.5309  0.3360
 3409TIP3    H131642   3.421   2.564   1.332 -0.1007 -0.2360  1.6596
 3409TIP3    H231643   3.465   2.423   1.296  1.1420  0.2678  1.1345
 3410TIP3   OH231644   4.178   4.413  13.871  0.4505  0.1093 -0.4322
 3410TIP3    H131645   4.098   4.361  13.863  1.4400 -1.3009 -1.4602
 3410TIP3    H231646   4.160   4.492  13.819 -0.4858  0.0874 -0.1601
 3411TIP3   OH231647   5.013   5.713  15.692 -0.1224 -0.2795  0.2547
 3411TIP3    H131648   5.067   5.670  15.625 -1.3992 -2.4509  0.5524
 3411TIP3    H231649   5.060   5.698  15.774  0.0108 -0.0644  0.2206
 3412TIP3   OH231650   6.056   3.409   3.491 -0.2386 -0.6910 -0.1797
 3412TIP3    H131651   6.116   3.465   3.442  0.0705 -2.2372 -1.6325
 3412TIP3    H231652   6.109   3.374   3.563 -0.5983  1.2912  1.1386
 3413TIP3   OH231653   6.532   3.154   1.456  0.2451  0.1099 -0.4717
 3413TIP3    H131654   6.571   3.211   1.389  0.0418  0.3306 -0.4025
 3413TIP3    H231655   6.544   3.202   1.538  0.6216 -0.2252 -0.3288
 3414TIP3   OH231656   3.145   4.354  15.120  0.3807  0.1878  0.0680
 3414TIP3    H131657   3.076   4.341  15.055  0.0505  1.3058  0.1693
 3414TIP3    H231658   3.197   4.274  15.116  0.6144  0.3842 -1.8594
 3415TIP3   OH231659   4.798   5.398  16.757  0.4279 -0.2396 -0.0645
 3415TIP3    H131660   4.885   5.423  16.727  1.1443 -2.6212 -0.1715
 3415TIP3    H231661   4.807   5.307  16.783 -1.8200 -0.2541  0.8710
 3416TIP3   OH231662   3.827   1.172   0.950 -0.0279 -0.1631  0.3724
 3416TIP3    H131663   3.765   1.234   0.912 -0.9668 -0.4634  1.3728
 3416TIP3    H231664   3.872   1.134   0.875  0.6934  1.8351 -0.2678
 3417TIP3   OH231665   3.822   5.184  14.823  0.1010  0.5094  0.4001
 3417TIP3    H131666   3.857   5.272  14.810  0.2465  0.5461  0.9748
 3417TIP3    H231667   3.898   5.126  14.812 -0.0568  0.4314 -0.2785
 3418TIP3   OH231668   2.539   0.923  11.274 -0.0405  0.3889 -0.0256
 3418TIP3    H131669   2.563   0.902  11.184  0.1692 -0.0266  0.1229
 3418TIP3    H231670   2.446   0.946  11.270 -0.2803 -0.5590 -0.2029
 3419TIP3   OH231671   1.314   4.568  15.881 -0.2399 -0.4452  0.2736
 3419TIP3    H131672   1.407   4.577  15.857 -0.4541 -0.6406 -0.6656
 3419TIP3    H231673   1.289   4.655  15.910  0.2766 -0.4221  0.6644
 3420TIP3   OH231674   4.706   2.982  13.313  0.0085 -0.3259 -0.3928
 3420TIP3    H131675   4.714   2.953  13.404  0.6554 -0.2657 -0.4247
 3420TIP3    H231676   4.653   3.061  13.318  0.4318 -0.0586 -0.0048
 3421TIP3   OH231677   4.987   1.058  11.613  0.0617  0.7852 -0.1859
 3421TIP3    H131678   5.043   1.022  11.545 -0.4615  0.0565 -0.2376
 3421TIP3    H231679   4.986   1.153  11.596  1.0724  0.7857 -0.3241
 3422TIP3   OH231680   5.751   5.917  15.077 -0.4538  0.4228  0.2852
 3422TIP3    H131681   5.750   6.003  15.037  0.5644  1.2293  1.8880
 3422TIP3    H231682   5.836   5.880  15.052 -0.4677  0.2856  0.4392
 3423TIP3   OH231683   1.735   2.655  12.654  0.2020  0.4963 -0.6272
 3423TIP3    H131684   1.706   2.724  12.594 -2.5712 -0.5497 -0.6786
 3423TIP3    H231685   1.723   2.574  12.604  1.5433 -0.1629  0.0761
 3424TIP3   OH231686   3.108   5.812   0.288  0.2470  0.1027  0.0130
 3424TIP3    H131687   3.040   5.765   0.336 -0.3902  0.8519 -0.1347
 3424TIP3    H231688   3.121   5.893   0.337  1.2306 -0.1372  0.1809
 3425TIP3   OH231689   1.408   5.814   3.843 -0.4338 -0.5203  0.8543
 3425TIP3    H131690   1.318   5.811   3.876 -0.2220 -2.7567  1.3533
 3425TIP3    H231691   1.445   5.730   3.868  1.4983 -0.0371 -0.2522
 3426TIP3   OH231692   4.700   0.937  14.002 -0.2553 -0.1673 -0.2135
 3426TIP3    H131693   4.629   1.000  14.010  0.0673  0.2441 -0.5455
 3426TIP3    H231694   4.679   0.886  13.923 -0.6691 -0.6781  0.2190
 3427TIP3   OH231695   6.737   5.052  11.513  0.5361 -0.4317  0.4021
 3427TIP3    H131696   6.765   4.974  11.465 -0.8074 -0.3073 -0.6536
 3427TIP3    H231697   6.811   5.112  11.506  0.4914 -0.5373 -1.2759
 3428TIP3   OH231698   2.720   3.978  14.738 -0.0364 -0.1269 -0.1113
 3428TIP3    H131699   2.650   3.937  14.790 -0.0790  1.1800  0.9300
 3428TIP3    H231700   2.734   4.062  14.781  0.5337  0.6383 -1.7541
 3429TIP3   OH231701   6.691   3.719  14.888  0.1179  0.5502 -0.5179
 3429TIP3    H131702   6.602   3.753  14.875  0.2004  0.1157 -2.5669
 3429TIP3    H231703   6.678   3.638  14.938 -0.4926  1.1540  0.3452
 3430TIP3   OH231704   1.960   6.487  12.005 -0.5889  0.1498  0.1637
 3430TIP3    H131705   1.897   6.532  11.948  0.4808  1.3323 -0.1364
 3430TIP3    H231706   1.992   6.556  12.064  1.1752 -0.1535 -0.3695
 3431TIP3   OH231707   6.411   3.474   6.598 -0.1573 -0.3470 -0.7156
 3431TIP3    H131708   6.411   3.551   6.654 -0.3485 -1.3096  0.6381
 3431TIP3    H231709   6.319   3.447   6.593  0.0671 -1.2974 -0.0188
 3432TIP3   OH231710   3.256   1.642  12.321 -0.1469 -0.2584  0.1605
 3432TIP3    H131711   3.286   1.732  12.308  1.4364 -0.9422 -1.4492
 3432TIP3    H231712   3.163   1.644  12.297  0.2911  0.6363 -1.6730
 3433TIP3   OH231713   2.047   0.089  17.144  0.0413  0.9156  0.1016
 3433TIP3    H131714   2.109   0.090  17.218  0.1098 -3.3025  0.3449
 3433TIP3    H231715   2.091   0.036  17.078 -2.5894 -0.8512 -0.3606
 3434TIP3   OH231716   1.528   4.806   1.175 -0.1135 -0.5599 -0.4330
 3434TIP3    H131717   1.455   4.868   1.179  1.9318  1.9217  1.1341
 3434TIP3    H231718   1.514   4.759   1.093 -3.8026 -0.7343  0.1056
 3435TIP3   OH231719   1.753   3.491   1.857 -0.1834 -0.0536  0.8366
 3435TIP3    H131720   1.822   3.557   1.864  1.0697 -0.9373 -1.8687
 3435TIP3    H231721   1.793   3.411   1.890 -0.8692 -0.0029  1.8167
 3436TIP3   OH231722   3.377   3.186  14.007 -0.1595 -0.0426 -0.2912
 3436TIP3    H131723   3.366   3.115  13.943  0.9539 -0.0319 -0.5197
 3436TIP3    H231724   3.460   3.165  14.051 -0.3289  0.5837  0.3374
 3437TIP3   OH231725   5.426   6.766  12.002 -0.1409  0.3991 -0.2235
 3437TIP3    H131726   5.420   6.728  12.090 -0.2438 -1.2361 -0.9059
 3437TIP3    H231727   5.336   6.764  11.969  0.2693 -1.6515 -1.3915
 3438TIP3   OH231728   1.848   5.207   5.119  0.1449 -0.0343 -0.0113
 3438TIP3    H131729   1.929   5.256   5.131 -0.4182  0.7064  0.9047
 3438TIP3    H231730   1.859   5.163   5.034  2.6299 -2.2227  1.3193
 3439TIP3   OH231731   3.305   3.716   4.177 -0.3296  0.6875  0.0540
 3439TIP3    H131732   3.372   3.782   4.190  1.5570 -1.2638  0.7298
 3439TIP3    H231733   3.329   3.645   4.236 -3.0071 -0.1082  0.3169
 3440TIP3   OH231734   5.111   2.130  13.195  0.3804  0.0247  0.3895
 3440TIP3    H131735   5.180   2.063  13.186  0.8987  0.0191  3.3802
 3440TIP3    H231736   5.045   2.088  13.250  0.7428  1.8996  2.3942
 3441TIP3   OH231737   0.726   0.666   5.088 -0.5228 -0.0268  0.5096
 3441TIP3    H131738   0.754   0.736   5.030 -2.2285 -1.8182 -2.7743
 3441TIP3    H231739   0.631   0.678   5.096 -0.6808 -1.3082  0.7778
 3442TIP3   OH231740   3.464   0.735   4.717  0.0966  0.2621  0.5514
 3442TIP3    H131741   3.528   0.804   4.700 -1.2363  1.5253  0.4459
 3442TIP3    H231742   3.413   0.767   4.792 -0.7246 -0.4748  0.3282
 3443TIP3   OH231743   3.834   1.477   4.953 -0.1681 -0.4182  0.0190
 3443TIP3    H131744   3.815   1.559   4.997  0.1603 -1.5029  2.3257
 3443TIP3    H231745   3.929   1.479   4.938 -0.2535 -0.1229 -0.4907
 3444TIP3   OH231746   0.932   2.056  10.905 -0.0545  0.1112  0.3130
 3444TIP3    H131747   0.968   1.997  10.970  0.9961  0.2455 -0.1203
 3444TIP3    H231748   1.000   2.064  10.838 -0.1447  1.8170  0.3623
 3445TIP3   OH231749   1.490   6.055  16.003 -0.4394 -0.3149  0.0527
 3445TIP3    H131750   1.472   6.012  15.919  0.1582 -0.9906  0.2508
 3445TIP3    H231751   1.469   5.988  16.069  1.7917 -0.8283  0.3212
 3446TIP3   OH231752   4.917   6.731   3.592 -0.4188 -0.0964  0.0430
 3446TIP3    H131753   4.932   6.797   3.660 -0.1846 -0.7508  0.6526
 3446TIP3    H231754   4.987   6.666   3.607  1.2357  0.9742 -2.4409
 3447TIP3   OH231755   2.844   4.437   3.555  0.9381 -0.2740  0.7265
 3447TIP3    H131756   2.921   4.449   3.499  0.1371  0.4981 -0.2396
 3447TIP3    H231757   2.772   4.474   3.505 -0.6391 -3.5773  0.3179
 3448TIP3   OH231758   3.382   4.871  14.283  0.4774 -0.0396 -0.0312
 3448TIP3    H131759   3.367   4.793  14.338 -0.9773 -0.8534 -1.4967
 3448TIP3    H231760   3.324   4.938  14.321  1.0565  0.0690  0.6831
 3449TIP3   OH231761   4.890   3.010   5.302  0.5253 -0.7496 -0.5490
 3449TIP3    H131762   4.810   2.974   5.340 -0.1941  0.9200 -0.4110
 3449TIP3    H231763   4.891   2.978   5.211  0.3218 -1.7140 -0.2187
 3450TIP3   OH231764   6.380   6.008  14.855  0.2832  0.1055 -0.4776
 3450TIP3    H131765   6.397   5.914  14.863 -1.0067 -0.0519  0.8715
 3450TIP3    H231766   6.378   6.025  14.761 -0.8657 -1.4948 -0.7763
 3451TIP3   OH231767   5.835   2.847  16.997  0.4848 -0.4900 -0.0147
 3451TIP3    H131768   5.842   2.754  17.019  0.8089 -0.5616 -0.4081
 3451TIP3    H231769   5.904   2.889  17.049 -0.8061 -0.2043  1.5529
 3452TIP3   OH231770   4.121   1.331  12.950  0.2153 -0.2002  0.0799
 3452TIP3    H131771   4.088   1.407  12.902  0.6856  0.0922  0.2151
 3452TIP3    H231772   4.076   1.333  13.034 -0.1122 -0.3303 -0.0946
 3453TIP3   OH231773   0.018   6.131   1.462 -0.0442  0.0336 -0.0769
 3453TIP3    H131774  -0.025   6.078   1.394  0.4865  1.1356 -1.3273
 3453TIP3    H231775   0.091   6.076   1.492  1.4151  0.5275 -2.4137
 3454TIP3   OH231776   2.066   2.462  10.823  0.3055  0.2695  0.3370
 3454TIP3    H131777   2.109   2.512  10.754 -0.0341 -0.3889 -0.3762
 3454TIP3    H231778   2.135   2.445  10.887  1.4289 -1.5891 -1.2391
 3455TIP3   OH231779   2.638   5.372   2.061 -0.8839  0.2503 -0.0601
 3455TIP3    H131780   2.558   5.346   2.014  1.0779 -0.8290 -3.0821
 3455TIP3    H231781   2.655   5.298   2.120 -0.9571 -0.5228 -0.9913
 3456TIP3   OH231782   5.466   6.670   4.316  0.5927  0.0620 -0.2746
 3456TIP3    H131783   5.411   6.641   4.243  1.0049 -0.5724 -0.3445
 3456TIP3    H231784   5.489   6.589   4.361 -0.1420  0.4890  0.9194
 3457TIP3   OH231785   6.412   0.574  15.251  0.1151  0.2351 -0.2271
 3457TIP3    H131786   6.321   0.585  15.226  0.3373 -0.1418 -1.2620
 3457TIP3    H231787   6.458   0.646  15.207  0.6361 -0.9297 -1.6660
 3458TIP3   OH231788   1.942   4.168   0.032 -0.1270 -0.1535  0.3978
 3458TIP3    H131789   2.021   4.201  -0.012 -0.5884  1.3248  0.6033
 3458TIP3    H231790   1.877   4.160  -0.038  0.0026 -0.6868  0.3408
 3459TIP3   OH231791   6.135   3.472   3.125  0.5677  0.6342  0.2571
 3459TIP3    H131792   6.105   3.530   3.056 -0.4993  0.3375  0.4431
 3459TIP3    H231793   6.155   3.530   3.199  1.9877  0.9763 -0.3731
 3460TIP3   OH231794   2.465   1.644   4.194 -0.1125 -0.9561 -0.1405
 3460TIP3    H131795   2.370   1.643   4.198 -0.1149 -0.6491 -0.1206
 3460TIP3    H231796   2.491   1.555   4.219 -0.3533 -0.7714  0.7750
 3461TIP3   OH231797   6.467   4.878   3.883  0.2699 -0.1506 -0.3303
 3461TIP3    H131798   6.462   4.824   3.962  0.2727 -0.6030 -0.6364
 3461TIP3    H231799   6.376   4.891   3.857  0.2146  0.8184  0.2899
 3462TIP3   OH231800   4.798   1.653  15.711  0.1368 -0.6024  0.3926
 3462TIP3    H131801   4.791   1.748  15.711 -0.7232 -0.6551  0.7047
 3462TIP3    H231802   4.890   1.635  15.693  0.2639  0.2835  0.1419
 3463TIP3   OH231803   1.376   3.955  10.719 -0.7929  0.5378 -0.0590
 3463TIP3    H131804   1.294   3.964  10.767 -0.9232  1.2870 -0.4043
 3463TIP3    H231805   1.398   4.045  10.693 -0.4589  0.2065 -0.9521
 3464TIP3   OH231806   3.743   3.731  15.019  0.0912  0.2820 -0.1076
 3464TIP3    H131807   3.694   3.688  14.948  1.5891  0.6256 -1.3952
 3464TIP3    H231808   3.679   3.788  15.060 -1.6477 -2.1513  0.8485
 3465TIP3   OH231809   4.126   5.924  12.604 -0.1985  0.3478 -0.2705
 3465TIP3    H131810   4.127   5.955  12.695  0.7566 -1.0213  0.2271
 3465TIP3    H231811   4.054   5.971  12.563 -2.4179 -0.9260  1.9100
 3466TIP3   OH231812   1.676   3.128  14.571  0.5553 -0.0883  0.1273
 3466TIP3    H131813   1.751   3.176  14.607  0.2530 -0.7387  1.7146
 3466TIP3    H231814   1.612   3.197  14.550  0.3814  0.2929  1.7534
 3467TIP3   OH231815   1.636   6.628  16.049  0.2527  1.1094  0.7880
 3467TIP3    H131816   1.567   6.672  16.100 -2.7666 -1.6112 -0.5765
 3467TIP3    H231817   1.656   6.549  16.098  0.6167  0.6826 -0.0250
 3468TIP3   OH231818   1.185   4.690   4.981  1.0628 -0.1494  0.2404
 3468TIP3    H131819   1.211   4.701   4.889 -2.0686 -0.6921 -0.8291
 3468TIP3    H231820   1.171   4.779   5.013 -0.8300  0.0160 -0.8712
 3469TIP3   OH231821   4.955   0.395   4.322 -0.1693 -0.0547  0.0688
 3469TIP3    H131822   5.013   0.325   4.351 -3.5546 -3.2626 -0.0989
 3469TIP3    H231823   4.962   0.393   4.226  2.3528  2.5215  0.0566
 3470TIP3   OH231824   0.213   0.470  13.005  0.7513  0.0628 -0.1266
 3470TIP3    H131825   0.153   0.417  12.954  2.1643 -1.9359  0.1765
 3470TIP3    H231826   0.169   0.483  13.089 -0.6715  1.5852 -1.0486
 3471TIP3   OH231827   5.859   3.893  16.250  0.0672  0.0626  0.1482
 3471TIP3    H131828   5.877   3.825  16.314 -0.7576 -0.8054 -0.5163
 3471TIP3    H231829   5.892   3.858  16.167 -0.9644  0.1484 -0.3266
 3472TIP3   OH231830   0.367   3.193  16.307  0.4794  0.2732 -0.4594
 3472TIP3    H131831   0.462   3.204  16.301  0.7854 -1.4012  0.7134
 3472TIP3    H231832   0.341   3.248  16.381  0.7978 -0.4991  0.2439
 3473TIP3   OH231833   1.484   4.546   4.808 -0.1812 -0.4797 -0.1376
 3473TIP3    H131834   1.399   4.529   4.849 -0.0973 -1.8598 -0.4682
 3473TIP3    H231835   1.479   4.636   4.777 -2.2231 -1.0723 -1.7624
 3474TIP3   OH231836   1.238   2.421   2.724 -0.2192 -0.3439 -0.0168
 3474TIP3    H131837   1.297   2.482   2.769 -0.7409  0.2785 -0.1630
 3474TIP3    H231838   1.150   2.453   2.744 -0.4985 -1.0164 -0.1480
 3475TIP3   OH231839   1.057   5.284   5.384  0.1175  0.2143 -0.1684
 3475TIP3    H131840   1.008   5.275   5.466 -0.7470 -1.7139 -0.8527
 3475TIP3    H231841   0.993   5.264   5.316  1.4009 -0.5080 -1.1952
 3476TIP3   OH231842   3.160   2.752   4.284  0.7588  0.6224 -0.1310
 3476TIP3    H131843   3.149   2.711   4.370  0.1109  0.4560 -0.2841
 3476TIP3    H231844   3.182   2.679   4.226  0.4323  0.6117 -0.2458
 3477TIP3   OH231845   2.496   0.960  16.223 -0.4115 -0.2706 -0.1163
 3477TIP3    H131846   2.524   1.051  16.215 -0.3310 -0.1268  1.4610
 3477TIP3    H231847   2.414   0.965  16.272 -1.0020 -0.9766 -1.0242
 3478TIP3   OH231848   3.780   0.105  12.357 -0.4625  0.0003  0.1538
 3478TIP3    H131849   3.835   0.073  12.286 -0.9112  1.6963 -1.0083
 3478TIP3    H231850   3.834   0.171  12.401 -0.8425  0.2385  0.2664
 3479TIP3   OH231851   6.416   1.096   2.507 -0.2361 -0.3892 -0.2339
 3479TIP3    H131852   6.429   1.083   2.600  0.9561 -2.1972 -0.6012
 3479TIP3    H231853   6.362   1.175   2.501 -1.1114 -0.7471  1.9897
 3480TIP3   OH231854   5.362   0.503   0.105 -0.1204  0.0062  0.0323
 3480TIP3    H131855   5.455   0.523   0.091 -0.3191  0.6670 -0.4149
 3480TIP3    H231856   5.360   0.410   0.127  0.5956 -0.1381 -0.4916
 3481TIP3   OH231857   1.550   5.105  12.951  0.2620  0.0423 -0.3545
 3481TIP3    H131858   1.616   5.133  13.015 -0.9384  1.4627  0.3096
 3481TIP3    H231859   1.475   5.079  13.003 -0.4660  0.4733 -1.1633
 3482TIP3   OH231860   6.647   2.951   0.625  0.2635 -0.3728 -0.2210
 3482TIP3    H131861   6.593   3.031   0.630  0.0396 -0.5577  0.3479
 3482TIP3    H231862   6.607   2.891   0.688 -1.9350 -2.3928 -3.2334
 3483TIP3   OH231863   0.053   4.060  12.315  0.2555  0.4211  0.0462
 3483TIP3    H131864   0.040   3.988  12.253 -0.1861  0.3006  0.2733
 3483TIP3    H231865  -0.003   4.038  12.389  0.1616  0.9689  0.1419
 3484TIP3   OH231866   1.102   5.058   4.117 -0.5999  0.2176 -0.1637
 3484TIP3    H131867   1.051   4.991   4.162  0.0060  0.3869  0.8003
 3484TIP3    H231868   1.156   5.009   4.055 -0.0146 -0.2198  0.6709
 3485TIP3   OH231869   5.428   3.871  13.329 -0.2850  0.6634 -0.6908
 3485TIP3    H131870   5.454   3.945  13.384  0.3444 -0.4142  0.5352
 3485TIP3    H231871   5.487   3.876  13.253 -1.0923  2.1099 -1.2636
 3486TIP3   OH231872   2.751   5.426  13.192  0.1236 -1.0076  0.3166
 3486TIP3    H131873   2.830   5.479  13.177 -0.1411 -0.7668 -0.2591
 3486TIP3    H231874   2.737   5.381  13.109  1.0698 -3.0048  1.1602
 3487TIP3   OH231875   0.507   3.843  14.199  0.3112 -0.4501 -0.5978
 3487TIP3    H131876   0.550   3.775  14.146  2.3151  1.2903 -1.3242
 3487TIP3    H231877   0.419   3.849  14.162  0.1429 -2.4486 -0.6613
 3488TIP3   OH231878   3.904   3.019  10.884 -0.7322 -0.5766 -0.0085
 3488TIP3    H131879   3.953   2.938  10.869 -1.6927 -1.1143 -0.2866
 3488TIP3    H231880   3.972   3.085  10.899  0.0929 -1.2088 -0.8420
 3489TIP3   OH231881   1.202   0.019   1.285  0.0168  0.5143  0.2269
 3489TIP3    H131882   1.285   0.044   1.245  0.5028  2.4199  2.2000
 3489TIP3    H231883   1.153  -0.023   1.215  1.3011  2.4378 -1.9779
 3490TIP3   OH231884   0.152   5.040   1.366 -0.1943  0.1081 -0.1686
 3490TIP3    H131885   0.215   5.089   1.420 -1.7963  1.5677  0.4642
 3490TIP3    H231886   0.136   5.097   1.290 -0.3075 -0.5186 -0.6205
 3491TIP3   OH231887   6.388   0.566   5.430 -0.0871  0.3579  0.0393
 3491TIP3    H131888   6.434   0.583   5.513 -0.9630  0.9510  0.4177
 3491TIP3    H231889   6.419   0.634   5.371 -0.7648  1.0091  0.4168
 3492TIP3   OH231890   5.092   0.336  11.518 -1.0545 -0.3009 -0.2329
 3492TIP3    H131891   5.071   0.428  11.499  3.1152  1.4540  2.2923
 3492TIP3    H231892   5.033   0.313  11.590 -2.1360  0.3664 -0.8710
 3493TIP3   OH231893   5.412   2.795   3.977  0.3171  0.2535  0.3061
 3493TIP3    H131894   5.369   2.737   4.039  1.2595  0.5500  1.2829
 3493TIP3    H231895   5.484   2.743   3.941  0.0941  0.2511 -0.1313
 3494TIP3   OH231896   6.736   0.781  16.893 -0.0214  0.0746  0.2826
 3494TIP3    H131897   6.644   0.793  16.871 -0.0299  0.7119  0.6498
 3494TIP3    H231898   6.737   0.705  16.951 -0.1968 -0.5404 -0.5080
 3495TIP3   OH231899   1.789   6.133   1.840 -0.0907 -0.5879  0.3708
 3495TIP3    H131900   1.819   6.088   1.918  1.0895 -0.3836  0.0454
 3495TIP3    H231901   1.717   6.079   1.807 -0.5616 -0.6985  1.5583
 3496TIP3   OH231902   5.499   3.405   0.921  1.0282  0.4295 -0.0349
 3496TIP3    H131903   5.580   3.369   0.884  2.1804  1.2218  1.5752
 3496TIP3    H231904   5.524   3.432   1.009 -0.8481  1.3076  0.2626
 3497TIP3   OH231905   6.401   4.906  12.561 -0.0791 -0.5733  0.0451
 3497TIP3    H131906   6.393   4.957  12.641 -0.7680 -0.3333 -0.1709
 3497TIP3    H231907   6.312   4.901  12.526  0.1834 -0.8125 -0.6188
 3498TIP3   OH231908   1.056   3.555  14.154  0.7081 -0.2398 -0.0329
 3498TIP3    H131909   1.034   3.595  14.070  0.2488 -1.0356 -0.3077
 3498TIP3    H231910   0.971   3.537  14.194  0.8601 -1.8580 -0.3717
 3499TIP3   OH231911   4.859   6.195   5.220 -0.4657 -0.0131 -0.1263
 3499TIP3    H131912   4.894   6.118   5.266  2.5643  0.9121 -0.6921
 3499TIP3    H231913   4.918   6.266   5.244  0.1727  0.9411 -3.9053
 3500TIP3   OH231914   0.586   3.949  15.336 -0.0488  0.0652  0.4521
 3500TIP3    H131915   0.507   3.918  15.291  0.4596  2.1261 -2.0374
 3500TIP3    H231916   0.554   3.987  15.418 -1.4248 -0.5392  0.2202
 3501TIP3   OH231917   2.594   5.712   2.770  0.1911  0.0527  0.4311
 3501TIP3    H131918   2.574   5.794   2.725  1.4093 -0.4507 -1.1100
 3501TIP3    H231919   2.557   5.723   2.858 -0.3898  1.9116 -0.0092
 3502TIP3   OH231920   2.688   3.675  14.687 -0.1133  0.2978  0.1121
 3502TIP3    H131921   2.639   3.756  14.702 -1.9265 -0.8117  0.4590
 3502TIP3    H231922   2.629   3.606  14.715  1.4045 -1.1652 -0.1636
 3503TIP3   OH231923   4.098   0.998  11.140 -0.1115 -0.1651 -0.4148
 3503TIP3    H131924   4.175   1.027  11.188  1.0075 -2.9548 -0.3312
 3503TIP3    H231925   4.024   1.030  11.191  1.0273  0.4202  0.9154
 3504TIP3   OH231926   0.617   3.013   2.668  0.4736 -0.8320  0.1438
 3504TIP3    H131927   0.601   2.959   2.591  0.5487 -0.4276 -0.1579
 3504TIP3    H231928   0.531   3.047   2.693  0.4443 -0.9895  0.2629
 3505TIP3   OH231929   2.811   1.509   1.196  0.2415 -0.4399 -0.2678
 3505TIP3    H131930   2.724   1.540   1.220  0.4182  0.8152 -1.1342
 3505TIP3    H231931   2.807   1.498   1.101  1.2094  0.3243 -0.4198
 3506TIP3   OH231932   2.723   4.259  13.949  0.1030  0.0927  0.1841
 3506TIP3    H131933   2.794   4.196  13.959  0.5341  0.7270  1.4151
 3506TIP3    H231934   2.767   4.344  13.940 -0.4742  0.3482 -0.2956
 3507TIP3   OH231935   1.213   2.746   1.755  0.0459 -0.0585 -0.3201
 3507TIP3    H131936   1.144   2.775   1.696 -0.6143  0.4511  0.6732
 3507TIP3    H231937   1.280   2.814   1.749 -0.8863  1.0387  0.9512
 3508TIP3   OH231938   3.417   4.410   5.934 -0.2892  0.5261 -0.4261
 3508TIP3    H131939   3.506   4.405   5.898 -0.5276 -0.5591 -0.9148
 3508TIP3    H231940   3.366   4.352   5.879 -0.2148 -3.1730  2.9325
 3509TIP3   OH231941   3.941   5.425  16.705  0.2686 -0.4162  0.6321
 3509TIP3    H131942   4.012   5.433  16.642 -1.7657  1.3251 -1.6219
 3509TIP3    H231943   3.891   5.349  16.676  1.6434 -2.2981  2.8328
 3510TIP3   OH231944   4.363   1.931   3.329 -0.1306  0.0751 -0.5675
 3510TIP3    H131945   4.424   1.918   3.256  0.8670  0.1799  0.2365
 3510TIP3    H231946   4.297   1.992   3.294  1.2306  1.4247 -0.8974
 3511TIP3   OH231947   0.716   0.120  11.032 -0.1538 -0.1495  0.1370
 3511TIP3    H131948   0.767   0.161  10.962  0.3780  1.1932  1.2666
 3511TIP3    H231949   0.761   0.038  11.051  1.4249  0.8506  0.8841
 3512TIP3   OH231950   3.943   6.511   5.674 -0.4551  0.1680 -0.1635
 3512TIP3    H131951   3.980   6.440   5.726 -2.3519 -0.4783  0.3791
 3512TIP3    H231952   3.935   6.584   5.735 -0.9985 -0.0223  0.0023
 3513TIP3   OH231953   3.941   1.216   0.683 -0.2827  0.1384  0.1026
 3513TIP3    H131954   3.920   1.154   0.614 -0.3207 -1.2116  1.2699
 3513TIP3    H231955   4.025   1.253   0.657  0.6158 -1.7111  0.1973
 3514TIP3   OH231956   5.979   6.292  14.648 -0.5432  0.0315  0.1488
 3514TIP3    H131957   5.922   6.264  14.720 -0.5234 -1.8519 -0.5026
 3514TIP3    H231958   6.066   6.297  14.686 -0.1781 -2.8872 -0.0711
 3515TIP3   OH231959   4.807   6.078  16.631 -0.3143  0.6639  0.5832
 3515TIP3    H131960   4.716   6.048  16.628 -0.1736  0.2906 -1.8242
 3515TIP3    H231961   4.803   6.165  16.669 -1.7544  0.8681  0.0103
 3516TIP3   OH231962   3.797   6.123   1.010  0.0531  0.5782 -0.0091
 3516TIP3    H131963   3.877   6.132   1.061 -0.2119 -0.4101  0.6168
 3516TIP3    H231964   3.746   6.201   1.031  0.5764  0.8901  0.1004
 3517TIP3   OH231965   5.302   3.707   1.596 -0.2592 -0.0627  0.5015
 3517TIP3    H131966   5.317   3.788   1.644 -0.9830 -1.3310  3.0938
 3517TIP3    H231967   5.371   3.648   1.626  0.8475 -0.2097 -2.0710
 3518TIP3   OH231968   1.685   1.561  17.066 -0.0219  0.3855 -0.2320
 3518TIP3    H131969   1.691   1.654  17.044 -1.7118  0.5360 -0.1798
 3518TIP3    H231970   1.591   1.542  17.066  0.3306 -1.6879 -1.6926
 3519TIP3   OH231971   0.744   4.703   1.951  0.2849 -0.4874 -0.0664
 3519TIP3    H131972   0.790   4.777   1.991  1.1908  0.2379 -2.2617
 3519TIP3    H231973   0.654   4.710   1.982  0.4087  1.4172 -0.0408
 3520TIP3   OH231974   6.317   0.175   5.795  0.3288 -0.1513  0.3755
 3520TIP3    H131975   6.259   0.171   5.871 -0.0946  0.5665  0.1033
 3520TIP3    H231976   6.268   0.226   5.731 -0.2174 -2.4426 -1.1612
 3521TIP3   OH231977   0.197   5.589  12.832 -0.6036 -0.2820  0.2311
 3521TIP3    H131978   0.185   5.657  12.766 -1.8955 -0.9304 -0.2424
 3521TIP3    H231979   0.291   5.572  12.832 -0.3807  0.8873 -0.2601
 3522TIP3   OH231980   0.491   5.501   3.517 -0.1626  0.2476  0.2903
 3522TIP3    H131981   0.473   5.564   3.447 -1.0264 -0.4127 -0.1073
 3522TIP3    H231982   0.538   5.430   3.474  2.5147  1.4113  1.0952
 3523TIP3   OH231983   4.513   2.175   2.767  0.0873 -0.0779 -0.1809
 3523TIP3    H131984   4.505   2.117   2.691 -0.6220  0.7512 -0.7471
 3523TIP3    H231985   4.448   2.143   2.829 -1.2074  0.8807 -1.0095
 3524TIP3   OH231986   4.526   6.284  16.552  0.0658 -0.7730 -0.3465
 3524TIP3    H131987   4.595   6.333  16.598 -1.7019  1.0664  0.4926
 3524TIP3    H231988   4.571   6.247  16.475  2.3371 -1.1031  1.0533
 3525TIP3   OH231989   3.900   1.050  15.936  0.3396  0.1793  0.1958
 3525TIP3    H131990   3.902   1.069  15.842 -2.2795 -1.1251 -0.2106
 3525TIP3    H231991   3.961   0.976  15.947  1.3222  0.8928 -0.2861
 3526TIP3   OH231992   0.818   4.846   4.350  0.5582  0.0290  0.3073
 3526TIP3    H131993   0.764   4.910   4.395  1.4628  0.2272  1.1551
 3526TIP3    H231994   0.804   4.863   4.257 -2.0170 -0.9471  0.4492
 3527TIP3   OH231995   3.859   4.553  14.733  0.1179  0.3471  0.3124
 3527TIP3    H131996   3.812   4.605  14.798  0.7347 -0.0227  1.0587
 3527TIP3    H231997   3.856   4.463  14.766 -1.6397 -0.2832 -1.3590
 3528TIP3   OH231998   3.095   1.151   3.075 -0.5135  0.1543  0.3211
 3528TIP3    H131999   3.105   1.243   3.102 -2.9229  0.7451 -0.5454
 3528TIP3    H232000   3.155   1.142   3.001  0.4934  0.7079  1.0331
 3529TIP3   OH232001   0.462   0.869  15.314 -0.2883 -0.7354  0.8468
 3529TIP3    H132002   0.460   0.856  15.409 -2.0483 -0.0642  0.9418
 3529TIP3    H232003   0.414   0.951  15.300 -0.8497 -1.2893 -0.6851
 3530TIP3   OH232004   6.758   1.253  13.320  0.2186  0.4040 -0.0479
 3530TIP3    H132005   6.700   1.239  13.246  0.6181  1.7449 -0.6491
 3530TIP3    H232006   6.812   1.174  13.324 -3.0310 -1.9733  1.9633
 3531TIP3   OH232007   3.919   6.039   2.681  0.1311  0.3348 -0.1873
 3531TIP3    H132008   3.823   6.034   2.690  0.0055  1.7470 -0.5249
 3531TIP3    H232009   3.938   5.993   2.600 -0.2607  0.0285 -0.1087
 3532TIP3   OH232010   0.873   2.651   0.157  0.7291 -0.3145 -0.4314
 3532TIP3    H132011   0.794   2.631   0.106  0.0570  1.9619 -0.3638
 3532TIP3    H232012   0.845   2.641   0.248  0.8465 -0.5866 -0.4234
 3533TIP3   OH232013   0.634   2.953   0.320 -0.5684  0.3987  0.1996
 3533TIP3    H132014   0.607   2.985   0.406 -0.1102 -1.4955  1.1070
 3533TIP3    H232015   0.616   2.859   0.322  0.2948  0.1516 -1.4521
 3534TIP3   OH232016   2.246   2.131  11.817  0.2330 -0.6385 -0.0792
 3534TIP3    H132017   2.254   2.219  11.853 -0.0696 -1.3503  1.8951
 3534TIP3    H232018   2.154   2.123  11.793  0.0036 -0.7471  0.7752
 3535TIP3   OH232019   1.889   3.792   4.586  0.3352 -0.1008 -0.2271
 3535TIP3    H132020   1.890   3.708   4.540  0.4189  0.2664 -0.9164
 3535TIP3    H232021   1.912   3.771   4.676 -0.4289 -0.9168 -0.2185
 3536TIP3   OH232022   6.350   4.583  12.959  0.0589  0.0824  0.0422
 3536TIP3    H132023   6.401   4.596  13.039  1.9932  1.3084 -1.2817
 3536TIP3    H232024   6.263   4.615  12.980  0.7893  1.3043  1.3746
 3537TIP3   OH232025   3.780   0.920  11.718 -0.2851 -0.2861 -0.5068
 3537TIP3    H132026   3.836   0.843  11.728  0.6994  0.2812 -1.4076
 3537TIP3    H232027   3.842   0.994  11.714 -1.2074  0.5918  0.5625
 3538TIP3   OH232028   5.321   3.176  14.754 -0.7368  0.0213 -0.2910
 3538TIP3    H132029   5.281   3.098  14.791 -0.7682  0.0551 -0.2528
 3538TIP3    H232030   5.414   3.169  14.775 -0.4622 -0.7904 -1.6622
 3539TIP3   OH232031   5.608   0.718  15.253 -0.3269  0.6550  0.4070
 3539TIP3    H132032   5.701   0.721  15.229 -0.5297 -2.9333 -1.5546
 3539TIP3    H232033   5.562   0.744  15.173 -0.9949 -1.1292  0.1822
 3540TIP3   OH232034   4.006   5.406   5.499 -0.3940  0.2267 -0.0739
 3540TIP3    H132035   3.969   5.485   5.540  1.3712  0.5567  0.9847
 3540TIP3    H232036   4.073   5.440   5.439  0.5789 -0.4590  0.6011
 3541TIP3   OH232037   4.272   1.445   0.257 -0.4385  0.2370  0.5019
 3541TIP3    H132038   4.178   1.428   0.263 -0.7976  1.3288 -1.2393
 3541TIP3    H232039   4.291   1.505   0.329 -0.5624 -1.7687  2.2945
 3542TIP3   OH232040   0.574   1.893  15.101  0.5223  0.2975  0.0197
 3542TIP3    H132041   0.556   1.985  15.123 -0.5789  0.1160 -0.0487
 3542TIP3    H232042   0.630   1.862  15.172  0.7523  0.9675  0.1404
 3543TIP3   OH232043   3.028   6.779  14.721  0.0724 -0.1692 -0.1621
 3543TIP3    H132044   3.090   6.707  14.706 -1.2247 -1.1238 -1.2895
 3543TIP3    H232045   3.014   6.817  14.634 -0.4760  0.3993  0.1617
 3544TIP3   OH232046   2.942   1.809  16.020  0.1940  0.2023 -0.5554
 3544TIP3    H132047   2.948   1.715  16.041  0.0174  0.0852 -1.0219
 3544TIP3    H232048   2.963   1.853  16.102  1.4543 -0.2315 -0.6287
 3545TIP3   OH232049   5.570   3.988   2.544 -0.2040  0.7082 -0.6294
 3545TIP3    H132050   5.634   4.021   2.481 -1.8648  2.1025 -1.6640
 3545TIP3    H232051   5.512   3.933   2.493  0.5133 -1.1134  0.4409
 3546TIP3   OH232052   5.887   4.664  12.421 -0.0618 -0.2879 -0.0240
 3546TIP3    H132053   5.963   4.609  12.402  0.0165 -0.4244  0.6635
 3546TIP3    H232054   5.861   4.699  12.335  0.7020 -0.3274 -0.2839
 3547TIP3   OH232055   5.173   3.414  16.520  0.2039  0.6675 -0.6996
 3547TIP3    H132056   5.229   3.468  16.464  0.4423  1.7466  0.5301
 3547TIP3    H232057   5.094   3.400  16.467  0.9219  0.5733 -1.7896
 3548TIP3   OH232058   2.979   3.278   5.096  0.3747 -0.7094  0.2872
 3548TIP3    H132059   2.961   3.191   5.133 -1.0766 -0.7708 -0.4791
 3548TIP3    H232060   2.945   3.273   5.006 -1.9505  1.3640  0.9591
 3549TIP3   OH232061   3.800   1.268  14.335  0.0142  0.1165  0.5585
 3549TIP3    H132062   3.718   1.223  14.355  1.6238 -2.2066  2.4337
 3549TIP3    H232063   3.804   1.339  14.399 -0.3616 -0.0041  0.7227
 3550TIP3   OH232064   3.334   6.788   0.581  0.0006 -0.2577  0.5016
 3550TIP3    H132065   3.380   6.716   0.537  1.2368  0.3564  0.7244
 3550TIP3    H232066   3.274   6.823   0.515  2.8357  1.5821 -1.3251
 3551TIP3   OH232067   3.673   0.958  13.689  0.2138 -0.2528 -0.0766
 3551TIP3    H132068   3.688   0.903  13.612 -0.1851 -1.2927  0.5747
 3551TIP3    H232069   3.758   1.001  13.704  0.5152 -0.6376 -0.6254
 3552TIP3   OH232070   4.309   6.740   2.466  0.1507 -0.0270 -0.0607
 3552TIP3    H132071   4.285   6.779   2.382 -0.9754  0.9310  0.6779
 3552TIP3    H232072   4.235   6.684   2.488 -0.2653  0.8908  0.9800
 3553TIP3   OH232073   2.493   5.567  12.851 -0.0547 -0.2670 -0.9128
 3553TIP3    H132074   2.483   5.617  12.770  0.0295  0.9424 -0.1966
 3553TIP3    H232075   2.586   5.546  12.854 -0.2578 -1.3442 -1.7072
 3554TIP3   OH232076   6.535   0.699  11.731 -0.2608  0.2623 -0.1211
 3554TIP3    H132077   6.614   0.708  11.785 -0.7925  1.4990  0.5023
 3554TIP3    H232078   6.491   0.622  11.766 -0.2572  0.6604  0.8048
 3555TIP3   OH232079   5.920   3.781  13.214  0.3089  0.7754  0.2888
 3555TIP3    H132080   5.889   3.808  13.300 -0.3669 -1.5328  0.8221
 3555TIP3    H232081   5.978   3.707  13.231 -0.4371 -0.2122 -1.2598
 3556TIP3   OH232082   2.645   4.229  14.471  0.1135 -0.2251 -0.1788
 3556TIP3    H132083   2.650   4.257  14.379  1.1255 -0.0047 -0.0705
 3556TIP3    H232084   2.590   4.295  14.512 -0.0679 -0.1328 -0.5582
 3557TIP3   OH232085   3.192   1.885  12.081  0.0086  0.0319  0.2644
 3557TIP3    H132086   3.232   1.903  12.166 -0.4424  0.5332  0.3753
 3557TIP3    H232087   3.120   1.824  12.100  1.4963 -1.9391 -0.1039
 3558TIP3   OH232088   0.293   4.287   1.343 -0.3219  0.4014 -0.7452
 3558TIP3    H132089   0.273   4.324   1.429  0.6839 -0.7402  0.0115
 3558TIP3    H232090   0.320   4.197   1.362  0.1578  0.2160 -2.2302
 3559TIP3   OH232091   6.600   3.301   2.623 -0.0193 -0.0427  0.3771
 3559TIP3    H132092   6.673   3.239   2.620  0.7772  0.8863 -0.0629
 3559TIP3    H232093   6.522   3.246   2.613  0.5345 -1.1651  1.7997
 3560TIP3   OH232094   6.012   5.584   5.845 -0.0332  0.2256  0.1623
 3560TIP3    H132095   6.041   5.639   5.917 -0.6138  1.4930 -0.5381
 3560TIP3    H232096   6.092   5.562   5.797  0.1433  1.0080  0.0891
 3561TIP3   OH232097   4.752   4.809  17.065 -0.4476  0.0515 -0.8432
 3561TIP3    H132098   4.782   4.863  16.992 -1.0204  1.6497  0.0484
 3561TIP3    H232099   4.672   4.852  17.095 -0.2845 -0.6222  0.6547
 3562TIP3   OH232100   1.047   1.524   0.076 -0.8432 -1.0674 -0.2737
 3562TIP3    H132101   1.094   1.578   0.012  0.4557  0.6330  1.9524
 3562TIP3    H232102   0.955   1.545   0.061 -0.7980 -2.2442 -2.8089
 3563TIP3   OH232103   4.224   4.351  15.046  0.1212  0.6016 -0.0356
 3563TIP3    H132104   4.150   4.305  15.087  1.3263 -2.2046 -0.8086
 3563TIP3    H232105   4.185   4.431  15.011 -2.5404 -0.6993 -0.3103
 3564TIP3   OH232106   2.101   5.717  12.684  0.5861 -0.3192 -0.0377
 3564TIP3    H132107   2.148   5.791  12.647  0.7585 -0.5783 -0.3508
 3564TIP3    H232108   2.145   5.699  12.767 -0.0616  0.5218  0.4953
 3565TIP3   OH232109   1.819   4.151  14.445  0.5949 -0.1328 -0.7016
 3565TIP3    H132110   1.748   4.090  14.461 -0.7017  1.4613 -0.0617
 3565TIP3    H232111   1.859   4.165  14.531  0.1514  0.7523 -0.6264
 3566TIP3   OH232112   5.006   6.618  16.789  0.2989 -0.0037  0.6556
 3566TIP3    H132113   5.051   6.535  16.780 -0.1799 -0.5538  2.6774
 3566TIP3    H232114   5.017   6.641  16.882 -1.7150  0.8892  0.7299
 3567TIP3   OH232115   2.973   5.810   3.343  0.7450  0.2587  0.3253
 3567TIP3    H132116   2.909   5.778   3.406 -0.0387 -1.6439 -1.3362
 3567TIP3    H232117   3.054   5.765   3.367  0.8810  0.8043  0.9362
 3568TIP3   OH232118   2.003   5.923  12.153 -0.0257  0.0073  0.0539
 3568TIP3    H132119   1.929   5.954  12.206 -0.2741 -1.9908  0.9597
 3568TIP3    H232120   1.973   5.841  12.115  0.9762  0.2760 -1.3966
 3569TIP3   OH232121   6.562   1.653   0.211  0.0420  0.3113 -0.2062
 3569TIP3    H132122   6.554   1.722   0.146 -1.0092  0.5089  0.1074
 3569TIP3    H232123   6.590   1.576   0.162  1.5607  1.0268 -0.5092
 3570TIP3   OH232124   1.023   6.721   5.089 -0.5268  0.4064  0.3886
 3570TIP3    H132125   0.977   6.673   5.157 -0.3080  0.3331  0.4835
 3570TIP3    H232126   0.963   6.719   5.014 -2.2015  3.1342  1.4963
 3571TIP3   OH232127   0.630   3.067  15.383 -0.1204  0.6979  0.3789
 3571TIP3    H132128   0.536   3.048  15.375  0.1779 -1.9842  1.9397
 3571TIP3    H232129   0.656   3.097  15.296 -1.9936 -0.7643 -0.7658
 3572TIP3   OH232130   4.263   0.409  12.473  0.4050  0.7607  0.1811
 3572TIP3    H132131   4.189   0.402  12.534  1.3103 -0.7264  1.1880
 3572TIP3    H232132   4.270   0.322  12.433  1.8759  0.6983  0.4886
 3573TIP3   OH232133   1.702   0.134  12.261 -0.3284  0.1167  0.1469
 3573TIP3    H132134   1.624   0.082  12.280  0.3183 -1.0023 -0.1469
 3573TIP3    H232135   1.775   0.072  12.273  0.3723  0.5532 -1.6059
 3574TIP3   OH232136   3.757   5.550  16.939  0.6904 -0.0682 -0.2958
 3574TIP3    H132137   3.762   5.613  16.867  1.7197  0.9052  0.5842
 3574TIP3    H232138   3.844   5.553  16.980  0.2387 -0.8385  0.7731
 3575TIP3   OH232139   1.021   1.648   1.174 -0.1320  0.0845  0.2620
 3575TIP3    H132140   0.967   1.726   1.158  0.9546  0.6456 -0.8368
 3575TIP3    H232141   0.989   1.584   1.111 -0.6821 -0.2017  0.8189
 3576TIP3   OH232142   0.737   1.825  15.709  0.4555 -0.6599 -0.0673
 3576TIP3    H132143   0.705   1.823  15.799  1.1832  0.4682  0.2317
 3576TIP3    H232144   0.685   1.759  15.664 -0.7084 -0.4452  0.9140
 3577TIP3   OH232145   4.667   0.359  14.202 -0.2479  0.0766  0.3076
 3577TIP3    H132146   4.733   0.314  14.253  1.1408  1.4513 -0.1977
 3577TIP3    H232147   4.712   0.435  14.165 -1.9436  0.7205 -0.5794
 3578TIP3   OH232148   2.118   2.462  16.487  0.3409 -0.0106  0.5107
 3578TIP3    H132149   2.211   2.484  16.497  1.0163 -2.7226  1.0462
 3578TIP3    H232150   2.116   2.367  16.486 -2.4335 -0.0330  0.1011
 3579TIP3   OH232151   3.084   3.658   0.295  0.5531  0.1866 -0.1253
 3579TIP3    H132152   2.991   3.643   0.311  0.7525 -0.4051  0.5309
 3579TIP3    H232153   3.116   3.575   0.261  0.8044  0.4503 -0.5336
 3580TIP3   OH232154   1.261   2.389  16.257 -0.3459  0.4075 -0.1859
 3580TIP3    H132155   1.282   2.414  16.347  0.0726  1.0550 -0.4557
 3580TIP3    H232156   1.268   2.293  16.257  1.0315  0.4781  0.1543
 3581TIP3   OH232157   0.784   5.341   5.296  0.0013  0.2357 -0.8405
 3581TIP3    H132158   0.747   5.253   5.303 -1.0944  0.7990  2.4343
 3581TIP3    H232159   0.713   5.395   5.263 -0.3672  0.3713  0.1338
 3582TIP3   OH232160   6.306   4.143  11.582  0.1166  0.1609  0.1955
 3582TIP3    H132161   6.214   4.136  11.559 -0.2410  0.8212  1.3112
 3582TIP3    H232162   6.340   4.213  11.525 -0.4527  0.9466  0.7903
 3583TIP3   OH232163   2.520   6.060  14.519  0.7703  0.1927  0.4155
 3583TIP3    H132164   2.513   5.998  14.447 -1.3276 -0.7822  1.3604
 3583TIP3    H232165   2.612   6.061  14.543  1.2017 -0.8007 -1.1169
 3584TIP3   OH232166   2.767   0.894   4.728 -0.1122 -0.0249 -0.5210
 3584TIP3    H132167   2.702   0.861   4.790  1.5453  0.7264  1.7325
 3584TIP3    H232168   2.765   0.989   4.738  0.3280  0.1058 -1.4960
 3585TIP3   OH232169   3.262   2.860  12.387  0.2484 -0.7011 -0.2517
 3585TIP3    H132170   3.170   2.853  12.411  1.0278 -0.7700  3.1665
 3585TIP3    H232171   3.291   2.770  12.374 -0.1377 -0.6753 -1.3866
 3586TIP3   OH232172   2.814   5.225  14.666 -0.2073 -0.1205  0.9707
 3586TIP3    H132173   2.875   5.292  14.637 -0.5797  1.3367  3.3739
 3586TIP3    H232174   2.869   5.157  14.705  0.0617 -0.5142 -0.0586
 3587TIP3   OH232175   4.376   1.473  16.941 -0.0861 -0.0748 -0.0114
 3587TIP3    H132176   4.369   1.475  16.846  0.0286 -0.1682 -0.0225
 3587TIP3    H232177   4.446   1.410  16.958  0.2976  0.3889  0.1176
 3588TIP3   OH232178   6.116   0.555   0.235 -0.2382 -0.2535  0.5217
 3588TIP3    H132179   6.128   0.635   0.286  1.5963  0.1028 -0.3830
 3588TIP3    H232180   6.021   0.545   0.227 -0.5093  1.9536  0.4769
 3589TIP3   OH232181   3.512   4.056  13.188 -0.1326  0.1765  0.3372
 3589TIP3    H132182   3.461   4.095  13.259  1.0359  0.1371  1.2295
 3589TIP3    H232183   3.487   4.106  13.110 -0.9803  0.6275  0.8862
 3590TIP3   OH232184   4.277   4.724  17.052 -0.3092 -0.4215 -0.1516
 3590TIP3    H132185   4.235   4.695  17.133  0.1650 -1.9305 -0.4122
 3590TIP3    H232186   4.307   4.643  17.011  3.2553  0.5248  0.2421
 3591TIP3   OH232187   1.598   2.040   5.443 -0.2345 -0.4609  0.3432
 3591TIP3    H132188   1.547   2.021   5.364  0.0508 -0.3321  0.1287
 3591TIP3    H232189   1.689   2.028   5.417  0.0103  1.5969  0.0692
 3592TIP3   OH232190   4.237   5.404  16.019 -0.4686  0.2803 -0.2040
 3592TIP3    H132191   4.189   5.486  16.028  1.0566  1.0976  0.8651
 3592TIP3    H232192   4.292   5.400  16.098  0.0418 -1.3921 -0.6168
 3593TIP3   OH232193   1.393   2.755  11.658 -0.3421 -0.5418 -0.2078
 3593TIP3    H132194   1.327   2.693  11.688  0.3406  0.0341  2.8938
 3593TIP3    H232195   1.467   2.741  11.718  0.7593  1.5769 -0.9760
 3594TIP3   OH232196   1.401   2.912  14.275 -0.1528  0.0897 -0.3171
 3594TIP3    H132197   1.364   2.847  14.335  0.8705  1.5415  2.0438
 3594TIP3    H232198   1.480   2.870  14.241 -0.0028 -0.2696  0.4539
 3595TIP3   OH232199   1.588   4.122   0.463 -0.0875 -0.4222  0.7735
 3595TIP3    H132200   1.638   4.167   0.395  2.8017 -1.8809  1.7565
 3595TIP3    H232201   1.647   4.118   0.538 -1.3885 -2.9178  1.8121
 3596TIP3   OH232202   1.330   1.951   1.348  0.2282  0.8580 -0.6043
 3596TIP3    H132203   1.324   1.923   1.439  1.5163  2.1889 -0.0639
 3596TIP3    H232204   1.240   1.955   1.317 -0.1406 -1.4651 -0.0149
 3597TIP3   OH232205   1.956   0.414   4.092  0.5967 -0.1445 -0.2764
 3597TIP3    H132206   1.914   0.346   4.145 -1.2377  1.7498  0.7995
 3597TIP3    H232207   1.996   0.365   4.019 -1.7594 -2.2767 -0.2836
 3598TIP3   OH232208   6.580   4.523   0.282  0.3347 -0.6866 -0.2008
 3598TIP3    H132209   6.499   4.572   0.299 -0.1563 -1.3771 -0.4829
 3598TIP3    H232210   6.599   4.540   0.189  0.9526  0.0941  0.0569
 3599TIP3   OH232211   0.320   4.977   3.683 -0.0671  0.4358 -0.2846
 3599TIP3    H132212   0.231   4.990   3.651 -0.5806 -0.7847  0.5608
 3599TIP3    H232213   0.360   5.064   3.680 -0.7462  0.7186 -2.2042
 3600TIP3   OH232214   0.808   5.293  15.074 -0.1178 -0.1692  0.1081
 3600TIP3    H132215   0.819   5.327  15.163  0.9629  1.4712 -0.5945
 3600TIP3    H232216   0.720   5.254  15.074  0.0043 -0.5205  1.9740
 3601TIP3   OH232217   5.725   1.424  11.570 -0.1963 -0.0176  0.6486
 3601TIP3    H132218   5.663   1.495  11.581  0.0762  0.2954  0.1407
 3601TIP3    H232219   5.724   1.378  11.655  0.2328  1.0706  1.2618
 3602TIP3   OH232220   2.358   1.706   2.405  0.4856 -0.0898  0.3000
 3602TIP3    H132221   2.275   1.718   2.451 -0.0087 -1.7278 -0.0840
 3602TIP3    H232222   2.374   1.790   2.362 -1.3380  0.0506 -0.1725
 3603TIP3   OH232223   0.992   0.333  15.857  0.0841  0.0472 -0.3018
 3603TIP3    H132224   0.969   0.422  15.833  1.7896  0.8147  0.6932
 3603TIP3    H232225   0.914   0.299  15.903 -0.2042  1.3937  0.2340
 3604TIP3   OH232226   2.910   0.869  16.314  0.0176 -0.2251  0.4828
 3604TIP3    H132227   2.938   0.796  16.370  1.0047  0.0154  0.3147
 3604TIP3    H232228   2.991   0.915  16.292 -0.6774  1.6507  1.5860
 3605TIP3   OH232229   3.297   6.650   4.728  0.6661  0.1362  0.1122
 3605TIP3    H132230   3.294   6.575   4.787 -0.7067 -0.5848 -0.8163
 3605TIP3    H232231   3.390   6.675   4.725  1.2362 -1.8472  0.0717
 3606TIP3   OH232232   3.253   0.657   2.258  0.4185 -0.0672 -0.0626
 3606TIP3    H132233   3.229   0.731   2.314 -0.6760  0.8967 -1.7018
 3606TIP3    H232234   3.345   0.641   2.278  0.7286  1.8544  0.2600
 3607TIP3   OH232235   3.881   3.665   3.157  0.1456 -0.0037  0.0024
 3607TIP3    H132236   3.902   3.639   3.067  1.1354 -0.0232  0.2249
 3607TIP3    H232237   3.808   3.725   3.148 -1.3061 -1.7806 -0.6241
 3608TIP3   OH232238   0.373   5.954   5.729 -0.1784 -0.6827  0.4658
 3608TIP3    H132239   0.388   5.875   5.676 -1.4782 -2.3471  2.4174
 3608TIP3    H232240   0.445   5.956   5.791  0.7176  0.6219 -0.5604
 3609TIP3   OH232241   5.337   4.561   0.043 -0.0714  0.1484  0.2588
 3609TIP3    H132242   5.348   4.519   0.128  1.5083  0.7673  0.3878
 3609TIP3    H232243   5.288   4.641   0.062 -0.1907  0.0176  0.5066
 3610TIP3   OH232244   4.083   2.327  15.545 -0.2214 -0.0416 -0.0398
 3610TIP3    H132245   4.118   2.364  15.627 -1.1318  0.0819  0.3021
 3610TIP3    H232246   4.107   2.235  15.549 -0.5555 -0.1086  0.5342
 3611TIP3   OH232247   2.599   2.187  15.972 -0.0905 -0.1331 -0.2028
 3611TIP3    H132248   2.672   2.170  15.912 -0.6442 -0.9617 -0.6570
 3611TIP3    H232249   2.616   2.275  16.005 -1.0781  1.5103 -3.5370
 3612TIP3   OH232250   0.996   4.810  16.156 -0.2510  0.5238 -0.4154
 3612TIP3    H132251   1.006   4.760  16.237  0.6543 -0.0622 -0.8729
 3612TIP3    H232252   0.982   4.743  16.089  3.3270  0.6055 -1.4313
 3613TIP3   OH232253   6.766   3.212  14.790  0.3563  0.3873 -0.4849
 3613TIP3    H132254   6.751   3.302  14.761  0.8942  0.4656 -0.5287
 3613TIP3    H232255   6.861   3.204  14.797  0.5848 -1.0722 -3.3913
 3614TIP3   OH232256   4.691   3.549   3.125 -0.2864 -0.3920  0.2679
 3614TIP3    H132257   4.717   3.564   3.034 -1.1245  0.6004  0.1690
 3614TIP3    H232258   4.769   3.571   3.176 -0.5178  1.3800 -0.0885
 3615TIP3   OH232259   4.534   5.900  14.713  0.3898  0.0729 -0.2823
 3615TIP3    H132260   4.449   5.876  14.676  0.9861 -1.8214 -0.5356
 3615TIP3    H232261   4.515   5.920  14.804 -0.4003  0.0526 -0.4341
 3616TIP3   OH232262   0.655   3.721   2.125 -0.1620 -0.3081 -0.1120
 3616TIP3    H132263   0.603   3.667   2.183 -1.6967  0.3358 -0.8432
 3616TIP3    H232264   0.592   3.758   2.063  1.2967 -0.3304 -1.6829
 3617TIP3   OH232265   1.668   3.056  12.755  0.0281 -0.1121 -0.3390
 3617TIP3    H132266   1.749   3.018  12.789  0.0941 -1.3296 -1.7357
 3617TIP3    H232267   1.696   3.103  12.676 -0.5638 -0.1750 -0.5905
 3618TIP3   OH232268   1.167   0.230   0.683  0.8398 -0.0779 -0.4866
 3618TIP3    H132269   1.187   0.254   0.592  1.8532  0.2957 -0.1831
 3618TIP3    H232270   1.074   0.207   0.682  0.5031  1.1749 -1.3650
 3619TIP3   OH232271   0.034   4.662  15.601  0.0261 -0.1752  0.4579
 3619TIP3    H132272   0.044   4.613  15.519  0.2538  0.1154  0.3124
 3619TIP3    H232273   0.079   4.608  15.666 -0.5199 -0.6154  0.4737
 3620TIP3   OH232274   5.189   2.963   2.175 -0.2869  0.3428 -0.2418
 3620TIP3    H132275   5.245   3.038   2.198 -1.9603  2.0777 -1.5266
 3620TIP3    H232276   5.204   2.951   2.082 -0.1469 -0.8743 -0.0704
 3621TIP3   OH232277   1.486   5.634  10.553  0.2638  0.1793  0.6455
 3621TIP3    H132278   1.541   5.702  10.591  0.3180  0.3364  0.2921
 3621TIP3    H232279   1.475   5.570  10.623  2.7067 -0.9508  0.1298
 3622TIP3   OH232280   6.361   5.803   6.236  0.0621 -0.0352 -0.2312
 3622TIP3    H132281   6.273   5.840   6.235 -0.6137 -1.5234  0.5195
 3622TIP3    H232282   6.364   5.753   6.317  0.5404 -2.4411 -1.6485
 3623TIP3   OH232283   4.420   0.640   2.113  0.4012  0.1172  0.2514
 3623TIP3    H132284   4.408   0.723   2.067 -0.1419 -0.4798 -0.6958
 3623TIP3    H232285   4.452   0.666   2.200  1.0419  1.2746 -0.3009
 3624TIP3   OH232286   2.809   0.598   3.944 -0.4132 -0.2515 -0.4372
 3624TIP3    H132287   2.820   0.545   4.023 -0.4712 -1.3923 -1.1672
 3624TIP3    H232288   2.746   0.665   3.969 -0.5344 -0.6738  0.4474
 3625TIP3   OH232289   5.853   3.122   4.740  0.1623 -0.0106  0.2079
 3625TIP3    H132290   5.798   3.048   4.767  0.7421 -0.3258  0.5405
 3625TIP3    H232291   5.808   3.199   4.775 -0.3502 -0.2179  0.0124
 3626TIP3   OH232292   2.595   5.832   4.765  0.3234  0.3387  0.2256
 3626TIP3    H132293   2.565   5.742   4.753 -0.9943  0.9531 -1.4444
 3626TIP3    H232294   2.653   5.848   4.690 -2.3459  1.9674 -1.6899
 3627TIP3   OH232295   5.678   1.502   4.841  0.7220  0.2232  0.1164
 3627TIP3    H132296   5.636   1.538   4.762 -0.1667 -1.1133 -0.0465
 3627TIP3    H232297   5.611   1.447   4.881  1.2967  0.5874  1.6175
 3628TIP3   OH232298   2.160   0.084   2.535  0.0878  0.2244 -0.0073
 3628TIP3    H132299   2.238   0.137   2.550  0.0954  0.7130 -1.5790
 3628TIP3    H232300   2.174   0.046   2.448 -2.0406  1.4518 -0.9420
 3629TIP3   OH232301   0.798   3.482   1.129  0.0239 -0.0762  0.0636
 3629TIP3    H132302   0.758   3.560   1.090  0.7004  0.9687  1.3572
 3629TIP3    H232303   0.729   3.416   1.129 -1.3852  1.3136  1.2219
 3630TIP3   OH232304   3.088   4.734  13.422 -0.2702 -0.4777  0.5923
 3630TIP3    H132305   3.183   4.727  13.429 -0.3319 -0.4959  1.7499
 3630TIP3    H232306   3.071   4.828  13.415 -0.1163 -0.5472 -0.9520
 3631TIP3   OH232307   1.134   6.598   1.715  0.0052 -0.3609 -0.0404
 3631TIP3    H132308   1.085   6.612   1.634  0.9606  1.8179 -0.3204
 3631TIP3    H232309   1.104   6.668   1.773  0.4640 -0.9542  0.9344
 3632TIP3   OH232310   5.013   0.946  16.539 -0.2785  0.0139  0.2791
 3632TIP3    H132311   5.045   1.036  16.540  0.9747 -0.3428  3.0190
 3632TIP3    H232312   5.091   0.893  16.522 -1.1687 -0.5955 -2.3167
 3633TIP3   OH232313   4.112   1.426   4.876 -0.0683  0.2606 -0.5038
 3633TIP3    H132314   4.107   1.331   4.888 -1.2720  0.4353  0.5787
 3633TIP3    H232315   4.106   1.461   4.965  1.9554  1.3236 -0.7265
 3634TIP3   OH232316   5.109   3.701   2.326 -0.8058  0.0629 -0.5718
 3634TIP3    H132317   5.115   3.656   2.410  1.6426  0.1005 -0.6419
 3634TIP3    H232318   5.100   3.793   2.348  1.8894  0.3310 -0.2020
 3635TIP3   OH232319   1.627   3.839  13.542  0.4068  0.4005  0.1810
 3635TIP3    H132320   1.579   3.871  13.619 -0.7617  0.9823 -0.7472
 3635TIP3    H232321   1.711   3.884  13.546 -0.5913  2.4241 -0.2204
 3636TIP3   OH232322   2.797   2.392   5.616  0.1555 -0.0251  0.4580
 3636TIP3    H132323   2.812   2.401   5.710 -0.5111 -0.2637  0.5928
 3636TIP3    H232324   2.875   2.431   5.576  0.2124  0.5524  1.0987
 3637TIP3   OH232325   5.139   5.337  13.487 -0.2269 -0.2723 -0.1103
 3637TIP3    H132326   5.096   5.309  13.568 -0.8881  1.4115  0.1545
 3637TIP3    H232327   5.227   5.301  13.493 -0.2134 -0.0352  1.4470
 3638TIP3   OH232328   1.751   5.229   2.748 -0.0945 -0.6661  0.4049
 3638TIP3    H132329   1.657   5.219   2.740 -0.1133 -0.8786  0.8637
 3638TIP3    H232330   1.785   5.139   2.748 -0.0046 -0.6506  1.4889
 3639TIP3   OH232331   3.311   0.558  13.708  0.2164 -0.0763  0.1677
 3639TIP3    H132332   3.335   0.650  13.691 -0.9027  0.8842  3.1684
 3639TIP3    H232333   3.374   0.529  13.774  1.0796 -1.8311 -1.3357
 3640TIP3   OH232334   1.013   6.067  11.719 -0.0197 -0.5620 -0.0792
 3640TIP3    H132335   1.009   5.972  11.728 -1.6599 -0.4755  0.2963
 3640TIP3    H232336   1.003   6.101  11.808  0.9770 -0.0142 -0.1481
 3641TIP3   OH232337   2.849   0.660  11.744  0.4519  0.1117  0.0854
 3641TIP3    H132338   2.861   0.568  11.718  0.5360  0.3054 -0.5842
 3641TIP3    H232339   2.920   0.677  11.805  0.4245 -0.2745  0.2308
 3642TIP3   OH232340   6.453   1.292   4.330  0.4262  0.4994 -0.8447
 3642TIP3    H132341   6.491   1.378   4.309 -0.3568  0.8163 -0.9939
 3642TIP3    H232342   6.363   1.311   4.353  0.8825  0.0043  1.5660
 3643TIP3   OH232343   4.421   2.532  13.099  0.0757  0.2515  0.2746
 3643TIP3    H132344   4.506   2.494  13.076 -0.8824 -1.4439 -0.6914
 3643TIP3    H232345   4.432   2.563  13.189  1.3305 -1.1551  0.6428
 3644TIP3   OH232346   6.500   2.288  14.155 -0.5491 -0.0389  0.4971
 3644TIP3    H132347   6.553   2.359  14.193 -0.1618  1.2271 -2.2013
 3644TIP3    H232348   6.533   2.278  14.066 -1.6044 -2.6623  0.3306
 3645TIP3   OH232349   4.954   2.078  12.944 -0.6898  0.4106  0.0158
 3645TIP3    H132350   4.878   2.087  12.888 -2.2417 -0.7449  1.8078
 3645TIP3    H232351   4.943   2.146  13.011  0.1929  0.6175 -0.0289
 3646TIP3   OH232352   6.639   3.377   1.339 -0.7384  0.0525  0.3005
 3646TIP3    H132353   6.548   3.404   1.337 -0.6134  0.4374 -1.1681
 3646TIP3    H232354   6.675   3.403   1.254  0.9607  0.6411  1.1439
 3647TIP3   OH232355   2.382   4.671  12.197 -0.4494  0.5840 -0.2177
 3647TIP3    H132356   2.323   4.654  12.271  0.8574  2.8529  1.4750
 3647TIP3    H232357   2.401   4.764  12.201  0.2288  0.6786 -3.0751
 3648TIP3   OH232358   5.633   5.716  14.926 -0.3532 -0.1110 -0.3082
 3648TIP3    H132359   5.574   5.743  14.856 -2.8899 -0.1343  1.6888
 3648TIP3    H232360   5.665   5.799  14.964  0.0896 -0.0834 -0.7386
 3649TIP3   OH232361   6.196   0.730   3.229  0.9190  0.3300  0.6293
 3649TIP3    H132362   6.185   0.780   3.148  0.1727 -0.7408  0.0456
 3649TIP3    H232363   6.115   0.681   3.238  1.0575  0.3050  1.9539
 3650TIP3   OH232364   4.867   5.799  11.670 -0.3083  0.0785  0.6721
 3650TIP3    H132365   4.777   5.791  11.703 -1.8574  0.4709 -2.9855
 3650TIP3    H232366   4.902   5.710  11.678 -1.0703 -0.1436  1.9215
 3651TIP3   OH232367   0.046   2.667   2.000 -0.2256 -0.3010 -0.4134
 3651TIP3    H132368   0.081   2.691   1.914  1.8249 -0.7649  0.2297
 3651TIP3    H232369  -0.048   2.656   1.985 -0.6434  3.5069 -1.7428
 3652TIP3   OH232370   0.892   5.660  13.226  0.5255 -0.1970  0.5852
 3652TIP3    H132371   0.913   5.570  13.201  1.1500 -0.1439  0.9036
 3652TIP3    H232372   0.973   5.694  13.264  0.1208  0.3130  1.0065
 3653TIP3   OH232373   2.487   0.621   0.631 -1.0104  0.0554 -0.1961
 3653TIP3    H132374   2.540   0.553   0.592 -1.5832 -0.4308 -0.1492
 3653TIP3    H232375   2.403   0.578   0.651 -1.1802  0.6186  0.3615
 3654TIP3   OH232376   3.979   1.133  11.704  0.0349  0.3494 -0.1145
 3654TIP3    H132377   4.007   1.130  11.612 -0.9759 -0.7804 -0.4038
 3654TIP3    H232378   3.932   1.216  11.711 -1.7704 -0.5086 -1.2267
 3655TIP3   OH232379   5.216   3.268   0.380 -0.0160  0.2605  0.0491
 3655TIP3    H132380   5.292   3.228   0.337  0.8342  1.9496 -0.1130
 3655TIP3    H232381   5.237   3.266   0.473  0.7797  1.7107 -0.0676
 3656TIP3   OH232382   5.709   0.748   5.759 -0.5906 -0.1169  0.2949
 3656TIP3    H132383   5.622   0.789   5.759 -0.1094  0.9195 -0.4712
 3656TIP3    H232384   5.770   0.820   5.775  0.2268 -0.6157 -0.4756
 3657TIP3   OH232385   0.718   0.847  12.636  0.2313  0.9553  0.4937
 3657TIP3    H132386   0.735   0.828  12.543 -0.6699  3.0563 -0.1658
 3657TIP3    H232387   0.760   0.775  12.683 -1.3268 -1.5667 -1.6214
 3658TIP3   OH232388   6.362   6.065   4.083  0.4203  0.0122 -0.5693
 3658TIP3    H132389   6.275   6.042   4.051  0.1262 -0.8098  0.7236
 3658TIP3    H232390   6.354   6.156   4.111  0.2379  0.2297 -1.3233
 3659TIP3   OH232391   2.813   2.800   4.717 -0.3116  0.6416  0.1302
 3659TIP3    H132392   2.870   2.748   4.773  0.0066  2.9046  2.0900
 3659TIP3    H232393   2.739   2.743   4.697  0.9069 -1.1517  0.5349
 3660TIP3   OH232394   4.960   2.414  11.453  0.3208 -0.5554  0.0785
 3660TIP3    H132395   5.024   2.482  11.433  1.3004 -0.8811  1.8545
 3660TIP3    H232396   4.933   2.381  11.368 -0.0653  1.9139 -0.8451
 3661TIP3   OH232397   1.393   0.182   3.585  0.2546  0.3502 -0.1202
 3661TIP3    H132398   1.346   0.257   3.549 -1.2146 -0.3730  0.2011
 3661TIP3    H232399   1.327   0.113   3.590  1.1110 -0.4190  1.2874
 3662TIP3   OH232400   3.632   3.250   0.151 -0.2263 -0.3133  0.2216
 3662TIP3    H132401   3.672   3.168   0.178  1.2400  0.2020 -0.3081
 3662TIP3    H232402   3.543   3.245   0.185 -0.0134 -1.8971  0.6285
 3663TIP3   OH232403   5.755   4.282  15.112 -0.0214 -0.3879  0.0753
 3663TIP3    H132404   5.794   4.244  15.033  0.1352  0.5559 -0.3058
 3663TIP3    H232405   5.661   4.265  15.103 -0.1853  0.9920 -1.0286
 3664TIP3   OH232406   2.540   5.504   3.337  0.0133  0.0620  0.1261
 3664TIP3    H132407   2.457   5.492   3.291  0.5060 -0.3325 -0.6754
 3664TIP3    H232408   2.600   5.536   3.270  0.0548  2.1546  1.0927
 3665TIP3   OH232409   6.005   0.034  13.788 -0.5296  0.0650 -0.4122
 3665TIP3    H132410   6.067  -0.001  13.853  0.0033  1.6729 -0.0218
 3665TIP3    H232411   5.929  -0.025  13.795  0.4757 -1.2511 -0.0830
 3666TIP3   OH232412   4.222   1.009  15.859 -0.0244 -0.1686 -0.2990
 3666TIP3    H132413   4.169   0.982  15.934 -2.1828  0.7507 -1.4081
 3666TIP3    H232414   4.214   0.936  15.797  2.7772 -1.4963  0.7355
 3667TIP3   OH232415   1.059   5.517  12.913  0.0321  0.6314 -0.5685
 3667TIP3    H132416   0.973   5.482  12.936 -0.6996  1.2497 -2.1937
 3667TIP3    H232417   1.048   5.552  12.824  2.2036 -0.1186 -1.2016
 3668TIP3   OH232418   0.160   5.448   3.164  0.5265  0.1877 -0.2794
 3668TIP3    H132419   0.187   5.376   3.107 -0.2615  0.2040 -0.6852
 3668TIP3    H232420   0.091   5.493   3.116 -0.8395 -0.3728  1.0815
 3669TIP3   OH232421   5.352   5.073   4.688  0.7437  0.1673  0.0495
 3669TIP3    H132422   5.343   5.081   4.783  1.8952  2.1692  0.0476
 3669TIP3    H232423   5.386   4.985   4.674 -0.4063 -0.5244  1.3906
 3670TIP3   OH232424   5.132   0.626   2.712 -0.7748 -0.0550  0.2668
 3670TIP3    H132425   5.131   0.638   2.617 -0.6822  0.7501  0.3585
 3670TIP3    H232426   5.056   0.571   2.730  0.2127 -1.7292 -0.4540
 3671TIP3   OH232427   2.134   6.327   5.040 -0.1466 -0.4639 -0.2565
 3671TIP3    H132428   2.079   6.261   5.083 -0.6339  0.2179  0.2022
 3671TIP3    H232429   2.223   6.307   5.070 -0.3402 -0.6763  0.1962
 3672TIP3   OH232430   2.208   1.379  15.693 -1.1334  0.4528 -0.2817
 3672TIP3    H132431   2.229   1.470  15.674 -1.7914  0.7412  0.3607
 3672TIP3    H232432   2.292   1.333  15.683 -0.4713  1.3679  0.9038
 3673TIP3   OH232433   5.696   0.934   4.909 -0.0985  0.5553  0.5013
 3673TIP3    H132434   5.636   1.007   4.923 -0.3649  0.1275  1.8368
 3673TIP3    H232435   5.640   0.856   4.915  0.6945  0.0906  2.9561
 3674TIP3   OH232436   3.123   6.470  11.029 -0.2445  0.5009 -0.4902
 3674TIP3    H132437   3.205   6.504  10.992 -0.7791  2.0600 -0.3197
 3674TIP3    H232438   3.085   6.545  11.074 -0.6200 -0.8315  1.4998
 3675TIP3   OH232439   1.162   1.367  15.569  0.4467 -0.1773 -0.1753
 3675TIP3    H132440   1.141   1.461  15.573  1.7603  0.1920 -1.3660
 3675TIP3    H232441   1.111   1.334  15.496  1.0121 -0.0979 -0.6104
 3676TIP3   OH232442   6.012   3.085  12.245 -0.5969  0.7167 -0.1010
 3676TIP3    H132443   6.028   3.175  12.217 -0.2964  1.0694  1.1230
 3676TIP3    H232444   6.090   3.037  12.217  0.2046  1.2931  1.0809
 3677TIP3   OH232445   4.838   0.320   2.484 -0.8160 -0.3550 -0.2108
 3677TIP3    H132446   4.813   0.366   2.404  2.0578  3.8375  0.9126
 3677TIP3    H232447   4.932   0.304   2.473  0.0722  1.8976  2.7567
 3678TIP3   OH232448   6.435   0.234  15.925  0.0539  0.1298 -0.1962
 3678TIP3    H132449   6.472   0.245  15.838  0.0989  3.1245  0.0870
 3678TIP3    H232450   6.491   0.286  15.982 -1.4388  0.3234  1.1756
 3679TIP3   OH232451   3.606   5.131   1.247  0.4521  0.4647  0.1627
 3679TIP3    H132452   3.583   5.172   1.163 -1.3328  0.0196  0.4059
 3679TIP3    H232453   3.634   5.043   1.223  1.5777  0.8747 -0.0970
 3680TIP3   OH232454   3.854   2.397   1.029  0.5221 -0.2199  0.4440
 3680TIP3    H132455   3.819   2.438   0.950  0.4937 -0.4118  0.3563
 3680TIP3    H232456   3.858   2.468   1.093 -0.6777 -0.3341  0.6701
 3681TIP3   OH232457   2.086   1.114  15.084 -0.2556  0.4593 -0.2518
 3681TIP3    H132458   2.021   1.044  15.085 -0.3818  0.5613 -0.7552
 3681TIP3    H232459   2.067   1.163  15.004 -0.0507  0.9575  0.0004
 3682TIP3   OH232460   5.721   5.473   2.710  0.3274 -0.5170 -0.6485
 3682TIP3    H132461   5.649   5.430   2.755  0.7054 -0.5406 -0.0515
 3682TIP3    H232462   5.681   5.550   2.669 -0.1897 -0.9848 -1.0332
 3683TIP3   OH232463   3.535   4.959  13.822 -0.2959 -0.5594  0.0819
 3683TIP3    H132464   3.611   4.906  13.796  0.3232 -0.0832  0.8859
 3683TIP3    H232465   3.542   4.966  13.917  0.1689  1.7332 -0.0651
 3684TIP3   OH232466   0.589   3.345  11.988  0.3626 -0.3552  0.2484
 3684TIP3    H132467   0.496   3.368  11.983  0.2793 -0.3086  1.5830
 3684TIP3    H232468   0.599   3.272  11.928 -0.5200 -0.3054  0.0276
 3685TIP3   OH232469   4.526   1.742  13.924  0.3306  0.0800  0.2125
 3685TIP3    H132470   4.523   1.768  13.832 -0.0929 -3.2516 -0.8342
 3685TIP3    H232471   4.554   1.821  13.970  0.4771  1.8918 -2.7340
 3686TIP3   OH232472   5.047   2.450   4.648 -0.6659 -0.1958  0.3641
 3686TIP3    H132473   5.075   2.362   4.675  2.7924  1.0170  1.2826
 3686TIP3    H232474   5.117   2.479   4.589 -1.7423  1.9573  0.0757
 3687TIP3   OH232475   2.392   0.412  14.578  0.7355  0.0907 -0.5869
 3687TIP3    H132476   2.482   0.438  14.600  0.3011  0.0055  1.5706
 3687TIP3    H232477   2.344   0.495  14.575  0.5316  0.0116  0.2134
 3688TIP3   OH232478   4.161   4.237  11.995 -0.5699 -0.3009 -0.3895
 3688TIP3    H132479   4.234   4.293  12.023 -0.4730 -1.3041  1.5233
 3688TIP3    H232480   4.160   4.245  11.900  1.2865  0.6533 -0.3769
 3689TIP3   OH232481   6.274   0.352  11.650  0.0707  0.3634  0.8060
 3689TIP3    H132482   6.232   0.306  11.578  0.2650 -1.1620  1.6286
 3689TIP3    H232483   6.277   0.288  11.721  1.2220  1.3421  1.6833
 3690TIP3   OH232484   3.400   0.445   2.097  0.2369  0.5791  0.2626
 3690TIP3    H132485   3.444   0.363   2.077  1.1163  1.0463  0.2384
 3690TIP3    H232486   3.310   0.432   2.067  0.7018  0.1034 -0.9991
 3691TIP3   OH232487   5.741   1.737  13.904  0.6391 -0.0810 -0.5584
 3691TIP3    H132488   5.725   1.664  13.845 -0.0387  0.7490 -1.4415
 3691TIP3    H232489   5.682   1.806  13.873 -1.0586 -0.1639  2.1437
 3692TIP3   OH232490   4.276   5.311   3.763 -0.0643  0.3650  0.2942
 3692TIP3    H132491   4.366   5.336   3.784 -0.5354  2.0428  0.4024
 3692TIP3    H232492   4.229   5.394   3.754 -1.3188 -0.4462 -1.0442
 3693TIP3   OH232493   1.612   1.006  12.816 -0.1264 -0.2543 -0.4566
 3693TIP3    H132494   1.630   1.037  12.905 -0.2982 -3.1660  0.6964
 3693TIP3    H232495   1.537   1.058  12.787 -0.4276  0.3861  1.3403
 3694TIP3   OH232496   1.759   0.028   5.722  0.4034  0.1622  0.1557
 3694TIP3    H132497   1.801   0.099   5.770 -0.2677 -0.3234  1.5133
 3694TIP3    H232498   1.717   0.070   5.648  0.0520  1.1876  0.9091
 3695TIP3   OH232499   2.093   6.311  15.747 -0.4497  0.0790 -0.3223
 3695TIP3    H132500   2.101   6.227  15.702  2.3604  0.6906 -1.1469
 3695TIP3    H232501   2.169   6.315  15.805 -0.2190  2.2471 -0.6827
 3696TIP3   OH232502   3.449   4.658  14.063 -0.5337 -0.5771  0.2090
 3696TIP3    H132503   3.542   4.672  14.048 -0.0280 -0.7252  2.7392
 3696TIP3    H232504   3.416   4.743  14.092 -0.6429 -1.0608  1.5627
 3697TIP3   OH232505   1.028   4.318   3.397 -0.1580  0.0203  0.0835
 3697TIP3    H132506   1.089   4.251   3.366  1.0149  1.2545 -0.3604
 3697TIP3    H232507   0.954   4.312   3.337  1.1526  0.9483 -1.7269
 3698TIP3   OH232508   3.999   6.110   3.874 -0.0239  0.2864 -0.4760
 3698TIP3    H132509   3.909   6.091   3.849 -0.0286 -0.2889 -0.0543
 3698TIP3    H232510   4.043   6.025   3.873  0.9957  0.7722 -2.4503
 3699TIP3   OH232511   6.482   2.253   0.544 -0.1834  0.5338  0.0581
 3699TIP3    H132512   6.448   2.198   0.614 -0.2399  0.1501 -0.2712
 3699TIP3    H232513   6.574   2.228   0.537 -0.1574  0.6313  0.0500
 3700TIP3   OH232514   5.007   3.836  11.682  0.0568 -0.2473 -0.4642
 3700TIP3    H132515   4.952   3.826  11.604 -0.9669 -0.1586  0.2261
 3700TIP3    H232516   5.004   3.929  11.702 -0.8186 -0.4537  0.4607
 3701TIP3   OH232517   6.291   2.929  11.589  0.3225 -0.3128 -0.1487
 3701TIP3    H132518   6.362   2.898  11.645 -1.6835 -2.8309  1.2148
 3701TIP3    H232519   6.261   3.010  11.631  1.7588  0.3028 -0.2464
 3702TIP3   OH232520   4.020   2.169  15.831 -0.3720  0.6592 -0.3860
 3702TIP3    H132521   4.073   2.246  15.812 -0.0497  1.1142  1.9902
 3702TIP3    H232522   4.082   2.096  15.827  0.2200  1.0408  1.1622
 3703TIP3   OH232523   6.528   4.100   0.175  0.3873  0.2531 -0.6358
 3703TIP3    H132524   6.613   4.138   0.152  0.5207  1.0221  1.0213
 3703TIP3    H232525   6.465   4.171   0.162  0.4162  0.5946  0.9043
 3704TIP3   OH232526   4.513   5.169   5.146 -0.2721 -0.0540 -0.3410
 3704TIP3    H132527   4.444   5.182   5.210  1.2393  2.0942  0.9672
 3704TIP3    H232528   4.536   5.077   5.154 -1.2117 -0.1943  1.0487
 3705TIP3   OH232529   0.484   5.743  14.420  0.1904 -0.0014  0.4575
 3705TIP3    H132530   0.495   5.654  14.388 -3.3569 -0.0783 -0.9968
 3705TIP3    H232531   0.559   5.790  14.386  1.8032 -2.2555  0.6917
 3706TIP3   OH232532   4.327   4.343  12.916  0.0213 -0.3968  0.5831
 3706TIP3    H132533   4.287   4.295  12.988 -2.1297  0.4914  0.0683
 3706TIP3    H232534   4.289   4.304  12.837 -0.5931  1.1069  0.1046
 3707TIP3   OH232535   1.001   6.287   3.984 -0.4519  0.1125  0.2306
 3707TIP3    H132536   1.044   6.221   4.039 -0.1624 -1.1932 -1.5050
 3707TIP3    H232537   1.067   6.313   3.921 -1.1455  0.6873 -0.2678
 3708TIP3   OH232538   1.823   1.796   5.799  0.0915  0.4034  0.2966
 3708TIP3    H132539   1.871   1.731   5.851  0.2816  0.2570 -0.0559
 3708TIP3    H232540   1.752   1.825   5.857 -0.2237 -0.3928  0.3366
 3709TIP3   OH232541   6.058   4.286  13.764  0.2036 -0.2547  0.0059
 3709TIP3    H132542   6.061   4.296  13.859  2.4376 -0.7388  0.0506
 3709TIP3    H232543   6.076   4.193  13.750  0.2971 -0.1068 -0.9088
 3710TIP3   OH232544   4.794   5.471  14.377 -0.3637 -0.0584  0.0165
 3710TIP3    H132545   4.787   5.533  14.304 -1.1170  0.4733  0.5141
 3710TIP3    H232546   4.738   5.509  14.445  0.4716 -0.4440  0.9377
 3711TIP3   OH232547   3.545   0.647   2.740  0.1400  0.2370 -0.1997
 3711TIP3    H132548   3.523   0.580   2.676  0.4967  1.1289 -1.3029
 3711TIP3    H232549   3.631   0.621   2.774  0.3329  0.2017 -0.7111
 3712TIP3   OH232550   5.334   2.957  13.679 -0.2507  0.2152 -0.2390
 3712TIP3    H132551   5.261   2.972  13.619 -0.7928 -1.0495  0.0801
 3712TIP3    H232552   5.411   2.956  13.622 -0.5597  0.7305 -0.6837
 3713TIP3   OH232553   3.534   3.106   1.747  0.4604 -0.1160 -0.0387
 3713TIP3    H132554   3.508   3.044   1.680 -1.9470 -0.4154  1.0868
 3713TIP3    H232555   3.561   3.052   1.821  0.9922  0.2089  0.0145
 3714TIP3   OH232556   1.752   5.175  14.251  0.8796 -0.4572  0.2191
 3714TIP3    H132557   1.716   5.087  14.265  0.2822 -0.5420 -1.5738
 3714TIP3    H232558   1.842   5.169  14.285  0.7405 -1.6597  0.4334
 3715TIP3   OH232559   0.508   2.449  11.285  0.1732 -0.1793 -0.5403
 3715TIP3    H132560   0.469   2.481  11.367  1.1910  0.9945 -0.4821
 3715TIP3    H232561   0.538   2.361  11.306 -1.5308 -0.7487 -0.3133
 3716TIP3   OH232562   3.612   5.949   4.308  0.2307 -0.1735 -0.6778
 3716TIP3    H132563   3.634   5.857   4.293  0.7677 -0.4087  1.2399
 3716TIP3    H232564   3.697   5.991   4.325 -0.2110  0.1215  1.0018
 3717TIP3   OH232565   3.019   0.068   1.805 -0.3072  0.3414 -0.3200
 3717TIP3    H132566   2.935   0.092   1.845 -0.3823  1.4814 -1.1052
 3717TIP3    H232567   3.015  -0.027   1.797 -0.3305  0.0646  2.2141
 3718TIP3   OH232568   4.806   5.777  12.092  0.0097  0.5703  0.4828
 3718TIP3    H132569   4.738   5.769  12.025  1.3079 -2.1177 -0.6949
 3718TIP3    H232570   4.763   5.752  12.174 -0.3752 -1.8077 -0.3640
 3719TIP3   OH232571   2.772   2.133   5.022 -0.1206 -0.9394  0.2902
 3719TIP3    H132572   2.853   2.100   4.983  1.3994  1.0417  1.5916
 3719TIP3    H232573   2.716   2.154   4.947  2.1833  1.4551 -0.8968
 3720TIP3   OH232574   4.872   5.941   0.445  0.3368  0.0507  0.1611
 3720TIP3    H132575   4.807   6.011   0.443  1.1258  0.8349  0.9949
 3720TIP3    H232576   4.851   5.886   0.370 -0.4191  1.0793 -0.4023
 3721TIP3   OH232577   6.509   3.919   2.234  0.1486 -0.2849 -0.1832
 3721TIP3    H132578   6.436   3.877   2.278  1.2860 -1.1949  0.9250
 3721TIP3    H232579   6.496   3.900   2.141 -0.6279 -1.0424  0.0726
 3722TIP3   OH232580   5.615   4.407  10.564  0.3825 -0.2407  0.4235
 3722TIP3    H132581   5.707   4.379  10.562  0.2723 -0.7231  1.5363
 3722TIP3    H232582   5.572   4.345  10.622 -0.7236 -0.1931 -0.3127
 3723TIP3   OH232583   2.014   2.137   5.310  0.0635  0.3790  0.1936
 3723TIP3    H132584   2.036   2.091   5.229 -0.2109 -0.3009  0.4908
 3723TIP3    H232585   1.972   2.218   5.281 -0.3620 -0.0218 -0.3471
 3724TIP3   OH232586   0.793   0.295  12.294  0.1127 -0.1363 -0.1890
 3724TIP3    H132587   0.800   0.287  12.389 -0.8944  1.0902  0.0214
 3724TIP3    H232588   0.701   0.315  12.278  0.5651  1.3238 -1.2621
 3725TIP3   OH232589   4.106   2.005   3.517 -0.1346 -0.2649  0.2294
 3725TIP3    H132590   4.098   2.008   3.421 -0.2387  1.6611  0.2598
 3725TIP3    H232591   4.197   1.982   3.532 -0.3309 -1.4646 -0.3158
 3726TIP3   OH232592   4.237   1.876   4.577  0.0323 -0.1897  0.2924
 3726TIP3    H132593   4.245   1.920   4.492  1.4692  0.5036  0.7639
 3726TIP3    H232594   4.182   1.800   4.559 -2.6750  1.7913 -0.5559
 3727TIP3   OH232595   2.425   1.891   4.621  1.3401 -0.1129  0.0678
 3727TIP3    H132596   2.515   1.890   4.655  1.3762  2.4834  0.2421
 3727TIP3    H232597   2.414   1.979   4.586 -0.8525 -0.6878 -0.8026
 3728TIP3   OH232598   6.013   4.793  15.105  0.2973  0.5669  0.0933
 3728TIP3    H132599   5.924   4.774  15.077 -0.2139  1.7022  0.8691
 3728TIP3    H232600   6.069   4.761  15.034 -0.7990  1.0405 -1.0069
 3729TIP3   OH232601   6.366   6.115   2.000  0.1008  0.2470  0.4195
 3729TIP3    H132602   6.345   6.031   2.042  1.8000  0.3502  1.5944
 3729TIP3    H232603   6.407   6.090   1.917 -0.2493 -0.0591  0.3354
 3730TIP3   OH232604   2.212   4.938   1.223 -0.5102 -0.3039 -0.6963
 3730TIP3    H132605   2.150   4.951   1.151 -1.2932  0.7958  0.1415
 3730TIP3    H232606   2.298   4.953   1.183 -0.6762 -2.4741 -2.0213
 3731TIP3   OH232607   0.124   3.875  13.466 -0.1200 -0.0606 -0.0024
 3731TIP3    H132608   0.093   3.834  13.385  0.5544 -1.1092  0.2534
 3731TIP3    H232609   0.161   3.803  13.517  2.7793  1.1011 -0.3216
 3732TIP3   OH232610   6.749   6.496   5.562 -0.0939  0.2079 -0.4261
 3732TIP3    H132611   6.687   6.563   5.535 -1.8327 -1.6531 -1.3635
 3732TIP3    H232612   6.747   6.432   5.491  0.9623 -1.1787  0.7290
 3733TIP3   OH232613   2.325   2.198   6.058 -0.3016  0.1343  0.0312
 3733TIP3    H132614   2.286   2.281   6.031  0.6377  0.4746 -0.3249
 3733TIP3    H232615   2.394   2.223   6.119 -0.8238 -0.4774  0.8987
 3734TIP3   OH232616   2.691   0.743   2.280 -0.1032  0.1476 -0.6876
 3734TIP3    H132617   2.674   0.667   2.225  0.8451 -2.1592  1.9498
 3734TIP3    H232618   2.785   0.739   2.298 -0.3982  0.6005  1.2357
 3735TIP3   OH232619   4.704   2.157  12.857 -0.0847  0.2615 -0.1374
 3735TIP3    H132620   4.702   2.062  12.852  1.1104  0.2100  0.1417
 3735TIP3    H232621   4.723   2.186  12.768  3.7433  0.0320  0.4518
 3736TIP3   OH232622   5.045   4.998  10.080  0.0684 -0.2682 -1.0316
 3736TIP3    H132623   5.129   5.041  10.094  0.3802 -1.1027 -0.2080
 3736TIP3    H232624   5.063   4.905  10.096 -1.2660 -0.3148  0.4703
 3737TIP3   OH232625   6.412   3.534  14.100 -0.1736 -0.1230  0.1042
 3737TIP3    H132626   6.493   3.585  14.102  1.1699 -1.8125 -3.5778
 3737TIP3    H232627   6.439   3.443  14.111 -1.0435 -1.0072 -3.5790
 3738TIP3   OH232628   4.742   4.411   4.032  0.0785 -0.2305  0.0057
 3738TIP3    H132629   4.698   4.483   4.077  0.6243  0.6618 -0.8387
 3738TIP3    H232630   4.751   4.441   3.942 -0.0270 -1.5301 -0.4616
 3739TIP3   OH232631   6.386   3.683   0.038 -0.1185 -0.5559 -0.4521
 3739TIP3    H132632   6.448   3.739   0.084  1.7012  0.6060 -3.9386
 3739TIP3    H232633   6.429   3.598   0.033  0.1527 -0.3932 -0.8924
 3740TIP3   OH232634   4.530   0.227   0.242 -0.6646  0.3670 -0.1074
 3740TIP3    H132635   4.491   0.248   0.157  0.3916  0.6616 -0.5446
 3740TIP3    H232636   4.520   0.307   0.293 -0.0890  0.6620 -0.4395
 3741TIP3   OH232637   6.674   4.380   6.245 -0.2066 -0.6036  0.2351
 3741TIP3    H132638   6.763   4.368   6.275  0.7723 -2.3532 -2.8593
 3741TIP3    H232639   6.621   4.327   6.304  1.0724 -1.0629  1.0013
 3742TIP3   OH232640   4.719   2.324  14.993 -0.7385 -0.4711  0.2198
 3742TIP3    H132641   4.742   2.305  14.901 -0.1513  3.9249 -0.7542
 3742TIP3    H232642   4.804   2.327  15.038 -0.8857 -0.8554  0.5284
 3743TIP3   OH232643   6.722   5.267  15.280 -0.0881 -0.0868 -0.1945
 3743TIP3    H132644   6.707   5.305  15.193 -1.7837 -2.5637 -1.0963
 3743TIP3    H232645   6.789   5.200  15.267 -1.5716 -1.6702 -0.0265
 3744TIP3   OH232646   2.557   2.970  13.720 -0.8336  0.2776 -0.6426
 3744TIP3    H132647   2.519   2.884  13.701 -1.5928  0.8732 -1.9307
 3744TIP3    H232648   2.521   3.028  13.653 -0.3010  1.6051  0.1750
 3745TIP3   OH232649   1.929   5.061   0.600  0.0861 -0.0649 -0.0698
 3745TIP3    H132650   1.924   4.975   0.643 -0.0107  0.1686  0.3929
 3745TIP3    H232651   1.997   5.050   0.533 -0.5360 -0.7497 -0.5992
 3746TIP3   OH232652   6.343   0.576  11.471 -0.3913 -0.1859 -0.2816
 3746TIP3    H132653   6.285   0.514  11.515 -0.2056  1.3510  2.3570
 3746TIP3    H232654   6.432   0.547  11.495 -0.1633 -0.6708 -1.6433
 3747TIP3   OH232655   4.469   6.234   4.497 -0.1663 -0.2906  0.3419
 3747TIP3    H132656   4.515   6.152   4.484  1.0112  0.4415 -0.1897
 3747TIP3    H232657   4.452   6.268   4.409 -2.1559 -0.7541  0.4955
 3748TIP3   OH232658   4.567   2.542   2.228  0.3368 -0.2060 -0.1756
 3748TIP3    H132659   4.634   2.604   2.199  0.4933 -0.1048  0.4049
 3748TIP3    H232660   4.523   2.585   2.301  0.3253 -0.7000  0.1166
 3749TIP3   OH232661   4.518   3.890  13.978  0.0199  0.2291 -0.1818
 3749TIP3    H132662   4.604   3.917  13.946  0.4205 -0.1381  0.5504
 3749TIP3    H232663   4.510   3.798  13.951 -0.1195  0.2477 -0.2062
 3750TIP3   OH232664   1.562   4.251   1.661  0.1180 -0.0498 -0.2325
 3750TIP3    H132665   1.577   4.240   1.567 -0.4481  1.3584 -0.5155
 3750TIP3    H232666   1.542   4.163   1.693 -0.3819 -0.4402 -1.5646
 3751TIP3   OH232667   2.500   2.792  14.172 -0.2349 -0.2439  0.5636
 3751TIP3    H132668   2.575   2.823  14.223 -0.2763  1.4201 -0.3235
 3751TIP3    H232669   2.478   2.865  14.114 -3.2846 -0.1715  1.5876
 3752TIP3   OH232670   0.752   2.728  15.007 -0.3232 -0.7275  0.1970
 3752TIP3    H132671   0.843   2.706  14.986  0.1248  0.5280  0.7096
 3752TIP3    H232672   0.740   2.696  15.096 -0.3570 -0.8083  0.1635
 3753TIP3   OH232673   2.771   0.483  14.317 -0.2779 -0.1480 -0.1181
 3753TIP3    H132674   2.860   0.449  14.308 -0.3740 -0.5743  0.4730
 3753TIP3    H232675   2.735   0.479  14.228 -0.7375 -2.8953  0.0919
 3754TIP3   OH232676   1.339   4.340   1.923  0.5029  0.2966  0.1651
 3754TIP3    H132677   1.340   4.352   1.828  2.5772 -1.2029 -0.0637
 3754TIP3    H232678   1.338   4.430   1.958  0.2119  0.8798 -1.2586
 3755TIP3   OH232679   1.615   6.369   1.494 -0.4843  0.2440  0.7015
 3755TIP3    H132680   1.652   6.451   1.461 -2.4734  1.5590  1.5599
 3755TIP3    H232681   1.677   6.302   1.467  1.1192  2.0084 -0.1856
 3756TIP3   OH232682   4.058   6.021  16.270  0.5942  0.2254 -0.6300
 3756TIP3    H132683   4.134   6.056  16.223 -0.3866  1.6312 -1.2593
 3756TIP3    H232684   4.029   6.093  16.326  1.6078 -1.3563  2.0651
 3757TIP3   OH232685   2.683   6.744   2.236 -0.5266  0.0946 -0.0405
 3757TIP3    H132686   2.696   6.732   2.142 -0.4049 -0.9401  0.0923
 3757TIP3    H232687   2.638   6.664   2.264 -0.5769  0.4001  0.7805
 3758TIP3   OH232688   4.004   4.924  15.047 -0.4881 -0.2153  0.0155
 3758TIP3    H132689   3.909   4.915  15.055 -0.8026  0.1485 -2.6421
 3758TIP3    H232690   4.023   5.009  15.087 -1.3094 -0.1251  0.2426
 3759TIP3   OH232691   6.365   3.608   3.766  0.7197  0.1188 -0.5609
 3759TIP3    H132692   6.426   3.588   3.837 -0.1876 -0.0180  0.2042
 3759TIP3    H232693   6.387   3.698   3.739 -0.4569  1.1326  1.5679
 3760TIP3   OH232694   3.852   6.256   5.432  0.0202  0.2910 -0.0488
 3760TIP3    H132695   3.777   6.277   5.487 -0.4527 -1.1081 -0.1189
 3760TIP3    H232696   3.840   6.309   5.353 -0.2822  0.9209  0.4183
 3761TIP3   OH232697   5.779   4.080   0.797  0.3462 -0.3001 -0.5992
 3761TIP3    H132698   5.806   4.168   0.823  0.9052 -0.6543  0.0892
 3761TIP3    H232699   5.686   4.088   0.775 -0.1625  0.0817  1.4424
 3762TIP3   OH232700   1.104   4.412   4.517  0.6701  0.2485  0.2167
 3762TIP3    H132701   1.179   4.355   4.534 -0.5121 -2.1414 -1.8634
 3762TIP3    H232702   1.095   4.411   4.421 -0.5686  2.4524  0.2451
 3763TIP3   OH232703   3.439   6.785  12.214 -0.2073 -0.2129 -0.4680
 3763TIP3    H132704   3.417   6.694  12.237 -0.6352 -0.1462 -0.6163
 3763TIP3    H232705   3.379   6.838  12.266 -1.6221 -0.0640 -2.1693
 3764TIP3   OH232706   5.412   3.696   6.412 -0.7275 -0.2940 -0.4475
 3764TIP3    H132707   5.339   3.690   6.474 -0.4583  0.6321 -0.0182
 3764TIP3    H232708   5.476   3.633   6.445 -1.0760 -0.6699 -0.4759
 3765TIP3   OH232709   1.529   3.365   2.245 -0.1811 -0.0463 -0.1135
 3765TIP3    H132710   1.544   3.417   2.324 -0.9662  0.4771 -0.2951
 3765TIP3    H232711   1.437   3.339   2.252  0.0857 -1.0676 -0.2342
 3766TIP3   OH232712   0.597   6.078  15.525  0.1644  0.2433 -0.5741
 3766TIP3    H132713   0.555   5.992  15.527 -0.0256  0.3449  0.9480
 3766TIP3    H232714   0.687   6.060  15.497 -0.2383 -0.2563 -1.6161
 3767TIP3   OH232715   2.881   0.737   2.643  0.1939 -0.5234  0.1104
 3767TIP3    H132716   2.797   0.698   2.618 -0.2820 -0.5266  1.6004
 3767TIP3    H232717   2.869   0.831   2.630 -0.2020 -0.4841  0.7047
 3768TIP3   OH232718   0.566   0.419  11.410  0.5824 -0.5698 -0.1928
 3768TIP3    H132719   0.525   0.344  11.369 -1.2823  0.3532 -0.0984
 3768TIP3    H232720   0.660   0.398  11.410  0.2583 -2.2109 -1.5044
 3769TIP3   OH232721   4.397   5.848   4.156 -0.1732 -0.1499  0.2363
 3769TIP3    H132722   4.481   5.879   4.191  0.1224  0.2877 -0.8244
 3769TIP3    H232723   4.410   5.754   4.144  0.5465  0.0745 -0.8974
 3770TIP3   OH232724   0.350   3.658  13.092  0.3050  0.1269 -0.0092
 3770TIP3    H132725   0.423   3.695  13.141 -0.3731  0.2993  0.8957
 3770TIP3    H232726   0.389   3.630  13.009  1.5901 -0.6604  0.8176
 3771TIP3   OH232727   5.358   4.598  13.340  0.1823  0.7564  0.4423
 3771TIP3    H132728   5.362   4.521  13.284  1.4465  1.3434 -0.3027
 3771TIP3    H232729   5.265   4.607  13.361 -0.8024  1.9558 -3.5961
 3772TIP3   OH232730   1.393   5.772   2.457  0.2022  0.4577  0.2399
 3772TIP3    H132731   1.322   5.735   2.404  0.1369 -0.0102  0.6506
 3772TIP3    H232732   1.366   5.756   2.548  1.0456 -0.1214  0.3935
 3773TIP3   OH232733   1.873   3.625  13.336  0.1694  0.3043 -0.0670
 3773TIP3    H132734   1.938   3.652  13.271  0.6980  2.0955  1.1326
 3773TIP3    H232735   1.878   3.529  13.336  1.5778  0.3301 -1.2135
 3774TIP3   OH232736   3.667   2.840  15.327  0.0059 -0.3394 -0.3526
 3774TIP3    H132737   3.612   2.761  15.335 -0.2447 -0.1942 -0.6261
 3774TIP3    H232738   3.649   2.889  15.407 -1.6642  0.5847 -1.2521
 3775TIP3   OH232739   1.849   5.473  16.820  0.7903 -0.2240 -0.2661
 3775TIP3    H132740   1.904   5.551  16.824  0.1141  0.2088  1.4819
 3775TIP3    H232741   1.777   5.497  16.762  0.8817  0.2472 -0.1845
 3776TIP3   OH232742   5.104   5.026  14.229 -0.4794  0.2191  0.3394
 3776TIP3    H132743   5.131   4.935  14.237 -3.1347 -0.5791  1.3694
 3776TIP3    H232744   5.169   5.075  14.281 -0.4637 -1.4251  1.9737
 3777TIP3   OH232745   6.422   5.258  16.773 -0.6962 -0.1389  0.7371
 3777TIP3    H132746   6.492   5.296  16.826 -0.2230 -1.0326  0.7728
 3777TIP3    H232747   6.371   5.206  16.834  0.0901 -1.5066  0.2856
 3778TIP3   OH232748   4.243   3.689   5.566  0.4488 -0.4311 -0.6391
 3778TIP3    H132749   4.264   3.600   5.595  0.4207 -0.6158 -1.1771
 3778TIP3    H232750   4.328   3.728   5.545  0.4907 -0.2146 -0.0862
 3779TIP3   OH232751   2.581   2.508  11.988  0.8975  0.5125  0.6300
 3779TIP3    H132752   2.628   2.428  12.013 -0.1915 -0.2998  0.1696
 3779TIP3    H232753   2.549   2.544  12.070  0.7359  0.0472  0.7737
 3780TIP3   OH232754   3.226   0.452  12.759 -0.2662  0.0738 -0.0799
 3780TIP3    H132755   3.176   0.374  12.735  0.5365 -0.6283  0.4736
 3780TIP3    H232756   3.179   0.524  12.717 -3.1106 -0.2296  2.2660
 3781TIP3   OH232757   5.861   0.440  11.523  0.4018  0.1965 -0.3653
 3781TIP3    H132758   5.772   0.437  11.489 -1.4536  1.1149  3.7014
 3781TIP3    H232759   5.893   0.350  11.518 -1.7607 -0.6624  0.2203
 3782TIP3   OH232760   1.923   0.957   1.932  0.2737 -0.1591  0.8273
 3782TIP3    H132761   1.875   0.875   1.944  0.1568 -0.0523  1.1191
 3782TIP3    H232762   1.918   0.975   1.838  1.4616 -1.1824  0.5455
 3783TIP3   OH232763   0.005   6.187  14.333  0.3887 -0.2205 -0.6475
 3783TIP3    H132764   0.092   6.162  14.303  1.2666  0.2747  1.3404
 3783TIP3    H232765  -0.007   6.140  14.416 -0.4840  1.0718 -0.0035
 3784TIP3   OH232766   0.280   0.227   2.195 -0.6955 -0.0761  0.5912
 3784TIP3    H132767   0.308   0.171   2.123  0.1792  0.0494  0.8152
 3784TIP3    H232768   0.317   0.185   2.273  2.6702  2.3479  0.5259
 3785TIP3   OH232769   3.005   0.467  13.169  0.3472  0.4026 -0.4882
 3785TIP3    H132770   3.064   0.529  13.126  1.0977 -0.8350 -1.2721
 3785TIP3    H232771   2.929   0.461  13.110  0.1887  0.6973 -0.3194
 3786TIP3   OH232772   3.703   0.868   4.098  0.5143 -0.4640  0.7205
 3786TIP3    H132773   3.739   0.878   4.187  2.1207 -1.3478  0.2233
 3786TIP3    H232774   3.710   0.774   4.081 -0.5540 -0.4152 -0.0459
 3787TIP3   OH232775   2.031   0.210   5.701  0.4874  0.3722  0.0643
 3787TIP3    H132776   2.087   0.171   5.768 -0.9632 -0.4063  0.8649
 3787TIP3    H232777   1.962   0.254   5.750 -1.4863 -1.5209 -0.8935
 3788TIP3   OH232778   5.305   5.755   1.705 -0.4132  0.0919 -0.1709
 3788TIP3    H132779   5.348   5.776   1.622  1.9353 -0.9265  0.6971
 3788TIP3    H232780   5.225   5.708   1.680 -0.3816  0.8599 -1.8424
 3789TIP3   OH232781   2.585   1.355   3.586  0.2633 -0.2321  0.1848
 3789TIP3    H132782   2.567   1.311   3.669  1.2824 -2.4496 -0.6992
 3789TIP3    H232783   2.573   1.448   3.606  1.0979 -0.6242  2.9930
 3790TIP3   OH232784   4.944   6.429  16.453  0.5035 -0.3586  0.2546
 3790TIP3    H132785   4.933   6.388  16.368 -0.0988 -1.0277  0.6466
 3790TIP3    H232786   4.899   6.513  16.445 -0.5374 -0.9000  0.2450
 3791TIP3   OH232787   1.183   1.446  13.991  0.2214 -0.3415 -0.4271
 3791TIP3    H132788   1.115   1.400  13.942 -0.4941  0.1544  0.0733
 3791TIP3    H232789   1.203   1.387  14.064 -0.8055  0.1815  0.3011
 3792TIP3   OH232790   5.276   4.758   3.910 -0.1216 -0.4988  0.3517
 3792TIP3    H132791   5.199   4.702   3.898 -0.5371  0.3430 -1.1455
 3792TIP3    H232792   5.243   4.847   3.905  0.8929 -0.1196  0.0342
 3793TIP3   OH232793   3.248   1.367  14.776 -0.9023  0.2716  0.7715
 3793TIP3    H132794   3.339   1.342  14.760 -0.3706  2.2602  0.3862
 3793TIP3    H232795   3.197   1.309  14.720  0.3054  0.6508 -0.7890
 3794TIP3   OH232796   1.887   5.738   0.524 -0.6078  0.3223 -0.1351
 3794TIP3    H132797   1.842   5.661   0.488 -2.2083  1.0234  0.3023
 3794TIP3    H232798   1.838   5.813   0.491  1.5770  1.2547 -1.4356
 3795TIP3   OH232799   2.698   6.281   3.110  0.0513 -0.2014 -0.0906
 3795TIP3    H132800   2.640   6.357   3.103 -0.3309 -0.3296  1.3951
 3795TIP3    H232801   2.668   6.222   3.040 -0.2967  0.5889 -0.6187
 3796TIP3   OH232802   0.079   3.331  16.459 -0.0697 -0.3820 -0.6289
 3796TIP3    H132803   0.033   3.255  16.496  0.9159 -0.4734  0.5080
 3796TIP3    H232804   0.157   3.340  16.514 -0.6487  2.0848 -0.0771
 3797TIP3   OH232805   0.362   2.537  11.495  0.1238 -0.3669 -0.0388
 3797TIP3    H132806   0.400   2.588  11.566  0.5390  0.2903 -0.7211
 3797TIP3    H232807   0.280   2.502  11.532 -0.7475  1.7002  0.1167
 3798TIP3   OH232808   1.867   5.324  13.664 -0.0105 -0.4924 -0.2194
 3798TIP3    H132809   1.854   5.396  13.726  1.3623  0.0268 -0.5085
 3798TIP3    H232810   1.957   5.296  13.677  0.2944 -0.4252 -1.9005
 3799TIP3   OH232811   5.243   4.332  12.891 -0.0340  0.0084  0.1152
 3799TIP3    H132812   5.328   4.293  12.912  0.6351  0.4847 -1.5861
 3799TIP3    H232813   5.257   4.426  12.899 -0.0409  0.1499 -1.3706
 3800TIP3   OH232814   2.728   5.609  15.573  0.6163  0.0674 -0.3867
 3800TIP3    H132815   2.689   5.577  15.654 -0.3333 -1.5440 -1.4227
 3800TIP3    H232816   2.804   5.554  15.559 -0.5416 -1.2890 -1.7396
 3801TIP3   OH232817   0.528   2.324   3.832 -0.1291 -0.8389 -0.5882
 3801TIP3    H132818   0.604   2.284   3.875 -0.2790  0.9298  1.5242
 3801TIP3    H232819   0.559   2.409   3.801 -0.6832 -1.0644 -1.8163
 3802TIP3   OH232820   2.950   2.945  11.359 -0.2157 -0.5004  0.1036
 3802TIP3    H132821   3.035   2.950  11.404 -0.5260 -4.2745  1.4125
 3802TIP3    H232822   2.973   2.929  11.268  0.6506 -3.4026  0.7292
 3803TIP3   OH232823   3.839   5.193  10.293  0.0042  0.3672 -0.0386
 3803TIP3    H132824   3.829   5.102  10.321  1.7337  0.1676  0.0296
 3803TIP3    H232825   3.757   5.213  10.247 -1.3215 -0.5220  1.7905
 3804TIP3   OH232826   3.516   3.963   2.202  0.0950 -0.5996  0.1358
 3804TIP3    H132827   3.495   4.046   2.157 -0.1375 -0.1488  1.0631
 3804TIP3    H232828   3.501   3.896   2.135  3.1698  0.2743 -1.6306
 3805TIP3   OH232829   1.857   0.550   4.821  0.0436 -0.1124 -0.0862
 3805TIP3    H132830   1.788   0.501   4.776  0.7488 -2.2511  1.0469
 3805TIP3    H232831   1.857   0.516   4.910  0.7061  1.8723  0.7217
 3806TIP3   OH232832   1.409   6.337   3.347 -0.1350  0.1169 -0.6869
 3806TIP3    H132833   1.450   6.251   3.349 -0.6428 -0.1877 -2.2858
 3806TIP3    H232834   1.438   6.377   3.265 -0.9803  0.9204 -0.6223
 3807TIP3   OH232835   6.047   0.693  13.756 -0.0093  0.4759 -0.1711
 3807TIP3    H132836   6.123   0.638  13.777 -1.4818 -0.8788  1.9388
 3807TIP3    H232837   6.085   0.772  13.718  2.5652  0.2379  1.6386
 3808TIP3   OH232838   5.228   0.432   5.082 -0.1555  0.1574 -0.0374
 3808TIP3    H132839   5.266   0.395   5.002 -0.8246 -1.4595  0.3553
 3808TIP3    H232840   5.140   0.396   5.085 -0.7200  1.5253  0.5947
 3809TIP3   OH232841   5.086   1.323  11.203  0.4312 -0.0347  0.5719
 3809TIP3    H132842   5.147   1.326  11.277  2.0568 -0.8276 -0.6792
 3809TIP3    H232843   5.060   1.414  11.190  1.8051  0.4166  0.7913
 3810TIP3   OH232844   0.284   6.304   1.584  0.1953 -0.0121  0.2809
 3810TIP3    H132845   0.297   6.310   1.679  0.5122  0.1163  0.2295
 3810TIP3    H232846   0.212   6.365   1.566  1.3661  1.4067  0.1881
 3811TIP3   OH232847   4.384   6.195  10.330 -0.6333  0.3475 -0.1989
 3811TIP3    H132848   4.429   6.111  10.326 -0.0876  0.6640 -4.0582
 3811TIP3    H232849   4.304   6.182  10.279 -2.6173  1.1855  2.4396
 3812TIP3   OH232850   3.663   1.617  17.054 -0.2601 -0.1559  0.9472
 3812TIP3    H132851   3.617   1.536  17.031 -0.0678  0.0152 -0.1031
 3812TIP3    H232852   3.741   1.588  17.099 -0.4702 -0.5332  1.0743
 3813TIP3   OH232853   1.572   2.011   3.075 -0.2239 -0.6786 -0.0580
 3813TIP3    H132854   1.547   1.959   3.151 -0.7433  0.7658  0.7794
 3813TIP3    H232855   1.506   2.079   3.068 -0.4207 -0.9927 -2.0669
 3814TIP3   OH232856   5.187   5.142   0.434  0.6854  0.9340 -0.5629
 3814TIP3    H132857   5.199   5.183   0.520 -1.1000  0.3318  0.0336
 3814TIP3    H232858   5.092   5.147   0.419  0.5239 -1.8887 -0.9776
 3815TIP3   OH232859   5.178   6.490  15.566 -0.8481 -0.5546  0.3242
 3815TIP3    H132860   5.120   6.561  15.538  1.0302  0.9584  0.0963
 3815TIP3    H232861   5.175   6.494  15.662 -0.0370  0.4848  0.3251
 3816TIP3   OH232862   2.006   5.975   3.569  0.1037  0.6235 -0.5574
 3816TIP3    H132863   2.062   5.948   3.642 -0.4887  3.0673  0.8783
 3816TIP3    H232864   2.010   5.900   3.508  3.1557 -0.1978  0.4518
 3817TIP3   OH232865   0.552   5.937  14.646 -0.7406  0.6126 -0.6081
 3817TIP3    H132866   0.510   5.878  14.584 -0.6108 -0.9734  0.7397
 3817TIP3    H232867   0.479   5.979  14.692 -1.2060 -3.1381  2.6885
 3818TIP3   OH232868   0.614   5.327  12.841  1.0012 -0.0206 -0.2118
 3818TIP3    H132869   0.534   5.278  12.821  0.2253  1.1233 -0.0005
 3818TIP3    H232870   0.678   5.260  12.864  0.7644 -1.1358 -2.4811
 3819TIP3   OH232871   6.345   3.598   4.353  0.3368  0.4747 -0.2519
 3819TIP3    H132872   6.300   3.535   4.297 -1.1041 -0.1899  1.5418
 3819TIP3    H232873   6.414   3.547   4.395 -0.5629  0.1224  0.8772
 3820TIP3   OH232874   5.176   4.249   0.570 -0.1744 -0.1790 -0.2665
 3820TIP3    H132875   5.207   4.291   0.650 -2.4567  2.4516 -0.6153
 3820TIP3    H232876   5.246   4.187   0.547  1.8998  1.0696  2.1272
 3821TIP3   OH232877   0.346   6.102   3.949 -0.2847 -0.0325 -0.1593
 3821TIP3    H132878   0.279   6.124   4.015 -0.8416 -2.4161  0.1585
 3821TIP3    H232879   0.360   6.183   3.901 -1.2737  1.2858  1.6653
 3822TIP3   OH232880   2.751   0.369   3.339  0.3239  0.3075  0.2454
 3822TIP3    H132881   2.693   0.390   3.413 -0.4640  1.8169 -0.7449
 3822TIP3    H232882   2.777   0.454   3.304  0.2757 -0.3605 -1.5170
 3823TIP3   OH232883   5.318   5.351  15.272  0.3399  0.8124 -0.2984
 3823TIP3    H132884   5.310   5.364  15.177 -2.6073 -0.8254 -0.3952
 3823TIP3    H232885   5.310   5.256  15.283  1.2144  0.9174  1.5693
 3824TIP3   OH232886   4.249   5.832  14.040 -0.0490 -0.1649  0.5900
 3824TIP3    H132887   4.211   5.811  14.125 -1.7947  3.6978  0.9818
 3824TIP3    H232888   4.176   5.830  13.979  0.9801 -1.7692 -0.6819
 3825TIP3   OH232889   3.342   1.270  16.396  0.0219 -0.3749  0.0787
 3825TIP3    H132890   3.352   1.241  16.306 -0.2402 -1.5198  0.4026
 3825TIP3    H232891   3.249   1.294  16.403  0.0425 -0.2847  0.0462
 3826TIP3   OH232892   5.651   2.250   3.512 -0.1451 -0.2101  0.5685
 3826TIP3    H132893   5.723   2.263   3.451 -0.8000  0.9126 -0.0083
 3826TIP3    H232894   5.630   2.157   3.506  0.6435 -0.3658  0.0666
 3827TIP3   OH232895   5.050   1.281  12.147  0.7307 -0.4424 -0.0938
 3827TIP3    H132896   4.966   1.279  12.100  0.9830  1.2082 -0.6898
 3827TIP3    H232897   5.095   1.201  12.119 -0.1262 -0.7008 -0.7710
 3828TIP3   OH232898   4.648   0.135   3.601 -0.2596 -0.1803 -0.0656
 3828TIP3    H132899   4.739   0.164   3.600 -0.0005 -0.9100 -1.6306
 3828TIP3    H232900   4.623   0.135   3.693  0.1983  3.3768  0.1909
 3829TIP3   OH232901   5.389   5.399  16.031 -0.1085 -0.7439  0.8114
 3829TIP3    H132902   5.398   5.323  16.088  0.9978  0.5450  2.4502
 3829TIP3    H232903   5.478   5.417  16.001 -0.7133 -1.7595 -1.9523
 3830TIP3   OH232904   5.105   1.064  15.189  0.7025  0.4255 -0.0945
 3830TIP3    H132905   5.157   1.128  15.139  0.3721  1.5799  0.9733
 3830TIP3    H232906   5.017   1.072  15.153  0.8027  0.0453 -0.4340
 3831TIP3   OH232907   6.550   4.973  15.843  0.5449 -0.0231 -0.5289
 3831TIP3    H132908   6.522   4.894  15.890  1.6394 -1.6401 -2.4306
 3831TIP3    H232909   6.588   5.029  15.911  0.6953 -1.5856  0.7351
 3832TIP3   OH232910   2.404   0.753   0.990  0.2591  0.7260 -0.3994
 3832TIP3    H132911   2.415   0.786   0.901  0.2480 -1.4222 -1.2428
 3832TIP3    H232912   2.406   0.658   0.981 -1.3305  0.4329  1.6987
 3833TIP3   OH232913   2.789   4.451  12.825 -0.1983  0.6423 -0.4289
 3833TIP3    H132914   2.874   4.418  12.798  0.6374  2.9628 -0.8442
 3833TIP3    H232915   2.737   4.372  12.844  1.6629 -0.8382 -1.2247
 3834TIP3   OH232916   1.320   3.546  13.675 -0.1794 -0.2469 -0.3524
 3834TIP3    H132917   1.316   3.507  13.588 -0.3742 -2.7666  0.6736
 3834TIP3    H232918   1.371   3.483  13.726 -1.5777  0.2252  1.7621
 3835TIP3   OH232919   2.292   5.406   5.327 -0.0633 -0.2210 -0.0278
 3835TIP3    H132920   2.324   5.480   5.379  2.9334 -0.5434 -1.1644
 3835TIP3    H232921   2.217   5.440   5.279  0.1640  1.5457  0.8025
 3836TIP3   OH232922   1.409   0.007   1.609 -0.0707  0.2841 -0.3873
 3836TIP3    H132923   1.422   0.074   1.542  0.1190  1.2200  0.5689
 3836TIP3    H232924   1.320   0.023   1.642  0.0011  0.1098 -0.1027
 3837TIP3   OH232925   3.309   6.511  14.106  0.0911  1.0434 -0.0934
 3837TIP3    H132926   3.308   6.419  14.132  0.8689  0.6992 -1.2118
 3837TIP3    H232927   3.250   6.554  14.168 -0.8854 -0.3322 -0.0215
 3838TIP3   OH232928   5.954   0.843  15.993 -0.2756 -0.4225 -0.4821
 3838TIP3    H132929   6.022   0.776  15.988  0.3049  0.1780 -0.8529
 3838TIP3    H232930   5.982   0.901  16.064 -0.6651 -0.4479 -0.3027
 3839TIP3   OH232931   3.039   4.145  13.413 -0.2259 -0.4117 -0.2980
 3839TIP3    H132932   3.019   4.169  13.503 -1.5926 -2.2882 -0.0521
 3839TIP3    H232933   2.957   4.157  13.366  0.7734  1.7640 -1.6321
 3840TIP3   OH232934   0.331   6.637   0.646  0.3251  0.1055  0.0566
 3840TIP3    H132935   0.302   6.601   0.730  0.0237  1.0441  0.3725
 3840TIP3    H232936   0.288   6.723   0.641 -0.7423 -0.4737 -1.6563
 3841TIP3   OH232937   3.642   3.716   2.934  0.2135  0.1801  0.2938
 3841TIP3    H132938   3.724   3.757   2.906  0.5164  0.9877  2.1700
 3841TIP3    H232939   3.625   3.754   3.020 -1.1585 -1.3587  0.7568
 3842TIP3   OH232940   2.409   3.957   1.781  0.0582 -0.6791 -0.2502
 3842TIP3    H132941   2.458   3.959   1.699  0.1314  2.5827 -0.2355
 3842TIP3    H232942   2.423   3.868   1.815  2.9104 -1.0167 -2.0157
 3843TIP3   OH232943   2.662   4.849   5.736  0.2090  0.2732 -0.0188
 3843TIP3    H132944   2.725   4.881   5.800  0.0238  0.0815  0.2649
 3843TIP3    H232945   2.581   4.897   5.755  0.4829  1.1012 -0.8967
 3844TIP3   OH232946   5.466   3.438  11.951 -0.2128 -0.4235  0.4141
 3844TIP3    H132947   5.552   3.421  11.991 -0.2140 -2.0215 -0.1807
 3844TIP3    H232948   5.404   3.419  12.022 -0.1922 -2.8052 -0.0957
 3845TIP3   OH232949   4.520   3.745   5.449 -0.2726 -0.2825 -0.0819
 3845TIP3    H132950   4.554   3.760   5.537 -2.3215  1.2674  0.5392
 3845TIP3    H232951   4.595   3.759   5.391  0.0765  4.1690  1.0978
 3846TIP3   OH232952   2.374   0.303  15.274  0.0309 -0.6474  0.3187
 3846TIP3    H132953   2.444   0.240  15.289  0.9908  0.2308 -0.3273
 3846TIP3    H232954   2.315   0.259  15.212 -0.4806 -1.7269  1.5241
 3847TIP3   OH232955   6.349   1.408  10.793  0.0016  0.0503 -0.3679
 3847TIP3    H132956   6.435   1.367  10.782  0.3318  0.6155  0.0415
 3847TIP3    H232957   6.354   1.489  10.741  0.4478  1.1072  1.2325
 3848TIP3   OH232958   2.313   0.213   4.838  0.0785 -0.5165  0.3288
 3848TIP3    H132959   2.338   0.229   4.929  0.3231  0.8653  0.0286
 3848TIP3    H232960   2.275   0.125   4.840  0.0915 -0.5218  1.7653
 3849TIP3   OH232961   2.755   4.274   6.103 -0.6151  0.2731 -0.6167
 3849TIP3    H132962   2.704   4.254   6.181  0.3195 -1.0533 -0.3202
 3849TIP3    H232963   2.709   4.349   6.064 -0.7075  1.4789  1.5793
 3850TIP3   OH232964   5.515   2.320   2.715 -0.2339  0.1407 -0.1027
 3850TIP3    H132965   5.478   2.395   2.762 -0.1431  0.7408 -0.9604
 3850TIP3    H232966   5.469   2.319   2.631 -0.2420 -0.7821 -0.0918
 3851TIP3   OH232967   0.092   3.830  12.828 -0.6883  0.1308 -0.2136
 3851TIP3    H132968   0.069   3.875  12.910  0.1557  0.2434 -0.0241
 3851TIP3    H232969   0.132   3.748  12.857 -0.5505  0.0911 -0.5140
 3852TIP3   OH232970   2.259   3.809   2.386 -0.1349 -0.3797 -0.0872
 3852TIP3    H132971   2.198   3.874   2.421  0.0207 -0.9892  1.3968
 3852TIP3    H232972   2.270   3.746   2.457 -0.1622 -1.9670 -1.4229
 3853TIP3   OH232973   2.420   1.522  12.565  0.3151  0.0312  0.2002
 3853TIP3    H132974   2.324   1.521  12.571  0.3557  0.1846  1.1099
 3853TIP3    H232975   2.438   1.560  12.480 -0.4385 -0.9911 -0.4444
 3854TIP3   OH232976   0.566   6.345  11.845  0.2616 -0.1035  0.1097
 3854TIP3    H132977   0.524   6.419  11.803 -0.1264 -0.7209 -0.6088
 3854TIP3    H232978   0.660   6.361  11.834  0.1790  0.3548  0.0876
 3855TIP3   OH232979   6.770   5.357  14.230 -0.9235 -0.3241  0.0950
 3855TIP3    H132980   6.770   5.395  14.142 -0.3919  0.4766  0.4258
 3855TIP3    H232981   6.775   5.262  14.216 -0.8423 -0.2029 -0.7343
 3856TIP3   OH232982   6.359   6.445   4.438  0.5459  0.1415  0.2968
 3856TIP3    H132983   6.435   6.387   4.432  0.5174  0.1636 -0.3791
 3856TIP3    H232984   6.285   6.390   4.411  0.5602  0.5548 -0.6345
 3857TIP3   OH232985   6.161   1.097  10.436  0.4296  0.6000  0.2315
 3857TIP3    H132986   6.118   1.095  10.521 -1.5454 -0.3621 -0.7331
 3857TIP3    H232987   6.227   1.167  10.444 -1.1162  1.9582  1.8730
 3858TIP3   OH232988   3.518   0.277  11.734 -1.0409 -0.2769  0.1898
 3858TIP3    H132989   3.556   0.359  11.767  0.1209 -0.5767 -0.3601
 3858TIP3    H232990   3.562   0.262  11.650 -0.7432 -1.7996  0.5897
 3859TIP3   OH232991   1.426   4.803   4.045  0.2956 -0.1879  0.6719
 3859TIP3    H132992   1.432   4.872   4.110 -1.6904 -1.1114  1.9369
 3859TIP3    H232993   1.383   4.844   3.970  2.8258  0.9466 -0.2629
 3860TIP3   OH232994   2.081   1.588   9.901  0.3881 -0.3079 -0.4812
 3860TIP3    H132995   2.061   1.580   9.994 -2.0209 -0.4743 -0.9482
 3860TIP3    H232996   2.096   1.681   9.888 -1.2404  0.0159 -0.2400
 3861TIP3   OH232997   5.451   2.766   2.990  0.3891 -0.1111  0.1400
 3861TIP3    H132998   5.393   2.778   2.914  2.0502 -0.6693 -1.2883
 3861TIP3    H232999   5.534   2.736   2.952  1.9140  1.4891  1.9958
 3862TIP3   OH233000   3.699   2.663  13.277 -0.3617  0.0646 -0.0083
 3862TIP3    H133001   3.679   2.708  13.194  0.3423 -1.2141 -0.9132
 3862TIP3    H233002   3.613   2.646  13.315 -0.6821  1.0856 -0.2354
 3863TIP3   OH233003   2.382   4.152   4.022  0.3358  0.0042 -0.4330
 3863TIP3    H133004   2.322   4.090   3.981 -0.6463 -0.0371  1.0153
 3863TIP3    H233005   2.424   4.197   3.948  0.7523 -2.0398 -1.5164
 3864TIP3   OH233006   3.709   2.460  13.694  0.3429 -0.3009 -0.3350
 3864TIP3    H133007   3.727   2.366  13.683 -1.2405 -0.5720 -0.8864
 3864TIP3    H233008   3.792   2.503  13.672  0.9631 -1.5372 -0.5348
 3865TIP3   OH233009   1.209   0.192   5.350 -0.0324 -0.0832 -0.0075
 3865TIP3    H133010   1.183   0.200   5.442 -0.1887 -1.2292  0.0605
 3865TIP3    H233011   1.271   0.264   5.336 -1.0892  0.9810  0.5916
 3866TIP3   OH233012   3.108   0.734  16.113 -0.2455 -1.1564 -0.3628
 3866TIP3    H133013   3.113   0.667  16.180 -1.1424 -1.5492 -0.6784
 3866TIP3    H233014   3.015   0.739  16.090 -0.0028 -0.7807 -1.3136
 3867TIP3   OH233015   4.007   1.012  16.324 -0.2076  0.0339 -0.1612
 3867TIP3    H133016   3.985   1.048  16.409  1.2283  0.6573 -0.0252
 3867TIP3    H233017   3.931   1.031  16.269  0.1408  2.5521  0.1312
 3868TIP3   OH233018   1.215   6.036  11.517 -0.5513  0.2655 -0.4691
 3868TIP3    H133019   1.163   6.114  11.496 -1.8141 -0.8891 -1.8427
 3868TIP3    H233020   1.179   6.006  11.601 -2.8285 -0.9997 -1.7877
 3869TIP3   OH233021   3.530   1.845   2.621 -0.3238 -0.6291  0.4694
 3869TIP3    H133022   3.504   1.757   2.593  2.8078 -1.1793 -1.0966
 3869TIP3    H233023   3.537   1.838   2.717 -0.4712 -1.9804  0.4012
 3870TIP3   OH233024   4.875   3.571  14.928  0.3848 -0.4285 -0.6184
 3870TIP3    H133025   4.869   3.500  14.864 -1.0517  1.2117 -2.4507
 3870TIP3    H233026   4.803   3.630  14.905 -0.2727  0.2291  2.6241
 3871TIP3   OH233027   3.415   6.618  13.237  0.1981  0.2461  0.4008
 3871TIP3    H133028   3.337   6.673  13.243 -0.7088 -1.0270  0.5829
 3871TIP3    H233029   3.395   6.555  13.168  0.6726 -0.6855  1.0864
 3872TIP3   OH233030   6.470   0.428   5.099  0.1766 -0.0412  0.0216
 3872TIP3    H133031   6.377   0.413   5.114 -0.5674 -0.1107 -3.7216
 3872TIP3    H233032   6.510   0.341   5.109 -0.5651 -0.4693 -0.6010
 3873TIP3   OH233033   0.281   5.302  12.196  0.5853 -0.0353 -0.5361
 3873TIP3    H133034   0.192   5.330  12.174  0.8534  0.2832 -1.2504
 3873TIP3    H233035   0.277   5.282  12.289 -0.5792 -1.3243 -0.8166
 3874TIP3   OH233036   3.445   2.777   3.056 -0.6016  0.1622 -0.3509
 3874TIP3    H133037   3.367   2.772   3.110 -1.4734 -1.5907 -1.6761
 3874TIP3    H233038   3.516   2.796   3.117 -1.9947  1.4628  0.9171
 3875TIP3   OH233039   3.037   6.152   5.967  0.2163  0.1032  0.2421
 3875TIP3    H133040   3.115   6.101   5.988 -0.4771 -1.1362 -0.0993
 3875TIP3    H233041   2.988   6.156   6.049  0.3501  0.3651  0.3096
 3876TIP3   OH233042   0.931   1.487   4.126 -0.2567 -0.2991  0.2128
 3876TIP3    H133043   1.015   1.533   4.129 -0.8991  0.8990  0.5771
 3876TIP3    H233044   0.916   1.470   4.033 -0.4155  1.0384 -0.0227
 3877TIP3   OH233045   1.496   6.014  12.521  0.4843  0.1611 -0.2635
 3877TIP3    H133046   1.431   6.002  12.590  0.5792  1.1889  0.0144
 3877TIP3    H233047   1.580   6.012  12.567  0.5283  1.2919 -0.2672
 3878TIP3   OH233048   0.285   3.027  14.768 -0.0939  0.0269 -0.3042
 3878TIP3    H133049   0.205   2.977  14.779  0.0684 -0.3384 -0.7571
 3878TIP3    H233050   0.347   2.988  14.830 -0.0394 -0.1846 -0.4900
 3879TIP3   OH233051   3.832   1.538  14.462  0.1334 -0.0479  0.0010
 3879TIP3    H133052   3.859   1.629  14.465  0.4284 -0.1025 -0.7318
 3879TIP3    H233053   3.755   1.533  14.520  0.3792  0.5636  0.3832
 3880TIP3   OH233054   5.200   5.437  12.251 -0.2563  0.4868  0.2810
 3880TIP3    H133055   5.131   5.378  12.222 -1.9128  1.7283  1.5133
 3880TIP3    H233056   5.184   5.519  12.204  1.1430  0.4373 -0.3386
 3881TIP3   OH233057   5.448   3.578  15.601 -0.0804  0.4961 -0.0668
 3881TIP3    H133058   5.531   3.587  15.556  0.2786 -0.0848  0.4650
 3881TIP3    H233059   5.468   3.596  15.693 -0.5293  0.3110  0.0742
 3882TIP3   OH233060   4.761   2.683  13.261 -0.2444 -0.2176 -0.1998
 3882TIP3    H133061   4.767   2.778  13.270 -0.0455 -0.2585  0.0913
 3882TIP3    H233062   4.674   2.661  13.292 -0.1551 -0.1741  0.0790
 3883TIP3   OH233063   6.557   6.033  12.235  0.1139 -0.2413  0.3662
 3883TIP3    H133064   6.477   6.019  12.287  1.1804 -0.3180  2.0768
 3883TIP3    H233065   6.604   6.101  12.283  1.8624 -1.3906  0.3638
 3884TIP3   OH233066   3.756   5.487  14.799  0.3548 -0.3752  0.6433
 3884TIP3    H133067   3.730   5.574  14.770 -2.0525 -1.8962 -2.3760
 3884TIP3    H233068   3.690   5.464  14.865  0.3276 -0.3082  0.6400
 3885TIP3   OH233069   0.483   6.288   5.565  0.3583  0.9904  0.9769
 3885TIP3    H133070   0.389   6.294   5.547  0.7487  3.7948 -0.5997
 3885TIP3    H233071   0.524   6.282   5.478  1.7072  1.1577  1.5741
 3886TIP3   OH233072   0.606   3.409   3.537  0.8128 -0.5047  0.8450
 3886TIP3    H133073   0.665   3.469   3.490 -0.2697 -0.7455 -0.9262
 3886TIP3    H233074   0.629   3.322   3.504  1.7250 -1.0170  2.6989
 3887TIP3   OH233075   4.393   5.824  11.552 -0.0217 -0.0284  0.4112
 3887TIP3    H133076   4.456   5.792  11.616  0.3990 -1.0381 -0.4810
 3887TIP3    H233077   4.446   5.864  11.483 -0.3097 -0.9763 -0.3932
 3888TIP3   OH233078   3.099   3.594   1.611  0.2353  0.3478  0.5597
 3888TIP3    H133079   3.102   3.688   1.627  1.2125  0.1998  1.3529
 3888TIP3    H233080   3.040   3.584   1.536 -0.3947  1.5260  0.8808
 3889TIP3   OH233081   0.346   5.195   1.991  0.8340 -0.3937 -0.6229
 3889TIP3    H133082   0.290   5.205   1.914  1.5595 -2.5280 -1.4999
 3889TIP3    H233083   0.428   5.237   1.967  0.8804 -0.5970 -0.8249
 3890TIP3   OH233084   3.506   5.719   3.954  0.0393  0.1403 -0.1760
 3890TIP3    H133085   3.583   5.764   3.989  1.8861 -2.9090  0.0135
 3890TIP3    H233086   3.466   5.783   3.894  1.7558  2.3868  0.9365
 3891TIP3   OH233087   0.237   4.672   4.233 -0.1454 -0.1419 -0.7776
 3891TIP3    H133088   0.312   4.728   4.254  0.8975 -1.6613 -0.2673
 3891TIP3    H233089   0.216   4.628   4.316 -0.4888 -1.0087 -1.3141
 3892TIP3   OH233090   3.723   4.391  12.622  0.5804  0.2566 -0.2115
 3892TIP3    H133091   3.753   4.392  12.531 -0.7373  1.2813 -0.6804
 3892TIP3    H233092   3.720   4.484  12.646 -0.8409  0.1172  0.2396
 3893TIP3   OH233093   4.301   2.022  17.016 -0.3498  0.2943 -0.0701
 3893TIP3    H133094   4.216   1.993  17.047 -0.6689  0.6040 -0.6193
 3893TIP3    H233095   4.365   1.972  17.066 -0.8718 -1.2159 -0.8573
 3894TIP3   OH233096   5.256   6.743   5.266  0.1406 -0.0778  0.0293
 3894TIP3    H133097   5.330   6.778   5.316 -0.4475 -0.6549  1.3573
 3894TIP3    H233098   5.253   6.650   5.290 -0.2951 -0.3294 -0.9454
 3895TIP3   OH233099   6.767   3.672  14.393  0.2524  0.4762  0.0890
 3895TIP3    H133100   6.743   3.580  14.381  0.1788  0.2986  1.4061
 3895TIP3    H233101   6.821   3.672  14.472  1.5880  1.3629 -0.7979
 3896TIP3   OH233102   3.765   3.272   6.245 -0.0210 -0.1528  0.5680
 3896TIP3    H133103   3.792   3.183   6.266  4.8376  0.5702 -1.3436
 3896TIP3    H233104   3.792   3.324   6.320  1.2121  0.1990 -0.0946
 3897TIP3   OH233105   1.769   2.134  16.994 -0.5321  0.0693  0.1448
 3897TIP3    H133106   1.739   2.119  17.084  0.3691 -0.4846  0.3655
 3897TIP3    H233107   1.864   2.141  17.002 -0.2771 -1.7046 -0.9986
 3898TIP3   OH233108   6.572   1.008   2.316 -0.0785 -0.7217 -0.4811
 3898TIP3    H133109   6.514   0.960   2.257 -0.9091 -0.7267  0.3219
 3898TIP3    H233110   6.518   1.027   2.393  1.1907 -1.3617  0.6104
 3899TIP3   OH233111   5.472   3.082  14.175 -0.7246 -0.0304  0.2971
 3899TIP3    H133112   5.407   3.138  14.218 -1.8420 -0.2450 -1.0083
 3899TIP3    H233113   5.419   3.018  14.127  0.4959 -0.9291  0.1261
 3900TIP3   OH233114   5.807   1.050   5.717  0.0821 -0.3045 -0.2319
 3900TIP3    H133115   5.767   1.123   5.763 -0.5820 -0.1160 -1.0881
 3900TIP3    H233116   5.803   1.074   5.625  2.2249 -0.2582 -0.3641
 3901TIP3   OH233117   2.592   4.312   1.140 -0.2095  0.0782 -0.1143
 3901TIP3    H133118   2.654   4.294   1.210 -0.8807  0.6474  0.6499
 3901TIP3    H233119   2.629   4.387   1.094  1.5516 -1.8289 -2.0354
 3902TIP3   OH233120   1.000   2.310   4.938 -0.2847 -0.5619  0.4169
 3902TIP3    H133121   1.035   2.369   5.004 -0.4561 -1.5858  1.4546
 3902TIP3    H233122   0.925   2.356   4.901 -0.0623  0.1027  0.7785
 3903TIP3   OH233123   1.958   1.716  13.097  0.4114  0.0044  0.4180
 3903TIP3    H133124   1.891   1.784  13.094  0.1955 -0.2055  0.3965
 3903TIP3    H233125   1.919   1.642  13.050  1.3263  0.4493 -1.0774
 3904TIP3   OH233126   0.261   0.672   5.989  0.5718 -0.5797 -0.2793
 3904TIP3    H133127   0.300   0.752   6.025 -1.2832  0.0284  0.5263
 3904TIP3    H233128   0.260   0.687   5.894  1.4457 -0.2453 -0.2496
 3905TIP3   OH233129   5.707   2.871   0.280 -0.3388  0.7011  0.1363
 3905TIP3    H133130   5.611   2.878   0.273 -0.4626  0.8276  1.6795
 3905TIP3    H233131   5.734   2.953   0.321  0.8654  2.2079 -3.2842
 3906TIP3   OH233132   3.552   0.443   2.527  0.0104 -0.0358 -0.7234
 3906TIP3    H133133   3.585   0.520   2.481  0.5927 -0.2070 -0.6022
 3906TIP3    H233134   3.619   0.376   2.513 -0.0934 -0.2709 -0.1301
 3907TIP3   OH233135   1.075   0.932   4.742  0.6684 -0.2963  0.1075
 3907TIP3    H133136   1.030   0.912   4.660 -0.1097 -2.2754  0.9456
 3907TIP3    H233137   1.037   1.015   4.771  1.0488  0.5003 -1.5671
 3908TIP3   OH233138   5.646   1.251   5.815  0.1802  0.1896 -0.5727
 3908TIP3    H133139   5.646   1.196   5.893  1.2305  0.5456 -0.3045
 3908TIP3    H233140   5.558   1.287   5.811  0.4001  0.9925  1.0507
 3909TIP3   OH233141   5.201   2.430  15.312  0.1386  0.0992 -0.2156
 3909TIP3    H133142   5.123   2.381  15.286  0.7003 -1.2053  0.4799
 3909TIP3    H233143   5.274   2.372  15.292  0.9215  1.1491 -0.4970
 3910TIP3   OH233144   4.591   5.541   1.231 -0.0402  0.2638  0.1121
 3910TIP3    H133145   4.555   5.553   1.143  0.8241 -0.0287 -0.2987
 3910TIP3    H233146   4.657   5.610   1.240 -0.1257  0.2944  0.5348
 3911TIP3   OH233147   5.171   2.138  11.734  0.3420  0.2186  0.1362
 3911TIP3    H133148   5.193   2.211  11.791 -0.2422 -1.9552  3.4047
 3911TIP3    H233149   5.242   2.075  11.746 -0.3453 -0.7645 -0.7189
 3912TIP3   OH233150   2.487   0.684  12.905 -0.0401  0.4787 -0.1965
 3912TIP3    H133151   2.456   0.773  12.920 -1.2168 -0.0566  0.7457
 3912TIP3    H233152   2.569   0.694  12.857 -0.0671  2.0648  0.0598
 3913TIP3   OH233153   1.780   1.101  15.799  0.3069  0.2933 -0.9393
 3913TIP3    H133154   1.858   1.105  15.743  1.5724 -3.1536  0.3428
 3913TIP3    H233155   1.719   1.045  15.752 -0.1188  0.3841 -0.5044
 3914TIP3   OH233156   3.065   6.692  11.204 -0.0106  0.0925 -0.3208
 3914TIP3    H133157   2.973   6.704  11.228  0.0525  0.0886 -0.0732
 3914TIP3    H233158   3.113   6.705  11.286  0.0395 -2.4047  0.1317
 3915TIP3   OH233159   3.995   5.939   5.770 -0.5696 -0.0061  0.2224
 3915TIP3    H133160   3.924   5.993   5.804  0.5143  0.0359  2.5576
 3915TIP3    H233161   4.049   5.999   5.719 -0.1229  0.8559  1.6626
 3916TIP3   OH233162   4.210   3.314  10.718 -0.0122  0.2347  0.7463
 3916TIP3    H133163   4.151   3.256  10.766  1.8594 -3.3189 -0.7926
 3916TIP3    H233164   4.171   3.321  10.630  1.7904 -2.5171 -0.4267
 3917TIP3   OH233165   6.399   1.254   3.005 -0.3189  0.8639 -0.5595
 3917TIP3    H133166   6.434   1.260   3.093  2.4423 -1.0692 -1.3881
 3917TIP3    H233167   6.305   1.238   3.017 -0.1491  1.4145  1.9575
 3918TIP3   OH233168   3.121   1.145  12.746 -0.2919  0.4357  0.0559
 3918TIP3    H133169   3.153   1.056  12.734  2.1419  1.5046 -2.3348
 3918TIP3    H233170   3.066   1.161  12.669 -0.5954  1.0647  0.3926
 3919TIP3   OH233171   0.873   4.238   3.655 -0.0149 -0.7039 -0.0744
 3919TIP3    H133172   0.937   4.293   3.610 -0.1178  0.4070  1.1000
 3919TIP3    H233173   0.837   4.183   3.585  0.4328  0.3841 -1.2068
 3920TIP3   OH233174   5.246   3.902  11.988  0.1497 -0.0464  0.0239
 3920TIP3    H133175   5.205   3.828  11.943 -1.6832  1.3316 -0.6565
 3920TIP3    H233176   5.256   3.969  11.921 -0.0156  1.0352  1.0528
 3921TIP3   OH233177   3.290   5.495  11.190  0.2193  0.6483 -0.1611
 3921TIP3    H133178   3.224   5.426  11.195 -1.2331  2.0846  1.7096
 3921TIP3    H233179   3.372   5.451  11.214 -0.3659 -0.7724 -0.6962
 3922TIP3   OH233180   1.121   1.209  12.755  0.2708 -0.4715  0.2437
 3922TIP3    H133181   1.064   1.212  12.679  0.6851 -0.6141 -0.0792
 3922TIP3    H233182   1.101   1.126  12.798 -0.5417 -0.0274  0.7550
 3923TIP3   OH233183   3.750   5.884   1.134  1.1453 -0.2246  0.4822
 3923TIP3    H133184   3.694   5.878   1.211  1.8408 -0.8338  0.9503
 3923TIP3    H233185   3.769   5.977   1.126 -0.3670  0.0668 -0.0103
 3924TIP3   OH233186   2.063   2.515   2.505  0.1782 -0.1030 -0.0215
 3924TIP3    H133187   2.036   2.465   2.583 -3.0619  0.5426 -0.6085
 3924TIP3    H233188   2.020   2.471   2.432 -0.3199  1.7868 -0.9152
 3925TIP3   OH233189   5.811   1.587  14.179  0.0420  0.0902 -0.3431
 3925TIP3    H133190   5.801   1.537  14.098 -2.0009 -1.8658  0.9813
 3925TIP3    H233191   5.805   1.678  14.152  2.3888 -0.3255 -2.6923
 3926TIP3   OH233192   0.472   5.159  15.658  0.3498 -0.2794  0.3949
 3926TIP3    H133193   0.436   5.071  15.648  0.9797 -0.5627  0.5721
 3926TIP3    H233194   0.396   5.217  15.649 -0.2499 -0.8885  1.3566
 3927TIP3   OH233195   5.360   3.956  12.912  0.0504  0.3317  0.1049
 3927TIP3    H133196   5.303   3.984  12.840 -0.0279 -0.1324 -0.0203
 3927TIP3    H233197   5.302   3.907  12.970  0.6495 -1.7816 -0.9617
 3928TIP3   OH233198   0.276   3.009   2.843  0.2669  0.5579 -0.1788
 3928TIP3    H133199   0.270   3.034   2.935  0.7674  0.5890 -0.1534
 3928TIP3    H233200   0.235   2.923   2.839 -2.4618  1.7549 -0.4477
 3929TIP3   OH233201   4.667   2.964   2.222 -0.0170  0.1684  0.1502
 3929TIP3    H133202   4.622   2.897   2.273 -0.3227  0.7589  0.6714
 3929TIP3    H233203   4.691   2.920   2.141  0.8398 -0.9037  0.9577
 3930TIP3   OH233204   5.697   3.886  12.477  0.1897 -0.1714 -0.9356
 3930TIP3    H133205   5.722   3.797  12.504  1.4274  0.6323  0.7839
 3930TIP3    H233206   5.626   3.910  12.536  0.9176  0.5305 -0.3225
 3931TIP3   OH233207   1.702   5.319  14.029  0.1905  0.2866 -0.4530
 3931TIP3    H133208   1.664   5.396  14.070  0.3749  0.4366 -0.5623
 3931TIP3    H233209   1.738   5.268  14.102 -0.6877 -0.1235 -0.2928
 3932TIP3   OH233210   0.756   4.621  13.354  0.1251 -0.2813  0.1416
 3932TIP3    H133211   0.814   4.552  13.387  2.4247  1.3004 -0.2995
 3932TIP3    H233212   0.737   4.675  13.431  0.7898  0.2025 -0.0155
 3933TIP3   OH233213   3.060   6.199  15.682 -0.6256  0.1474 -0.2828
 3933TIP3    H133214   2.982   6.183  15.735 -0.4101  2.1781  0.7564
 3933TIP3    H233215   3.084   6.113  15.648 -1.6673 -0.9930  1.6828
 3934TIP3   OH233216   4.466   5.532  15.238 -0.0790  0.0671 -0.5258
 3934TIP3    H133217   4.545   5.583  15.258  0.4318  0.2971 -2.9368
 3934TIP3    H233218   4.401   5.598  15.213 -0.3659 -0.2813 -0.7055
 3935TIP3   OH233219   3.847   1.453   5.273 -0.0387  0.0522 -0.0050
 3935TIP3    H133220   3.758   1.428   5.251  0.4042 -1.5271 -0.1502
 3935TIP3    H233221   3.883   1.377   5.319  0.8984  1.0649  1.0234
 3936TIP3   OH233222   4.558   0.116  16.001  0.4600  0.1098  0.4163
 3936TIP3    H133223   4.644   0.099  15.961  0.7994  1.4513  0.5450
 3936TIP3    H233224   4.501   0.049  15.963  1.3292 -0.1718 -0.4451
 3937TIP3   OH233225   1.206   3.347  15.302 -0.2367  0.3640  0.1807
 3937TIP3    H133226   1.179   3.425  15.350  0.4977 -0.0938  1.3831
 3937TIP3    H233227   1.272   3.379  15.240  1.4810  0.4932  1.9485
 3938TIP3   OH233228   5.442   4.554  10.755 -0.3268  0.3621  0.7833
 3938TIP3    H133229   5.372   4.537  10.692 -0.6112 -0.8176  1.3848
 3938TIP3    H233230   5.520   4.567  10.701  0.0013 -3.2631  0.1493
 3939TIP3   OH233231   5.791   0.589   0.332 -0.0997 -0.3841  0.6151
 3939TIP3    H133232   5.714   0.575   0.388 -0.2381 -0.0049  0.5230
 3939TIP3    H233233   5.832   0.668   0.368 -1.0949  0.8290 -0.7877
 3940TIP3   OH233234   3.984   4.557  16.060  0.3593 -0.1765 -0.4752
 3940TIP3    H133235   4.029   4.488  16.011 -1.2749 -1.3756 -0.3859
 3940TIP3    H233236   3.913   4.585  16.002 -1.8639 -1.9058  1.2248
 3941TIP3   OH233237   2.389   5.138   0.192  0.6123  0.3904 -0.5130
 3941TIP3    H133238   2.394   5.176   0.104 -1.7721  0.9549 -0.4644
 3941TIP3    H233239   2.305   5.167   0.226  1.2375 -0.2742  1.7758
 3942TIP3   OH233240   1.080   3.569   3.284 -0.1795  0.1844 -0.3432
 3942TIP3    H133241   1.043   3.542   3.200  0.1710 -0.7636 -0.2050
 3942TIP3    H233242   1.174   3.549   3.277 -0.2873 -0.7678  0.5898
 3943TIP3   OH233243   2.825   1.027   0.741  0.8798  0.3222 -0.0692
 3943TIP3    H133244   2.835   1.098   0.804  2.5318  0.6501 -0.6474
 3943TIP3    H233245   2.914   0.992   0.730  0.1340 -1.7669  0.0996
 3944TIP3   OH233246   4.222   4.220  11.281 -0.1916  0.4822  0.1620
 3944TIP3    H133247   4.215   4.201  11.187  1.8273  1.9769 -0.3592
 3944TIP3    H233248   4.176   4.148  11.324 -0.9783 -0.3490 -1.9565
 3945TIP3   OH233249   3.386   2.547  14.080 -0.7732 -0.4443 -0.0288
 3945TIP3    H133250   3.311   2.585  14.034 -0.7753 -0.8456 -0.3616
 3945TIP3    H233251   3.461   2.568  14.025 -0.9390 -2.1022 -0.9548
 3946TIP3   OH233252   1.040   3.099   4.864  0.5432  0.0881  0.5817
 3946TIP3    H133253   0.981   3.141   4.800 -0.0650  0.6577  1.4943
 3946TIP3    H233254   1.126   3.099   4.820  0.4993  2.0111  0.4012
 3947TIP3   OH233255   5.909   4.625  13.254 -0.6053  0.5304  0.1343
 3947TIP3    H133256   5.869   4.707  13.280 -0.3522  0.9678 -0.7941
 3947TIP3    H233257   6.003   4.644  13.250 -0.5503  0.2184 -0.1498
 3948TIP3   OH233258   3.950   2.062   5.946  0.3165  0.5509 -0.6864
 3948TIP3    H133259   4.039   2.099   5.946  0.6192 -0.1627 -0.2754
 3948TIP3    H233260   3.896   2.130   5.986  0.6297  1.0953 -1.1682
 3949TIP3   OH233261   0.428   4.908  15.224  0.5552  0.1035  0.0214
 3949TIP3    H133262   0.420   5.003  15.235 -1.8570 -0.1879  1.3887
 3949TIP3    H233263   0.375   4.887  15.148 -0.0042 -0.2621  0.4970
 3950TIP3   OH233264   1.298   4.147  17.145 -0.3620 -0.4859 -0.0561
 3950TIP3    H133265   1.230   4.144  17.212 -1.1486  0.8518 -0.7371
 3950TIP3    H233266   1.375   4.107  17.186 -0.7062  0.6414  1.7832
 3951TIP3   OH233267   0.248   1.179   4.530 -0.4530 -0.4962 -0.3596
 3951TIP3    H133268   0.286   1.095   4.503 -1.8150 -1.0726 -0.5480
 3951TIP3    H233269   0.212   1.215   4.449 -0.2140  0.0903 -0.2039
 3952TIP3   OH233270   3.428   6.231   1.760 -0.0317  0.4902 -0.2152
 3952TIP3    H133271   3.440   6.316   1.802  1.0304  0.8105 -1.1070
 3952TIP3    H233272   3.344   6.200   1.792  0.2591  1.1824  1.3173
 3953TIP3   OH233273   0.553   4.126   5.851  0.2244  0.3835 -0.0482
 3953TIP3    H133274   0.506   4.193   5.801  0.5640  1.6094  1.2141
 3953TIP3    H233275   0.488   4.058   5.867 -0.6801  1.3083  0.2921
 3954TIP3   OH233276   3.797   1.722  14.979  0.0480 -0.1257 -0.1118
 3954TIP3    H133277   3.861   1.762  15.038 -0.2491 -1.2897  1.0680
 3954TIP3    H233278   3.783   1.634  15.016  0.0321 -0.9950 -2.0848
 3955TIP3   OH233279   2.060   3.213   3.827  0.2904 -0.4020  0.7729
 3955TIP3    H133280   2.066   3.288   3.886 -2.0038  1.2660 -0.9321
 3955TIP3    H233281   2.146   3.209   3.785  1.0126  0.1329  2.1186
 3956TIP3   OH233282   6.453   5.221   2.109  1.0324  0.4265 -0.9131
 3956TIP3    H133283   6.528   5.234   2.052  1.5445  1.7562  0.0148
 3956TIP3    H233284   6.414   5.308   2.118  1.6799  0.5370  1.6634
 3957TIP3   OH233285   0.583   2.651   5.597  0.2445 -0.5726  0.7907
 3957TIP3    H133286   0.522   2.691   5.660 -2.1778 -0.3897 -1.5128
 3957TIP3    H233287   0.527   2.599   5.540  2.4947 -1.6180 -0.5848
 3958TIP3   OH233288   2.349   5.127   3.710  0.0065  0.0224 -0.1749
 3958TIP3    H133289   2.370   5.066   3.781  3.1125 -0.6745 -1.5219
 3958TIP3    H233290   2.335   5.211   3.754  2.6133 -0.1964  1.3290
 3959TIP3   OH233291   2.785   5.945  16.613  0.0804  0.1520 -0.6064
 3959TIP3    H133292   2.793   5.975  16.703  0.9926 -2.9140  0.4813
 3959TIP3    H233293   2.798   5.850  16.618  0.0844 -0.1657 -3.9670
 3960TIP3   OH233294   3.631   5.322  16.907 -0.2500 -0.3054 -0.4048
 3960TIP3    H133295   3.632   5.294  16.998  2.1568 -1.8963 -0.8442
 3960TIP3    H233296   3.673   5.408  16.907 -0.3801 -0.2425 -0.0012
 3961TIP3   OH233297   6.307   5.888  15.669 -0.5030 -0.0100 -0.3562
 3961TIP3    H133298   6.364   5.841  15.608 -0.1405 -0.3326  0.2279
 3961TIP3    H233299   6.351   5.881  15.754 -1.2483  0.0104  0.0404
 3962TIP3   OH233300   4.044   5.318   4.489  0.7104 -0.7317  0.0503
 3962TIP3    H133301   3.970   5.362   4.530  2.8383  1.7371  1.6144
 3962TIP3    H233302   4.011   5.287   4.405 -1.8162  1.1271  0.2374
 3963TIP3   OH233303   3.490   2.380   2.480  0.2066  0.3196  0.4073
 3963TIP3    H133304   3.484   2.366   2.574  0.4219  0.0274  0.3774
 3963TIP3    H233305   3.503   2.293   2.443  0.6746  0.4964  0.1473
 3964TIP3   OH233306   1.296   5.304   5.216  0.5914 -0.2661  0.1043
 3964TIP3    H133307   1.228   5.342   5.160  1.6145  1.8327  0.1952
 3964TIP3    H233308   1.249   5.271   5.292 -0.3758  0.9405  0.0648
 3965TIP3   OH233309   3.493   1.519   5.236  0.7428  0.2451  0.5791
 3965TIP3    H133310   3.544   1.462   5.178  1.0472  0.2819  0.8067
 3965TIP3    H233311   3.487   1.470   5.318  0.5013  0.2897  0.5900
 3966TIP3   OH233312   1.834   0.331  10.765 -0.5392  0.0794  0.1968
 3966TIP3    H133313   1.920   0.334  10.807 -0.0642 -1.5502 -0.5889
 3966TIP3    H233314   1.849   0.366  10.677 -0.6277 -0.4165 -0.0169
 3967TIP3   OH233315   3.054   3.115  12.566 -0.3115 -0.1225  0.4357
 3967TIP3    H133316   3.048   3.029  12.606  3.1451 -1.1367 -0.8373
 3967TIP3    H233317   3.115   3.163  12.623  0.9625  0.0059 -0.9552
 3968TIP3   OH233318   2.427   0.510  12.566  0.3033 -0.4552  0.8899
 3968TIP3    H133319   2.379   0.533  12.645  0.0208  1.3381  0.2425
 3968TIP3    H233320   2.509   0.559  12.572  0.3126 -0.3549  0.1238
 3969TIP3   OH233321   3.047   6.053  11.481 -0.0513  0.1037  0.1837
 3969TIP3    H133322   3.014   6.142  11.469 -1.5384 -0.1152  2.2148
 3969TIP3    H233323   3.049   6.017  11.392 -5.0495  0.3248 -0.3185
 3970TIP3   OH233324   0.758   6.363  12.516 -0.5650 -0.8396  0.3815
 3970TIP3    H133325   0.789   6.313  12.440  1.0155  1.0397 -0.3105
 3970TIP3    H233326   0.736   6.449  12.480 -0.4547 -0.1335  1.9344
 3971TIP3   OH233327   2.094   0.508   5.212 -0.2159 -0.5101 -0.3212
 3971TIP3    H133328   2.083   0.467   5.297  1.1067  0.0099  0.1164
 3971TIP3    H233329   2.014   0.560   5.200 -1.7290 -2.8061 -0.7154
 3972TIP3   OH233330   2.217   5.926   1.227 -0.3078 -0.5380 -0.2102
 3972TIP3    H133331   2.300   5.969   1.250 -0.3904 -1.2491  1.5309
 3972TIP3    H233332   2.239   5.833   1.224 -0.8560 -0.6546 -0.7052
 3973TIP3   OH233333   2.212   3.264   0.997 -0.5727  0.4007  0.1222
 3973TIP3    H133334   2.149   3.276   1.067 -0.1879 -1.3456  0.8127
 3973TIP3    H233335   2.274   3.336   1.007 -1.0065  0.6496  1.0421
 3974TIP3   OH233336   3.182   1.805  10.747 -0.1879  0.5073  0.2016
 3974TIP3    H133337   3.184   1.712  10.726  1.3242  0.2855  1.1560
 3974TIP3    H233338   3.194   1.809  10.842 -1.2623  1.6498  0.3132
 3975TIP3   OH233339   4.516   5.177  14.950  0.3060  0.1504 -0.0713
 3975TIP3    H133340   4.537   5.267  14.973  0.7745  1.1421 -3.7697
 3975TIP3    H233341   4.480   5.182  14.861  1.5064 -3.3859 -0.9451
 3976TIP3   OH233342   0.873   4.043   3.445  0.3056 -0.0591 -0.2439
 3976TIP3    H133343   0.882   3.957   3.486 -0.3106 -1.2783 -2.5480
 3976TIP3    H233344   0.949   4.051   3.389  0.5838  1.1264  0.2769
 3977TIP3   OH233345   3.876   3.636   4.290 -0.3240 -0.6346 -0.3986
 3977TIP3    H133346   3.857   3.562   4.347 -1.5980  0.0174  0.0447
 3977TIP3    H233347   3.967   3.659   4.311 -0.2711 -1.3687  0.2370
 3978TIP3   OH233348   5.975   0.992   4.633 -0.4716  0.2323 -0.7174
 3978TIP3    H133349   6.027   1.009   4.711  0.9344 -0.4993 -1.4681
 3978TIP3    H233350   5.887   0.974   4.666  0.6033 -2.5261  0.9268
 3979TIP3   OH233351   1.562   3.368  15.178  0.0280 -0.3455  0.1259
 3979TIP3    H133352   1.498   3.418  15.128 -1.9431 -0.1164  2.6658
 3979TIP3    H233353   1.645   3.379  15.130 -1.1624  1.9396 -1.5751
 3980TIP3   OH233354   0.899   0.598   6.676  0.3956 -0.0548 -0.0441
 3980TIP3    H133355   0.888   0.526   6.738 -0.7572  1.3087  1.3907
 3980TIP3    H233356   0.873   0.560   6.591 -1.4486 -0.9779  0.8854
 3981TIP3   OH233357   2.963   1.103  15.202 -0.2813 -0.4199  0.0381
 3981TIP3    H133358   2.906   1.074  15.131 -0.6398 -2.0284  0.9152
 3981TIP3    H233359   2.956   1.033  15.268  0.6532  0.6241  1.3042
 3982TIP3   OH233360   0.130   3.883   2.035  0.1122  0.1312  0.1154
 3982TIP3    H133361   0.122   3.950   1.966 -1.7952 -0.7808 -0.6244
 3982TIP3    H233362   0.156   3.933   2.112  2.4862  1.1701 -1.2334
 3983TIP3   OH233363   1.861   2.454  16.258 -1.0582 -0.1450 -0.2502
 3983TIP3    H133364   1.878   2.531  16.313 -1.8459  1.0777 -1.6387
 3983TIP3    H233365   1.766   2.443  16.260 -0.9474 -1.2113  0.0497
 3984TIP3   OH233366   4.989   3.321  15.555 -0.1770  0.0602 -0.9300
 3984TIP3    H133367   5.059   3.349  15.614 -1.4002  1.6136 -0.1362
 3984TIP3    H233368   5.027   3.323  15.468  0.9202  0.2958 -0.4574
 3985TIP3   OH233369   5.784   4.875  14.758  0.1331  0.1655 -0.1381
 3985TIP3    H133370   5.732   4.860  14.837  0.1531  0.7824 -0.0024
 3985TIP3    H233371   5.857   4.813  14.765  0.4427  0.5921  0.6147
 3986TIP3   OH233372   2.970   3.881  16.244 -0.3980 -0.2090  0.6180
 3986TIP3    H133373   2.880   3.854  16.224 -0.3443  0.0351  0.0185
 3986TIP3    H233374   3.012   3.889  16.158 -0.1233  0.7902  0.8384
 3987TIP3   OH233375   4.547   5.354  13.157  0.2423 -0.1682  0.3729
 3987TIP3    H133376   4.516   5.305  13.081  1.7420  0.3354 -0.6073
 3987TIP3    H233377   4.590   5.289  13.212 -0.9058 -0.5454  0.8567
 3988TIP3   OH233378   4.219   5.074  15.530 -0.0983  0.4995  0.0253
 3988TIP3    H133379   4.182   4.996  15.570  0.1354  0.2849 -0.1761
 3988TIP3    H233380   4.275   5.041  15.459  0.3123  0.8277  0.1922
 3989TIP3   OH233381   4.184   4.882   3.698 -0.3778  0.0386  0.1657
 3989TIP3    H133382   4.135   4.802   3.678  0.5299 -0.6680  0.6948
 3989TIP3    H233383   4.136   4.922   3.772 -0.3509 -0.4632  0.4556
 3990TIP3   OH233384   6.382   3.437  14.809  0.3703  0.1913  0.1675
 3990TIP3    H133385   6.426   3.397  14.884  0.7914 -0.3335 -0.3468
 3990TIP3    H233386   6.324   3.368  14.776 -0.0130  0.5098  0.1711
 3991TIP3   OH233387   2.146   0.771   1.927 -0.6515  0.6863 -0.1883
 3991TIP3    H133388   2.085   0.845   1.934 -0.7297  0.5874  0.2173
 3991TIP3    H233389   2.178   0.758   2.016  0.2103  0.9358 -0.4600
 3992TIP3   OH233390   2.879   2.654   6.303  0.8154  0.3907 -0.4580
 3992TIP3    H133391   2.861   2.570   6.346  1.8214  0.5227  0.2459
 3992TIP3    H233392   2.975   2.659   6.300  0.7799  0.6065 -2.3019
 3993TIP3   OH233393   2.414   3.466  13.275 -0.1056 -0.2978  0.0512
 3993TIP3    H133394   2.358   3.389  13.284 -0.3405 -0.0314  0.9665
 3993TIP3    H233395   2.405   3.512  13.358  1.1505 -0.0347  0.0601
 3994TIP3   OH233396   0.788   6.246   4.837  0.3296  0.4328 -0.3951
 3994TIP3    H133397   0.811   6.216   4.925 -0.8969  1.3634  0.2777
 3994TIP3    H233398   0.871   6.275   4.799  0.8065  0.4158  0.6154
 3995TIP3   OH233399   4.825   1.356  15.196  0.3642  0.4593 -0.1956
 3995TIP3    H133400   4.899   1.302  15.223 -1.8143 -3.2582 -1.0140
 3995TIP3    H233401   4.806   1.410  15.273  1.5613 -1.2864  1.4148
 3996TIP3   OH233402   5.269   1.414   0.865  0.5253  0.6255 -0.3791
 3996TIP3    H133403   5.248   1.462   0.784 -0.8812  0.7643  0.0451
 3996TIP3    H233404   5.270   1.481   0.933  2.1275  0.5748 -0.3143
 3997TIP3   OH233405   1.358   6.785   6.110 -0.0217  0.3036  0.4752
 3997TIP3    H133406   1.436   6.744   6.072 -0.8001 -0.6447 -0.1134
 3997TIP3    H233407   1.286   6.726   6.090 -0.5292 -0.1767  3.3087
 3998TIP3   OH233408   5.960   2.560   0.387 -0.2371 -0.4627  0.2039
 3998TIP3    H133409   5.918   2.518   0.462  0.2744 -1.2564  0.0529
 3998TIP3    H233410   5.988   2.488   0.331  0.4237  0.0867 -0.1938
 3999TIP3   OH233411   4.354   5.542  11.538 -0.0118 -0.0569  0.3849
 3999TIP3    H133412   4.400   5.522  11.456  0.8137 -0.4992  0.9406
 3999TIP3    H233413   4.378   5.633  11.556  1.6220 -0.6220  1.2591
 4000TIP3   OH233414   4.440   6.195  14.758  0.4059 -0.7881  0.2680
 4000TIP3    H133415   4.454   6.243  14.840  1.0992 -0.4788 -0.0200
 4000TIP3    H233416   4.526   6.195  14.716 -0.3010  0.5661 -1.2783
 4001TIP3   OH233417   2.017   2.777   3.184  0.1816  0.5281 -0.1818
 4001TIP3    H133418   2.027   2.855   3.130  0.8480 -0.3641 -1.3879
 4001TIP3    H233419   2.106   2.751   3.207 -0.0561  0.4269  0.6872
 4002TIP3   OH233420   5.189   0.675  13.173 -0.2579  0.0967  0.0528
 4002TIP3    H133421   5.218   0.590  13.206 -0.5942 -0.8083 -1.8451
 4002TIP3    H233422   5.179   0.662  13.079  2.1889  2.9395 -0.7574
 4003TIP3   OH233423   1.912   0.590  12.048 -0.0780 -0.3923  0.8571
 4003TIP3    H133424   1.913   0.620  12.139  1.6469  1.5779  0.2851
 4003TIP3    H233425   1.969   0.652  12.003 -2.1701 -0.2825 -1.9045
 4004TIP3   OH233426   6.376   4.582   3.939  0.1844  0.2765  0.0263
 4004TIP3    H133427   6.381   4.527   3.860  1.0884  0.4716 -0.0690
 4004TIP3    H233428   6.465   4.580   3.974  0.1545  1.4124  0.2016
 4005TIP3   OH233429   5.803   4.844  16.612 -0.5199 -0.2974 -0.1833
 4005TIP3    H133430   5.724   4.858  16.559 -0.1019  0.7158 -0.5544
 4005TIP3    H233431   5.863   4.913  16.584 -0.1602  0.0480  1.3785
 4006TIP3   OH233432   0.587   2.069  10.381  0.0745 -0.0364  0.0369
 4006TIP3    H133433   0.493   2.081  10.397  0.2171  0.2346  0.7088
 4006TIP3    H233434   0.591   2.009  10.307 -0.6288 -0.1898  0.1163
 4007TIP3   OH233435   3.450   1.208  14.999  0.1367 -0.2071 -0.2487
 4007TIP3    H133436   3.438   1.128  14.947  0.1567 -0.2469 -0.1928
 4007TIP3    H233437   3.481   1.273  14.936  2.6303 -0.9128  0.1359
 4008TIP3   OH233438   3.828   3.564  16.262 -0.1484 -0.2829 -0.3582
 4008TIP3    H133439   3.872   3.484  16.233 -1.6738 -1.3763  0.2043
 4008TIP3    H233440   3.754   3.573  16.202  0.8349  1.5881 -1.3623
 4009TIP3   OH233441   1.434   3.297   5.176 -0.6873 -0.3188  0.1469
 4009TIP3    H133442   1.459   3.314   5.266 -0.5935  1.1915 -0.1244
 4009TIP3    H233443   1.381   3.373   5.151 -1.4814 -1.1386 -0.7931
 4010TIP3   OH233444   4.718   6.252   1.617  0.1658  0.0950 -0.2821
 4010TIP3    H133445   4.738   6.331   1.569 -2.0778 -0.1496 -1.7811
 4010TIP3    H233446   4.667   6.282   1.692  0.6518  0.1857  0.0150
 4011TIP3   OH233447   3.678   4.038   1.721 -0.0243 -0.0575 -0.4729
 4011TIP3    H133448   3.634   4.122   1.730 -1.6149 -0.9076  0.2047
 4011TIP3    H233449   3.661   4.011   1.631 -0.8583 -0.3393 -0.2418
 4012TIP3   OH233450   3.978   5.852  15.300  0.4027  0.2937  0.1373
 4012TIP3    H133451   3.926   5.777  15.274  1.1021  0.0183 -0.5384
 4012TIP3    H233452   4.047   5.857  15.233  0.5871  1.3021  0.3813
 4013TIP3   OH233453   5.075   1.376  16.764 -0.0568  0.2790  0.1702
 4013TIP3    H133454   5.059   1.453  16.710  2.0265 -0.6597 -1.9567
 4013TIP3    H233455   5.143   1.404  16.826  1.7560 -0.1162 -1.5270
 4014TIP3   OH233456   4.641   3.488  15.766  0.8034  0.0636 -0.3416
 4014TIP3    H133457   4.558   3.479  15.813  1.5512 -1.0329  0.8515
 4014TIP3    H233458   4.643   3.579  15.737 -1.5725 -0.3184 -1.9165
 4015TIP3   OH233459   3.696   0.578  13.191  0.0772 -0.0021 -0.0849
 4015TIP3    H133460   3.639   0.501  13.194 -0.1389  0.1451 -0.4306
 4015TIP3    H233461   3.682   0.616  13.105  0.0914  0.4972  0.1269
 4016TIP3   OH233462   5.107   5.682  16.552  0.2980 -0.1080 -0.5198
 4016TIP3    H133463   5.089   5.760  16.604  1.9061  0.0368 -0.1154
 4016TIP3    H233464   5.199   5.691  16.527  0.2085 -1.3461 -1.3935
 4017TIP3   OH233465   4.800   3.767   1.062  0.0311 -0.1064  0.3340
 4017TIP3    H133466   4.887   3.730   1.048 -0.5752 -1.5247  0.0879
 4017TIP3    H233467   4.797   3.845   1.006  1.5347  0.6583  1.2530
 4018TIP3   OH233468   2.203   3.712  13.837 -0.0526  0.8726 -0.5421
 4018TIP3    H133469   2.211   3.786  13.898 -0.6610 -0.5865  1.4153
 4018TIP3    H233470   2.251   3.641  13.880 -0.0149 -0.0609 -2.0767
 4019TIP3   OH233471   2.010   5.331   2.753 -0.1101  0.0346 -0.3034
 4019TIP3    H133472   2.016   5.391   2.828  2.1995  1.5639 -1.6095
 4019TIP3    H233473   1.916   5.327   2.734 -0.7533 -0.1248  2.3877
 4020TIP3   OH233474   6.362   2.774  12.806  0.3630  0.0323 -0.1170
 4020TIP3    H133475   6.333   2.697  12.756  1.5315  0.2657 -1.2241
 4020TIP3    H233476   6.416   2.823  12.744  0.7917  1.0267  1.0099
 4021TIP3   OH233477   1.258   3.893  13.976  0.3060 -0.4521 -0.1554
 4021TIP3    H133478   1.170   3.877  13.942  0.7964 -1.3137 -1.0645
 4021TIP3    H233479   1.262   3.841  14.056  0.2824 -1.1192 -0.5833
 4022TIP3   OH233480   4.615   2.216   5.207  0.4071  0.7360  0.2511
 4022TIP3    H133481   4.535   2.239   5.253  1.1313  0.6282  1.6321
 4022TIP3    H233482   4.594   2.226   5.114 -1.7730 -1.0836  0.4615
 4023TIP3   OH233483   6.681   6.465  14.856  0.4484  0.1675 -0.8284
 4023TIP3    H133484   6.766   6.467  14.900  0.1567 -2.6362  0.0606
 4023TIP3    H233485   6.619   6.497  14.922  0.7733  2.6956 -1.6382
 4024TIP3   OH233486   3.853   2.723   5.310 -0.1538  0.4582 -0.8137
 4024TIP3    H133487   3.798   2.718   5.388 -1.8512  1.2914 -1.8926
 4024TIP3    H233488   3.876   2.816   5.303  0.7928  0.2307 -0.7798
 4025TIP3   OH233489   0.377   0.463   0.520 -0.1010  0.1820  0.3553
 4025TIP3    H133490   0.321   0.385   0.521  1.1403 -0.7455  0.2927
 4025TIP3    H233491   0.402   0.474   0.428  0.2621  0.2386  0.4568
 4026TIP3   OH233492   0.854   4.422  13.752  0.1642 -0.3383  0.0396
 4026TIP3    H133493   0.857   4.437  13.847  0.9803 -0.0831 -0.0153
 4026TIP3    H233494   0.823   4.332  13.743 -1.4351  0.1436  0.4896
 4027TIP3   OH233495   1.273   5.229  14.567  0.2053 -0.4552 -0.2431
 4027TIP3    H133496   1.261   5.277  14.485  1.0038 -1.8535 -1.2310
 4027TIP3    H233497   1.329   5.286  14.620 -0.5368  0.5816 -0.5503
 4028TIP3   OH233498   0.045   5.609   0.000 -0.4160  0.6530 -0.1003
 4028TIP3    H133499   0.005   5.533   0.043  1.3550  0.3756  1.1812
 4028TIP3    H233500   0.097   5.571  -0.071  2.0159  0.3559  1.7008
 4029TIP3   OH233501   3.405   6.215   3.988  0.2381  0.0038 -0.2400
 4029TIP3    H133502   3.397   6.197   3.894  0.3163 -0.8399 -0.0935
 4029TIP3    H233503   3.445   6.302   3.992  2.4900 -0.9183 -1.0284
 4030TIP3   OH233504   1.865   1.119  12.748  0.2075  0.6570  0.5537
 4030TIP3    H133505   1.849   1.173  12.670 -0.7261  1.8205  1.5110
 4030TIP3    H233506   1.782   1.120  12.795  0.4753 -0.8229  1.1065
 4031TIP3   OH233507   5.818   0.783   3.297  0.3116  0.0701 -0.5718
 4031TIP3    H133508   5.857   0.702   3.264 -1.6424 -1.3091  0.2997
 4031TIP3    H233509   5.755   0.809   3.230  1.1095  1.0420 -0.9648
 4032TIP3   OH233510   3.554   3.176  17.063 -0.7404  0.1523 -0.8210
 4032TIP3    H133511   3.597   3.213  17.141 -2.4240  2.0529 -0.7191
 4032TIP3    H233512   3.487   3.240  17.040 -0.8792 -0.7986 -3.3448
 4033TIP3   OH233513   1.278   4.784  12.696 -0.3616  0.0183  0.6764
 4033TIP3    H133514   1.286   4.792  12.791  0.4275 -0.6983  0.6773
 4033TIP3    H233515   1.207   4.845  12.674  1.2797  2.3424  1.3692
 4034TIP3   OH233516   1.634   3.256  16.275  0.0366  0.2384 -0.5891
 4034TIP3    H133517   1.605   3.324  16.335 -0.6550 -1.2033  0.8021
 4034TIP3    H233518   1.724   3.238  16.300 -0.6015 -1.1581  0.8733
 4035TIP3   OH233519   2.714   2.563  15.409 -0.1080  0.2596  0.5237
 4035TIP3    H133520   2.729   2.502  15.482 -1.4309 -0.8679 -0.0944
 4035TIP3    H233521   2.682   2.643  15.451 -0.1144 -0.1098  1.2408
 4036TIP3   OH233522   0.021   5.287   0.741  0.0025  0.2071  0.3397
 4036TIP3    H133523   0.096   5.272   0.683 -0.5630  0.2615 -0.4133
 4036TIP3    H233524  -0.044   5.223   0.712 -0.4855  0.6026  0.5630
 4037TIP3   OH233525   6.708   1.381   4.162  0.6365 -0.3381 -0.5427
 4037TIP3    H133526   6.793   1.355   4.196  0.1498 -0.4356  0.6428
 4037TIP3    H233527   6.657   1.301   4.159  0.4612 -0.2186 -0.9094
 4038TIP3   OH233528   1.145   1.518   4.503 -0.5382  0.5284  0.2314
 4038TIP3    H133529   1.227   1.520   4.453 -0.3431  0.1164  0.5224
 4038TIP3    H233530   1.080   1.559   4.445 -0.1803  0.6311 -0.1021
 4039TIP3   OH233531   0.478   1.437   1.250 -0.2802  0.1797  0.6028
 4039TIP3    H133532   0.487   1.440   1.345 -0.5503 -0.4455  0.6523
 4039TIP3    H233533   0.489   1.345   1.227 -0.6780  0.2546  0.0788
 4040TIP3   OH233534   3.713   6.296  11.882  0.5395 -1.0796 -0.0554
 4040TIP3    H133535   3.740   6.365  11.943 -0.6526  0.2599 -0.9758
 4040TIP3    H233536   3.784   6.292  11.817 -0.6121  1.3548 -1.6110
 4041TIP3   OH233537   2.096   2.201  16.501 -0.7996  0.9579  0.3580
 4041TIP3    H133538   2.131   2.117  16.472  1.0964  2.1260 -0.9550
 4041TIP3    H233539   2.022   2.178  16.557  1.1598 -1.6693  2.1215
 4042TIP3   OH233540   6.084   4.192   5.188 -0.1588  0.3751  0.1126
 4042TIP3    H133541   6.068   4.245   5.266  0.1905  0.0974  0.3781
 4042TIP3    H233542   6.180   4.190   5.179 -0.1531 -0.4578  0.2877
 4043TIP3   OH233543   6.393   4.051   5.414  0.0973  0.3413 -0.5190
 4043TIP3    H133544   6.475   4.035   5.459  0.1351 -0.7714 -0.9288
 4043TIP3    H233545   6.350   4.120   5.463 -0.1136 -1.1823  1.5667
 4044TIP3   OH233546   1.729   4.749   4.802  0.1500  0.2702 -0.6142
 4044TIP3    H133547   1.697   4.659   4.791 -2.0556  1.1529 -2.0785
 4044TIP3    H233548   1.803   4.756   4.741  0.9232 -0.7488  0.1577
 4045TIP3   OH233549   1.043   5.467   5.088 -0.0299  1.0676 -0.3664
 4045TIP3    H133550   1.007   5.521   5.158  0.6764  1.0905 -0.0099
 4045TIP3    H233551   1.045   5.525   5.012 -0.9776  0.9854 -0.4735
 4046TIP3   OH233552   5.738   3.761  15.227 -0.2359  0.4192 -0.5777
 4046TIP3    H133553   5.819   3.810  15.211  0.2774 -0.8224 -2.0790
 4046TIP3    H233554   5.684   3.779  15.151  0.1329 -1.5950 -1.3781
 4047TIP3   OH233555   2.908   5.053   4.252  0.8506  0.1740 -0.1658
 4047TIP3    H133556   2.911   4.974   4.198 -2.0872  0.2666 -0.6225
 4047TIP3    H233557   2.960   5.117   4.204  0.3405 -0.4814 -1.6638
 4048TIP3   OH233558   1.318   0.565  15.773  0.4177 -0.1163 -0.1559
 4048TIP3    H133559   1.320   0.487  15.828 -0.9989  0.4111  0.6890
 4048TIP3    H233560   1.237   0.609  15.797  0.3463  0.7400 -1.8489
 4049TIP3   OH233561   3.510   0.261  12.172 -0.6910 -0.1052 -0.0616
 4049TIP3    H133562   3.454   0.217  12.108  0.2739  1.1382 -1.8629
 4049TIP3    H233563   3.510   0.203  12.248 -3.5436 -0.6404 -0.3577
 4050TIP3   OH233564   0.259   6.164  15.526  0.0702 -0.8663  0.4623
 4050TIP3    H133565   0.319   6.237  15.542 -0.5352 -0.3416  0.3775
 4050TIP3    H233566   0.281   6.099  15.593  0.7374 -0.6854  0.4226
 4051TIP3   OH233567   1.777   2.769  11.025 -0.5764  0.1274 -0.3131
 4051TIP3    H133568   1.787   2.744  11.116  1.4884 -1.3500 -0.8870
 4051TIP3    H233569   1.736   2.856  11.029 -1.9351 -0.5273  1.9287
 4052TIP3   OH233570   3.335   0.029  13.590 -0.4290 -0.2063  0.2610
 4052TIP3    H133571   3.312  -0.059  13.620  1.1456 -0.8738 -0.3745
 4052TIP3    H233572   3.429   0.035  13.606 -0.5884  1.5434  0.6996
 4053TIP3   OH233573   1.113   4.045   1.112  0.2163  0.0049  0.3922
 4053TIP3    H133574   1.071   4.064   1.196  0.9663 -0.5185  0.9012
 4053TIP3    H233575   1.203   4.021   1.136 -0.1409 -2.2771 -0.3557
 4054TIP3   OH233576   2.320   3.221  16.557  0.2608 -0.1614 -0.1526
 4054TIP3    H133577   2.233   3.190  16.532  0.2610 -0.6707  0.4513
 4054TIP3    H233578   2.379   3.149  16.537  0.9498  1.0134 -2.7812
 4055TIP3   OH233579   1.992   2.047   5.055  0.0636 -0.2823 -0.1309
 4055TIP3    H133580   2.056   2.104   5.014  0.3952 -0.7919 -0.3322
 4055TIP3    H233581   1.918   2.047   4.994 -1.0926  2.0694  1.1341
 4056TIP3   OH233582   5.156   5.913   0.335  0.2243  0.5570 -0.6109
 4056TIP3    H133583   5.125   5.881   0.250  0.2078  0.9153 -0.7436
 4056TIP3    H233584   5.075   5.934   0.383  0.2083 -0.3712 -0.2129
 4057TIP3   OH233585   2.316   3.620  13.501 -0.2758  0.0546 -0.2441
 4057TIP3    H133586   2.229   3.660  13.496 -0.3845  0.0849  1.3392
 4057TIP3    H233587   2.311   3.562  13.577  1.7240  1.7279  1.2679
 4058TIP3   OH233588   3.713   6.343   5.999  0.2860  0.1753  0.0566
 4058TIP3    H133589   3.767   6.419   6.023 -0.2914  0.0411  1.9125
 4058TIP3    H233590   3.767   6.267   6.023 -0.2481  0.0333  0.8248
 4059TIP3   OH233591   6.536   4.322   0.543 -0.2749  0.4207 -0.4238
 4059TIP3    H133592   6.588   4.325   0.624  0.6349 -2.3954 -0.8194
 4059TIP3    H233593   6.571   4.393   0.490  0.8820  0.6779  0.6336
 4060TIP3   OH233594   2.695   3.383  12.257 -0.5740  0.1483  0.1945
 4060TIP3    H133595   2.625   3.392  12.322 -0.7468 -0.6404  0.1335
 4060TIP3    H233596   2.708   3.288  12.250 -0.3196  0.2423 -0.6652
 4061TIP3   OH233597   0.040   0.186   0.198 -0.0836 -0.7985 -0.3052
 4061TIP3    H133598  -0.006   0.142   0.126 -2.0074  0.0131  0.3530
 4061TIP3    H233599  -0.014   0.263   0.217  0.6417 -0.7305  1.6849
 4062TIP3   OH233600   6.386   1.774   6.220 -0.0631  0.0413 -0.2926
 4062TIP3    H133601   6.403   1.734   6.306 -1.5280 -1.2884 -0.5823
 4062TIP3    H233602   6.461   1.832   6.206  1.7430 -1.9471  0.5598
 4063TIP3   OH233603   0.080   3.360  12.216 -0.2711  0.1097  0.7737
 4063TIP3    H133604   0.047   3.271  12.227  0.3151 -0.1557  0.4421
 4063TIP3    H233605   0.165   3.361  12.261 -0.5436  0.6761  1.2940
 4064TIP3   OH233606   3.916   4.708   1.739 -0.1658 -0.3263 -0.1930
 4064TIP3    H133607   3.833   4.700   1.692  0.2670 -1.5508 -0.7810
 4064TIP3    H233608   3.900   4.666   1.823 -0.6787  1.1004  0.4587
 4065TIP3   OH233609   2.331   2.555   5.582 -0.2040  1.2518  1.4773
 4065TIP3    H133610   2.262   2.514   5.634 -0.2162 -0.8657 -0.0713
 4065TIP3    H233611   2.333   2.505   5.500  3.5325  0.8019  1.6502
 4066TIP3   OH233612   6.626   5.348   2.545 -0.5335  0.3316  0.1468
 4066TIP3    H133613   6.616   5.395   2.628  2.2516  0.9096  0.2349
 4066TIP3    H233614   6.705   5.296   2.556 -0.2434  0.2199 -2.0789
 4067TIP3   OH233615   5.150   6.286   1.774  0.5759  0.9406  1.0000
 4067TIP3    H133616   5.203   6.354   1.818 -1.2429  1.7426  2.0583
 4067TIP3    H233617   5.093   6.335   1.716 -0.4688  0.2939  1.4655
 4068TIP3   OH233618   3.932   2.665  14.204  0.1400 -0.1069  0.0034
 4068TIP3    H133619   3.886   2.616  14.136 -0.0578 -0.7705  0.6111
 4068TIP3    H233620   4.011   2.697  14.160  0.2519 -0.9243 -0.4123
 4069TIP3   OH233621   1.424   4.405   0.625 -0.5691  0.1069  0.0005
 4069TIP3    H133622   1.409   4.311   0.634  1.3308 -0.3778 -1.2492
 4069TIP3    H233623   1.461   4.415   0.538 -0.7702  2.0409  0.0943
 4070TIP3   OH233624   0.829   3.159   6.025 -0.0278  0.4677 -0.9377
 4070TIP3    H133625   0.923   3.161   6.041 -0.2303 -0.2785  0.4372
 4070TIP3    H233626   0.804   3.068   6.037 -0.6435  0.2694 -3.2058
 4071TIP3   OH233627   0.998   1.815  14.992 -0.2455  0.2643 -0.0654
 4071TIP3    H133628   0.961   1.886  14.940 -0.0167  0.9856  0.7217
 4071TIP3    H233629   1.077   1.789  14.944  0.0326  1.0083 -0.0346
 4072TIP3   OH233630   4.190   5.458  17.170 -0.2756 -0.8839 -0.1308
 4072TIP3    H133631   4.271   5.501  17.143 -0.6484 -0.2072 -0.1868
 4072TIP3    H233632   4.127   5.481  17.101 -0.7349 -0.7113  0.3451
 4073TIP3   OH233633   4.528   2.532   2.840 -0.0971  0.3713  0.3109
 4073TIP3    H133634   4.450   2.506   2.888 -0.4724 -0.4753 -0.7182
 4073TIP3    H233635   4.549   2.457   2.785  0.4941  1.1863 -0.6233
 4074TIP3   OH233636   1.000   5.331  12.310  0.5169  0.2539  0.1789
 4074TIP3    H133637   1.068   5.274  12.346  1.3415  1.1302  0.0262
 4074TIP3    H233638   1.008   5.323  12.215 -1.0900 -1.3725  0.1064
 4075TIP3   OH233639   4.340   2.076  15.130 -0.3768  0.2179 -0.0722
 4075TIP3    H133640   4.399   2.147  15.105 -0.1333  0.0435  0.0053
 4075TIP3    H233641   4.252   2.113  15.120 -0.2809  0.2475 -0.9059
 4076TIP3   OH233642   0.457   3.399  15.239  0.6952 -0.3810 -0.1890
 4076TIP3    H133643   0.477   3.406  15.146 -0.3630  2.3790 -0.2919
 4076TIP3    H233644   0.377   3.346  15.242  0.5608 -0.2296 -0.8723
 4077TIP3   OH233645   6.767   6.691  12.981 -0.4457  0.2134 -0.1968
 4077TIP3    H133646   6.788   6.751  13.053  0.2775 -0.7514  0.4122
 4077TIP3    H233647   6.794   6.605  13.013 -0.8896 -0.3513 -1.3062
 4078TIP3   OH233648   4.765   0.634   0.057 -0.3046 -0.1025 -0.4640
 4078TIP3    H133649   4.816   0.706   0.094 -1.4573  0.1892  0.6181
 4078TIP3    H233650   4.744   0.662  -0.032  0.0307  0.4935 -0.3604
 4079TIP3   OH233651   2.301   5.368   0.861  0.1471 -0.1867  0.0121
 4079TIP3    H133652   2.250   5.303   0.814  1.3723 -0.6736 -0.6713
 4079TIP3    H233653   2.253   5.450   0.848 -0.5453 -0.6574 -0.4598
 4080TIP3   OH233654   3.806   4.728   1.174  0.4466  0.0580 -0.2010
 4080TIP3    H133655   3.758   4.768   1.247 -0.6550  1.3382 -1.5691
 4080TIP3    H233656   3.898   4.735   1.199  0.2797  2.9923 -0.0865
 4081TIP3   OH233657   0.544   6.762   3.424  0.4416 -0.1134  0.1434
 4081TIP3    H133658   0.603   6.686   3.430  0.5374  0.0511  1.5746
 4081TIP3    H233659   0.576   6.822   3.492 -0.2133  0.8091 -0.3487
 4082TIP3   OH233660   1.264   6.137   5.580 -0.6563  0.1859 -0.0278
 4082TIP3    H133661   1.296   6.058   5.623 -0.7938  0.0262 -0.2143
 4082TIP3    H233662   1.324   6.150   5.506  1.3561  2.0787  1.7979
 4083TIP3   OH233663   5.063   5.606   5.865 -0.4764  0.2577 -0.4141
 4083TIP3    H133664   5.045   5.683   5.811  0.0938 -0.9440 -2.4496
 4083TIP3    H233665   5.054   5.636   5.955 -2.8177  2.0557 -1.1572
 4084TIP3   OH233666   0.464   2.414  14.861 -0.1055 -0.6767  0.2820
 4084TIP3    H133667   0.524   2.372  14.922 -1.6035 -1.2716  1.4310
 4084TIP3    H233668   0.415   2.477  14.915  0.5547  0.9704 -0.9523
 4085TIP3   OH233669   0.222   6.645   0.914 -0.2053  0.5169  0.1691
 4085TIP3    H133670   0.132   6.612   0.913 -0.0640  0.0800  1.0355
 4085TIP3    H233671   0.256   6.619   1.000  0.0862  2.4900  0.6891
 4086TIP3   OH233672   4.770   1.465   1.561 -0.0296  0.1304  0.3130
 4086TIP3    H133673   4.745   1.555   1.537  0.5115 -0.1899 -1.6847
 4086TIP3    H233674   4.688   1.424   1.588 -0.4011  1.0406  0.5950
 4087TIP3   OH233675   0.589   4.109   4.433  0.2650 -0.6134  0.1518
 4087TIP3    H133676   0.649   4.180   4.457  1.2110 -1.6325  0.9220
 4087TIP3    H233677   0.546   4.084   4.514 -0.1941 -0.7949 -0.1419
 4088TIP3   OH233678   1.561   4.809  17.162 -0.3068 -0.7725  0.1083
 4088TIP3    H133679   1.545   4.740  17.098  1.2238 -0.7374 -0.3564
 4088TIP3    H233680   1.530   4.889  17.121  0.4884 -0.7807 -0.5425
 4089TIP3   OH233681   3.651   4.485  13.748  0.5798  0.5513 -0.2276
 4089TIP3    H133682   3.728   4.449  13.703  1.3058  1.0378  0.5800
 4089TIP3    H233683   3.688   4.536  13.819 -0.4905  1.4639 -0.3118
 4090TIP3   OH233684   6.463   6.450  12.211  0.1373 -0.4208  0.3837
 4090TIP3    H133685   6.376   6.415  12.232 -0.0133  0.5436  1.4653
 4090TIP3    H233686   6.449   6.544  12.199  0.6496 -0.5768 -1.8071
 4091TIP3   OH233687   1.623   1.867   3.904 -0.1900 -0.4503  0.5175
 4091TIP3    H133688   1.619   1.849   3.998  0.6017 -0.5810  0.5332
 4091TIP3    H233689   1.540   1.911   3.885 -0.6204 -0.9524  1.1582
 4092TIP3   OH233690   3.389   2.568  15.259 -0.0416 -0.1074 -0.1637
 4092TIP3    H133691   3.306   2.524  15.275 -0.5186  0.8619  0.1153
 4092TIP3    H233692   3.449   2.530  15.323  0.1575 -1.8989 -1.3614
 4093TIP3   OH233693   0.139   0.744   5.019  0.0939 -0.5303  0.2069
 4093TIP3    H133694   0.157   0.790   4.937  1.4509  0.3326  0.9489
 4093TIP3    H233695   0.075   0.677   4.995  0.6302 -0.4636 -1.6021
 4094TIP3   OH233696   4.338   1.094   5.762 -0.4434 -0.6729  0.4009
 4094TIP3    H133697   4.247   1.088   5.789  0.2478 -0.5591  2.9427
 4094TIP3    H233698   4.383   1.137   5.835  1.6879 -0.8629 -0.7047
 4095TIP3   OH233699   2.722   2.309  12.098 -0.0396  0.4101 -0.5929
 4095TIP3    H133700   2.730   2.337  12.189 -0.4852  0.5213 -0.5827
 4095TIP3    H233701   2.709   2.214  12.104 -0.9970  0.5353 -0.4773
 4096TIP3   OH233702   0.532   0.689   0.639 -0.6700 -0.1687  0.3530
 4096TIP3    H133703   0.575   0.774   0.630 -1.9587  0.3008 -2.5397
 4096TIP3    H233704   0.592   0.628   0.596 -0.4191 -0.4834  1.1377
 4097TIP3   OH233705   4.006   6.270   2.394 -0.3245  0.1214  0.0851
 4097TIP3    H133706   4.034   6.181   2.415  0.8585  0.8221  1.7013
 4097TIP3    H233707   3.959   6.299   2.472 -0.6879  0.9145 -0.4203
 4098TIP3   OH233708   2.536   3.945  12.721 -0.5197  0.1191 -0.1969
 4098TIP3    H133709   2.480   3.966  12.647 -0.4339 -0.1382 -0.3333
 4098TIP3    H233710   2.624   3.972  12.694 -0.2022 -1.3942 -0.8114
 4099TIP3   OH233711   4.879   5.249   2.549  0.0089  0.0504  0.2464
 4099TIP3    H133712   4.876   5.314   2.620 -0.2437  0.8723 -0.4944
 4099TIP3    H233713   4.906   5.299   2.472 -1.6596 -0.3839 -0.6773
 4100TIP3   OH233714   1.557   2.340   5.207  0.3030  0.1910  0.5255
 4100TIP3    H133715   1.481   2.376   5.253  0.6230  3.5478 -1.2292
 4100TIP3    H233716   1.534   2.349   5.114  2.7844  1.3072 -0.0520
 4101TIP3   OH233717   2.194   5.500   0.128  0.1005 -0.6260 -0.7176
 4101TIP3    H133718   2.130   5.483   0.197  0.6010  2.2325  0.6102
 4101TIP3    H233719   2.142   5.511   0.049 -0.8156 -0.7386 -0.1408
 4102TIP3   OH233720   2.897   3.209  10.970 -0.0790 -0.0100  0.4402
 4102TIP3    H133721   2.854   3.124  10.981 -0.6364  0.5874  3.9315
 4102TIP3    H233722   2.990   3.190  10.978 -0.2207 -0.3028  1.6004
 4103TIP3   OH233723   0.293   4.705  11.369 -0.5128 -0.1533 -0.8414
 4103TIP3    H133724   0.353   4.743  11.305 -0.8326  1.0363 -0.4555
 4103TIP3    H233725   0.217   4.763  11.369  0.0144  0.6697  1.5387
 4104TIP3   OH233726   5.388   4.913  16.770  0.6379  0.2487 -0.2416
 4104TIP3    H133727   5.460   4.850  16.775 -1.0018 -1.8009 -0.7546
 4104TIP3    H233728   5.334   4.894  16.847  1.6116  3.1439  1.2833
 4105TIP3   OH233729   2.572   1.435  13.587  0.7358  0.4345 -0.0069
 4105TIP3    H133730   2.572   1.353  13.536 -1.5012  0.9428 -0.9492
 4105TIP3    H233731   2.535   1.411  13.671 -0.4555  0.5474 -0.4808
 4106TIP3   OH233732   4.878   0.107   2.990  0.4813  0.2234  0.0924
 4106TIP3    H133733   4.884   0.181   3.050  0.1421  0.0995  0.2806
 4106TIP3    H233734   4.796   0.120   2.943 -0.2508 -0.7342  1.0704
 4107TIP3   OH233735   6.102   4.101  10.968  0.2843 -0.4565 -0.2403
 4107TIP3    H133736   6.080   4.192  10.947  2.6511  0.5891  1.4379
 4107TIP3    H233737   6.193   4.091  10.942  0.6559 -1.7264  1.3626
 4108TIP3   OH233738   1.673   5.983  11.865 -0.1121  0.3091  0.0767
 4108TIP3    H133739   1.700   5.984  11.774  0.8272  1.2126  0.3515
 4108TIP3    H233740   1.645   6.072  11.884  1.2077  0.5472  1.0834
 4109TIP3   OH233741   4.513   5.052   6.474 -0.1954 -0.5280  0.3790
 4109TIP3    H133742   4.568   4.998   6.531 -0.7480 -1.0492  0.4361
 4109TIP3    H233743   4.501   5.134   6.523 -1.2130 -1.2146  1.3401
 4110TIP3   OH233744   5.782   0.668  14.547  0.7954 -0.6384  0.1943
 4110TIP3    H133745   5.844   0.649  14.477  0.1498 -1.0706 -0.2615
 4110TIP3    H233746   5.755   0.758  14.532 -1.0103 -1.4011 -1.4301
 4111TIP3   OH233747   5.250   3.554  15.170 -0.5111 -0.0299  0.1475
 4111TIP3    H133748   5.267   3.601  15.252  1.5034  1.2336 -0.9226
 4111TIP3    H233749   5.198   3.477  15.197  0.2011  0.2622  2.6107
 4112TIP3   OH233750   3.332   2.306  16.005  0.5723  0.6237 -0.4018
 4112TIP3    H133751   3.279   2.288  16.082  1.5144  1.4231  0.4712
 4112TIP3    H233752   3.269   2.313  15.933 -0.2488 -0.8480  0.1516
 4113TIP3   OH233753   4.190   3.644  16.243 -0.1679 -0.1471  0.1984
 4113TIP3    H133754   4.207   3.561  16.199 -0.4153  0.7265 -1.6515
 4113TIP3    H233755   4.122   3.624  16.307  0.0067 -1.4199  0.0147
 4114TIP3   OH233756   6.683   2.722  13.529 -0.3380 -0.5064 -0.5520
 4114TIP3    H133757   6.678   2.807  13.485 -0.1087 -0.6921 -0.9394
 4114TIP3    H233758   6.711   2.743  13.618  1.5977 -0.3300 -1.1683
 4115TIP3   OH233759   1.782   4.264   6.259 -0.7665  0.1419  0.2667
 4115TIP3    H133760   1.829   4.273   6.176 -1.9732  0.0482 -0.4415
 4115TIP3    H233761   1.718   4.195   6.243  0.4166 -1.4341  1.9633
 4116TIP3   OH233762   5.419   5.260  12.186  0.1497 -0.0532  0.1014
 4116TIP3    H133763   5.335   5.300  12.207  0.3084 -0.7118  2.2691
 4116TIP3    H233764   5.456   5.314  12.116 -0.9072  1.7917  0.9243
 4117TIP3   OH233765   4.178   4.637   4.710  0.2111  0.3023 -0.0913
 4117TIP3    H133766   4.100   4.633   4.655  0.4234 -1.8440 -0.3428
 4117TIP3    H233767   4.251   4.625   4.649  0.4805 -1.5844  0.5271
 4118TIP3   OH233768   6.314   3.858  16.147  0.7384 -0.3400 -0.1134
 4118TIP3    H133769   6.398   3.814  16.145  1.0045  0.1764 -1.0045
 4118TIP3    H233770   6.321   3.922  16.218  0.4910 -1.4163  0.9163
 4119TIP3   OH233771   5.683   1.013  16.563 -0.0328 -0.0910 -0.0542
 4119TIP3    H133772   5.725   0.981  16.643  2.0044 -0.8176 -1.3325
 4119TIP3    H233773   5.589   1.005  16.581  0.3325  0.4103  2.4844
 4120TIP3   OH233774   5.125   3.603  15.914  0.1045  0.1056  0.0065
 4120TIP3    H133775   5.042   3.637  15.879 -0.5565 -2.7633 -1.4874
 4120TIP3    H233776   5.128   3.637  16.003 -1.8509  1.6527 -0.4303
 4121TIP3   OH233777   6.432   1.344  12.367  0.2685 -0.4066 -0.3551
 4121TIP3    H133778   6.401   1.352  12.458 -0.6190  0.9956 -0.7577
 4121TIP3    H233779   6.522   1.313  12.376 -0.1031 -1.2052  0.9695
 4122TIP3   OH233780   4.879   3.406  11.915 -0.0295 -0.3534 -0.7922
 4122TIP3    H133781   4.803   3.426  11.860 -0.9401 -1.1698  0.1053
 4122TIP3    H233782   4.952   3.397  11.854 -0.7878 -0.1611 -1.7454
 4123TIP3   OH233783   3.950   0.336   2.040 -0.1746 -0.2844  0.5816
 4123TIP3    H133784   3.958   0.258   2.096 -0.0290  0.9690  2.4064
 4123TIP3    H233785   4.021   0.393   2.068  0.4647  0.0597 -1.5643
 4124TIP3   OH233786   5.500   3.729   3.169 -0.1165 -0.4794  0.3385
 4124TIP3    H133787   5.569   3.773   3.219  1.1021 -0.5906 -1.1523
 4124TIP3    H233788   5.515   3.757   3.079 -1.8388 -0.7915 -0.0714
 4125TIP3   OH233789   4.937   3.414  11.499 -0.2621  0.0091  0.5100
 4125TIP3    H133790   4.884   3.493  11.483  0.7814  1.2423  2.6194
 4125TIP3    H233791   4.975   3.393  11.413  1.5081  3.4452  0.2565
 4126TIP3   OH233792   0.688   0.092   3.634 -0.2387  0.5005 -0.3149
 4126TIP3    H133793   0.656   0.182   3.631  1.8277  1.2613 -0.7133
 4126TIP3    H233794   0.645   0.054   3.711 -1.1293  1.8061 -0.1365
 4127TIP3   OH233795   5.580   5.907   4.911  0.0752  0.0493  0.0677
 4127TIP3    H133796   5.660   5.859   4.933 -1.0435 -1.4378  1.0892
 4127TIP3    H233797   5.511   5.840   4.909 -1.6024  1.6020  1.6998
 4128TIP3   OH233798   0.368   3.086  15.335 -0.0468 -0.3298  0.3118
 4128TIP3    H133799   0.290   3.140  15.320  0.9228  0.9370 -0.3556
 4128TIP3    H233800   0.333   2.999  15.355 -1.6129  0.0246 -0.6965
 4129TIP3   OH233801   5.244   2.282  13.424 -0.0408  0.0443 -0.7010
 4129TIP3    H133802   5.309   2.214  13.444  1.6361  1.1820 -1.9242
 4129TIP3    H233803   5.199   2.250  13.346 -0.0763 -0.1969 -0.5805
 4130TIP3   OH233804   3.310   1.231  13.527  0.6939  0.2467  0.5372
 4130TIP3    H133805   3.297   1.152  13.475 -0.4920  2.4547 -2.8634
 4130TIP3    H233806   3.221   1.257  13.554  1.0341  0.6139  1.3473
 4131TIP3   OH233807   2.962   3.520  11.794  0.6441 -0.1233 -0.4732
 4131TIP3    H133808   3.020   3.470  11.736 -0.9122 -0.0793 -2.1192
 4131TIP3    H233809   2.966   3.610  11.761  0.8746  0.2132  0.4342
 4132TIP3   OH233810   6.452   4.472  16.167 -0.1730  0.3065 -0.4135
 4132TIP3    H133811   6.508   4.543  16.136  0.6891  0.1933  0.8322
 4132TIP3    H233812   6.403   4.509  16.240 -0.0496 -0.2518 -0.0377
 4133TIP3   OH233813   1.767   0.267   1.332 -0.0431  0.1894 -0.2503
 4133TIP3    H133814   1.679   0.287   1.301 -0.2910  1.2877  1.0636
 4133TIP3    H233815   1.796   0.347   1.376  1.4177 -0.3198 -0.2210
 4134TIP3   OH233816   4.227   0.187  11.956  0.1427 -0.0091  0.3044
 4134TIP3    H133817   4.301   0.154  12.006  0.1803 -1.6018 -0.7509
 4134TIP3    H233818   4.212   0.276  11.991  1.1534 -0.4615  2.0006
 4135TIP3   OH233819   1.152   2.479   2.141 -0.1225 -1.0472  0.2237
 4135TIP3    H133820   1.190   2.501   2.226 -0.4578  0.5832 -0.0081
 4135TIP3    H233821   1.080   2.419   2.161 -1.6275  0.9977  1.3875
 4136TIP3   OH233822   4.719   6.678  13.144  0.2342 -0.3757 -0.5693
 4136TIP3    H133823   4.715   6.676  13.240 -0.2581  0.1688 -0.5744
 4136TIP3    H233824   4.700   6.588  13.117  0.4008 -0.5362 -0.1563
 4137TIP3   OH233825   0.599   6.495   3.300  0.1729 -0.5391  0.5500
 4137TIP3    H133826   0.553   6.529   3.223 -2.3068  0.9069  2.5046
 4137TIP3    H233827   0.686   6.534   3.295 -0.0154 -0.2457 -1.3235
 4138TIP3   OH233828   1.069   0.496   2.374  0.1541  0.5409  0.4531
 4138TIP3    H133829   1.033   0.577   2.338 -0.7600 -0.5084 -1.0506
 4138TIP3    H233830   0.993   0.442   2.394  0.8042 -0.6121 -0.1309
 4139TIP3   OH233831   0.684   1.403   1.574  0.0511  0.7887 -0.3327
 4139TIP3    H133832   0.595   1.373   1.558 -0.2426  1.0296  0.7435
 4139TIP3    H233833   0.705   1.460   1.500 -0.7010  0.7589 -0.5711
 4140TIP3   OH233834   5.346   0.560   2.986 -0.2920  0.4998  0.3329
 4140TIP3    H133835   5.315   0.581   2.897 -2.4437 -0.0880  0.8817
 4140TIP3    H233836   5.358   0.645   3.028  4.0640  1.0094 -1.4211
 4141TIP3   OH233837   2.756   4.509   1.028 -0.3679  0.2198  0.1803
 4141TIP3    H133838   2.699   4.585   1.027  0.9050  1.2019  0.2812
 4141TIP3    H233839   2.843   4.543   1.052  0.5840 -1.0065 -1.3136
 4142TIP3   OH233840   1.353   4.891  14.963  0.0360  0.3262 -0.4504
 4142TIP3    H133841   1.304   4.937  15.032  0.5688 -1.1395  0.9821
 4142TIP3    H233842   1.414   4.835  15.011  2.7125  1.5877 -2.1513
 4143TIP3   OH233843   1.614   1.208  15.074 -0.0514  0.0645  0.6783
 4143TIP3    H133844   1.527   1.169  15.062 -1.4682  2.2505  2.8469
 4143TIP3    H233845   1.618   1.278  15.008 -0.9446  1.4168  2.0031
 4144TIP3   OH233846   3.313   4.663   0.800  0.4130  0.6166 -0.2762
 4144TIP3    H133847   3.226   4.677   0.763 -1.3676 -2.1825  2.3399
 4144TIP3    H233848   3.305   4.694   0.890  1.6637 -0.8976  0.3995
 4145TIP3   OH233849   5.055   4.462  12.713  0.0326 -0.4103 -0.0791
 4145TIP3    H133850   5.123   4.520  12.679  0.1514  0.3380  1.4028
 4145TIP3    H233851   5.096   4.417  12.787 -1.5490  1.3029  1.9485
 4146TIP3   OH233852   3.480   0.837  15.433  0.1941 -0.4150  0.2345
 4146TIP3    H133853   3.424   0.882  15.496 -1.0509 -1.6454  0.0586
 4146TIP3    H233854   3.460   0.880  15.349  0.5165  0.0258  0.3777
 4147TIP3   OH233855   6.184   0.684  16.043  0.7141  0.3377 -0.2867
 4147TIP3    H133856   6.204   0.694  16.136 -0.4092 -1.8328  0.2527
 4147TIP3    H233857   6.270   0.676  16.001  1.2342  1.4654  0.5073
 4148TIP3   OH233858   3.520   1.642   4.694 -0.5719 -0.5190  0.9131
 4148TIP3    H133859   3.482   1.652   4.781 -0.8115 -0.3410  0.7914
 4148TIP3    H233860   3.446   1.656   4.634 -0.3468 -0.3289  0.6770
 4149TIP3   OH233861   4.144   0.549   2.980 -0.3245 -0.4162  0.2891
 4149TIP3    H133862   4.112   0.609   2.913 -0.0881 -0.9167 -0.2837
 4149TIP3    H233863   4.110   0.463   2.954  1.5647 -1.0039 -0.4438
 4150TIP3   OH233864   4.133   2.426  16.230 -0.0019  0.1825  0.3546
 4150TIP3    H133865   4.180   2.434  16.313 -1.3231  1.1462  1.0470
 4150TIP3    H233866   4.109   2.334  16.224  1.9510 -0.3432 -0.0380
 4151TIP3   OH233867   2.543   5.682   5.366  0.0141  0.3787  0.4516
 4151TIP3    H133868   2.505   5.769   5.362 -1.2797 -0.1954 -0.0743
 4151TIP3    H233869   2.564   5.660   5.275  0.0095  0.0073  0.5361
 4152TIP3   OH233870   2.200   0.350  16.079 -0.6640  0.2292  0.3499
 4152TIP3    H133871   2.162   0.282  16.024 -1.0634  0.9629 -0.2995
 4152TIP3    H233872   2.217   0.307  16.162 -1.7226 -0.4402  0.2326
 4153TIP3   OH233873   1.438   6.349   1.699  0.1763  0.1807  0.1858
 4153TIP3    H133874   1.431   6.255   1.714  0.0546  0.3760  1.4440
 4153TIP3    H233875   1.504   6.358   1.629 -0.4236 -0.8643 -0.5260
 4154TIP3   OH233876   3.552   1.092  12.172  0.1810 -0.6946 -0.5029
 4154TIP3    H133877   3.474   1.141  12.197  0.8046 -0.6849  1.6255
 4154TIP3    H233878   3.525   1.001  12.173  0.1355 -0.6784  0.0560
 4155TIP3   OH233879   3.517   5.980  11.487  0.1954  0.1726  0.2415
 4155TIP3    H133880   3.467   5.986  11.568 -1.0757 -2.1501 -0.2948
 4155TIP3    H233881   3.600   5.939  11.512 -0.2315 -0.6231  0.3673
 4156TIP3   OH233882   5.123   2.689   0.111 -0.5423  0.9353 -0.3212
 4156TIP3    H133883   5.044   2.737   0.136 -0.7168  0.3242  0.3284
 4156TIP3    H233884   5.153   2.648   0.192 -0.2205  0.2132 -0.8010
 4157TIP3   OH233885   2.695   3.034  15.752  0.3391 -0.0559  0.5027
 4157TIP3    H133886   2.628   2.994  15.809  0.1044 -0.6144 -0.1452
 4157TIP3    H233887   2.774   2.982  15.769  0.4522  0.2196  0.8254
 4158TIP3   OH233888   1.239   0.185  12.901 -0.5618 -0.3451 -0.2723
 4158TIP3    H133889   1.147   0.164  12.914 -0.5844 -1.6512 -2.0886
 4158TIP3    H233890   1.284   0.101  12.915  0.4037  0.3362  0.8657
 4159TIP3   OH233891   4.159   3.814  17.021 -0.9846  0.2336 -0.9580
 4159TIP3    H133892   4.215   3.857  17.086  0.4495 -0.1432 -1.8754
 4159TIP3    H233893   4.080   3.789  17.069 -0.5852  1.2383  0.2813
 4160TIP3   OH233894   4.341   5.811   3.697 -0.3061  0.3690 -0.4497
 4160TIP3    H133895   4.346   5.886   3.637 -2.0712  1.9822  1.2728
 4160TIP3    H233896   4.253   5.814   3.733 -0.0300 -1.8429  0.6246
 4161TIP3   OH233897   4.777   4.573  11.985  0.2060  0.4265  0.1463
 4161TIP3    H133898   4.853   4.630  11.997  1.1234 -0.6830 -0.1991
 4161TIP3    H233899   4.792   4.530  11.901 -1.2616  0.8430 -0.3541
 4162TIP3   OH233900   4.158   4.408   6.131 -0.1699  0.5666 -0.5203
 4162TIP3    H133901   4.197   4.490   6.160 -0.1917  0.9806 -1.6413
 4162TIP3    H233902   4.132   4.364   6.213  0.9354  1.1095  0.1511
 4163TIP3   OH233903   4.964   3.744  13.263 -0.0821  0.3079 -0.1229
 4163TIP3    H133904   4.935   3.824  13.306  1.8016  0.6242  0.6399
 4163TIP3    H233905   4.987   3.685  13.336  0.7065 -0.0845 -0.6756
 4164TIP3   OH233906   1.897   4.398   4.720 -0.0613  0.6108  0.1558
 4164TIP3    H133907   1.927   4.440   4.639  0.9936  0.6003  0.5190
 4164TIP3    H233908   1.827   4.339   4.693 -0.3519  1.2897 -0.6158
 4165TIP3   OH233909   2.252   2.407   2.856 -0.2718  0.2437 -0.2662
 4165TIP3    H133910   2.314   2.447   2.795  1.7914  1.3679  2.3957
 4165TIP3    H233911   2.293   2.324   2.881 -0.9278 -0.0502 -0.1527
 4166TIP3   OH233912   2.312   0.623  15.590 -0.4530  0.4725 -0.4819
 4166TIP3    H133913   2.254   0.590  15.659 -0.1334 -0.5976 -0.7092
 4166TIP3    H233914   2.254   0.672  15.532 -1.0693 -0.2238 -0.4768
 4167TIP3   OH233915   1.247   1.241   3.640  0.3318  0.2155  0.6970
 4167TIP3    H133916   1.335   1.223   3.607  0.3134 -0.8924  1.1921
 4167TIP3    H233917   1.199   1.159   3.626 -0.1588  0.2797  1.8615
 4168TIP3   OH233918   4.122   4.586  14.893  0.7836 -0.0251 -0.2080
 4168TIP3    H133919   4.129   4.555  14.803 -1.6917  1.5856 -1.0387
 4168TIP3    H233920   4.202   4.636  14.907  0.8249  0.4058 -1.8108
 4169TIP3   OH233921   6.493   6.295   1.254  0.0517 -0.4419 -0.2144
 4169TIP3    H133922   6.556   6.267   1.188  3.2271 -0.4270  2.5112
 4169TIP3    H233923   6.411   6.253   1.229  1.3723 -1.3631 -3.4331
 4170TIP3   OH233924   0.095   2.693  12.954 -0.2839  0.1961 -0.7253
 4170TIP3    H133925   0.046   2.682  13.036 -0.9580  0.4147 -1.0895
 4170TIP3    H233926   0.182   2.722  12.982 -0.0434 -1.1196 -0.0110
 4171TIP3   OH233927   5.093   3.749   1.230  0.4331  0.0284 -0.0802
 4171TIP3    H133928   5.111   3.711   1.144  0.4321  1.2781 -0.6507
 4171TIP3    H233929   5.131   3.837   1.226 -0.7400  0.5978  0.7273
 4172TIP3   OH233930   6.430   1.004  16.256 -0.2600  0.4118 -0.0583
 4172TIP3    H133931   6.397   0.956  16.332  0.2072 -0.7364 -0.5598
 4172TIP3    H233932   6.502   1.057  16.290 -0.6764  0.6374  0.4791
 4173TIP3   OH233933   0.981   4.427   3.898  0.5546 -0.4078  0.6131
 4173TIP3    H133934   0.926   4.349   3.910 -2.5375  1.5165  0.1547
 4173TIP3    H233935   0.965   4.480   3.976 -0.5953  1.4440 -0.7788
 4174TIP3   OH233936   1.192   2.960   2.426  0.3682 -0.2040 -0.3322
 4174TIP3    H133937   1.165   3.001   2.344  1.3089 -0.7350 -0.9241
 4174TIP3    H233938   1.281   2.992   2.440  0.4566 -0.6410  0.1306
 4175TIP3   OH233939   1.535   5.243  13.820 -0.5704  0.0999 -0.8598
 4175TIP3    H133940   1.471   5.315  13.817 -0.0921  0.5874  0.4417
 4175TIP3    H233941   1.570   5.245  13.909 -0.7782 -1.9579 -0.6932
 4176TIP3   OH233942   0.055   0.163   0.696  0.7870 -0.2901  0.2520
 4176TIP3    H133943   0.054   0.190   0.604 -2.7874  0.6457  0.4325
 4176TIP3    H233944   0.057   0.067   0.693 -0.8326 -0.3132 -0.8710
 4177TIP3   OH233945   6.791   4.510  10.462  0.6554  0.2335  0.1681
 4177TIP3    H133946   6.757   4.512  10.552  1.0029 -0.7888  0.3426
 4177TIP3    H233947   6.714   4.525  10.407  0.3434  0.3467  0.6292
 4178TIP3   OH233948   6.728   5.836  11.911  0.3405  0.1128  0.0449
 4178TIP3    H133949   6.787   5.788  11.969  1.1126 -0.1715 -0.9561
 4178TIP3    H233950   6.668   5.769  11.877 -0.1795  0.2970  0.5656
 4179TIP3   OH233951   6.202   2.283  13.971 -0.1466 -0.0846  0.3514
 4179TIP3    H133952   6.198   2.241  14.056  1.6060  1.4040  1.2359
 4179TIP3    H233953   6.134   2.350  13.973 -1.5238 -1.4056 -0.2700
 4180TIP3   OH233954   2.006   5.924  14.340 -0.0558  0.3636  0.4085
 4180TIP3    H133955   2.043   5.937  14.253  1.2386  0.4907  0.9496
 4180TIP3    H233956   2.053   5.986  14.396  0.3272 -0.8703  1.5034
 4181TIP3   OH233957   1.599   6.221  12.147 -0.3147  0.3040 -0.2463
 4181TIP3    H133958   1.594   6.232  12.052  0.4174  0.5345 -0.2674
 4181TIP3    H233959   1.524   6.166  12.169  0.4000 -1.0936 -1.1722
 4182TIP3   OH233960   0.387   0.857   1.699  0.2717 -0.4105  0.1246
 4182TIP3    H133961   0.305   0.846   1.747  0.5917 -0.9066  0.5706
 4182TIP3    H233962   0.437   0.921   1.750 -0.2047  0.6050 -0.6465
 4183TIP3   OH233963   2.081   4.552  15.421  0.3974 -0.0213  0.1307
 4183TIP3    H133964   2.103   4.552  15.328 -0.0986 -0.0225  0.0063
 4183TIP3    H233965   2.015   4.483  15.429  0.4540 -0.0325  0.4840
 4184TIP3   OH233966   0.412   3.182  12.172 -0.1013 -0.3222 -0.1431
 4184TIP3    H133967   0.332   3.214  12.129  0.6310 -1.4631 -2.5433
 4184TIP3    H233968   0.481   3.240  12.139  0.3083 -0.4104  0.5520
 4185TIP3   OH233969   0.246   4.642  14.740  0.7879 -0.4815 -0.2497
 4185TIP3    H133970   0.277   4.615  14.827  0.5069  1.2550  0.4428
 4185TIP3    H233971   0.290   4.726  14.724  1.8955 -1.3940 -2.4261
 4186TIP3   OH233972   4.420   4.169  16.335  0.7417 -0.4443 -0.2719
 4186TIP3    H133973   4.427   4.193  16.428  0.5555 -3.6144  0.6495
 4186TIP3    H233974   4.361   4.235  16.298  1.5998  1.4875  1.5909
 4187TIP3   OH233975   6.718   0.878   3.322  0.3798  0.2242 -0.4593
 4187TIP3    H133976   6.732   0.941   3.393 -1.6398  1.4987 -1.0957
 4187TIP3    H233977   6.723   0.792   3.364  0.6318  0.8957  0.9382
 4188TIP3   OH233978   2.481   0.128   0.864 -0.0443 -0.3168 -0.6383
 4188TIP3    H133979   2.564   0.096   0.828 -0.1016 -0.1995 -0.8705
 4188TIP3    H233980   2.495   0.126   0.959  0.8780  1.4094 -0.6951
 4189TIP3   OH233981   2.471   0.483   2.953 -0.0416 -0.3337 -0.3130
 4189TIP3    H133982   2.442   0.409   2.898 -1.7228 -1.7443  2.2620
 4189TIP3    H233983   2.525   0.443   3.020 -1.3405  0.6603  1.3988
 4190TIP3   OH233984   0.733   5.069  15.632 -0.3027 -0.1191 -0.2356
 4190TIP3    H133985   0.640   5.093  15.636 -0.3815 -0.3345 -0.8119
 4190TIP3    H233986   0.776   5.149  15.602 -0.5690 -0.6696 -2.1807
 4191TIP3   OH233987   2.176   6.736  14.133 -0.0396  0.2056 -0.2129
 4191TIP3    H133988   2.268   6.735  14.160 -0.7724  0.2657  2.6683
 4191TIP3    H233989   2.138   6.660  14.177 -1.1492 -0.6555 -2.4970
 4192TIP3   OH233990   2.051   4.671  11.319 -0.1822  0.1578  0.5737
 4192TIP3    H133991   1.997   4.686  11.397 -2.0260 -0.5482 -0.5058
 4192TIP3    H233992   2.040   4.751  11.267 -0.3519 -0.0719  0.2549
 4193TIP3   OH233993   2.147   5.949  15.394  0.0854 -0.4027  0.3765
 4193TIP3    H133994   2.198   5.997  15.329 -0.3151 -1.3681 -0.6881
 4193TIP3    H233995   2.085   5.897  15.342 -2.1694  0.8956  1.5994
 4194TIP3   OH233996   4.424   0.234  17.173 -0.1881  0.0828 -0.6650
 4194TIP3    H133997   4.448   0.157  17.122  0.4672 -0.9279  1.0765
 4194TIP3    H233998   4.491   0.299  17.151  1.3378 -1.0461  0.4279
 4195TIP3   OH233999   0.560   6.090   1.062 -0.2483  0.9714  0.0754
 4195TIP3    H134000   0.552   6.185   1.050 -1.9645  0.6017 -2.5016
 4195TIP3    H234001   0.546   6.054   0.975  0.3098 -1.7014  1.0013
 4196TIP3   OH234002   0.836   0.502   4.023  0.0962  0.4027 -0.1609
 4196TIP3    H134003   0.924   0.537   4.038  0.3711  0.9405 -2.5884
 4196TIP3    H234004   0.778   0.576   4.042  0.2868  0.4990  0.0473
 4197TIP3   OH234005   1.234   1.250  16.939  0.1039  0.0797 -0.7435
 4197TIP3    H134006   1.224   1.157  16.920  0.7282  0.0975 -1.1966
 4197TIP3    H234007   1.213   1.259  17.032  0.3138 -0.5533 -0.6372
 4198TIP3   OH234008   0.699   4.453  14.686  0.0905 -0.0870  0.5279
 4198TIP3    H134009   0.751   4.435  14.765  0.1376 -0.3493  0.4376
 4198TIP3    H234010   0.654   4.371  14.668  0.8638 -0.3469 -0.3090
 4199TIP3   OH234011   6.039   1.918   0.641  0.9337  0.2209  0.2917
 4199TIP3    H134012   6.106   1.851   0.655  0.6333  0.3211  2.4081
 4199TIP3    H234013   5.959   1.880   0.675  0.2773  0.8177 -0.5440
 4200TIP3   OH234014   3.034   3.005   4.862 -0.0418 -0.3938 -0.4246
 4200TIP3    H134015   3.019   2.939   4.930 -0.9042 -0.2870 -0.4959
 4200TIP3    H234016   3.102   2.967   4.806 -0.7716 -1.3775 -0.6646
 4201TIP3   OH234017   5.642   1.480  16.156 -0.7095 -0.0594 -0.1291
 4201TIP3    H134018   5.608   1.397  16.123 -0.1416 -1.1518  1.8332
 4201TIP3    H234019   5.728   1.489  16.115 -0.6704 -0.5773 -0.1656
 4202TIP3   OH234020   4.083   1.799  11.608 -0.1289 -0.2470  0.0244
 4202TIP3    H134021   4.081   1.751  11.525  0.0249 -0.1824 -0.0154
 4202TIP3    H234022   4.174   1.793  11.637  0.3752  1.7668 -0.9979
 4203TIP3   OH234023   1.642   1.019   3.885 -0.3128 -0.8202  0.1736
 4203TIP3    H134024   1.713   1.026   3.821  1.2889  2.1911  2.0225
 4203TIP3    H234025   1.581   1.088   3.861 -1.0072 -1.3182  0.4679
 4204TIP3   OH234026   3.788   2.673   0.351 -0.3597 -0.1914  0.3805
 4204TIP3    H134027   3.866   2.707   0.306  0.7249  0.0963  2.3670
 4204TIP3    H234028   3.796   2.577   0.343  0.2786 -0.1686  0.6901
 4205TIP3   OH234029   4.055   4.043   0.410 -0.5321  0.8657 -0.3179
 4205TIP3    H134030   4.140   4.087   0.417 -0.0311  0.3716 -2.5491
 4205TIP3    H234031   4.042   4.032   0.316 -0.1271 -4.5808 -0.0389
 4206TIP3   OH234032   5.473   0.955  13.780 -0.1058  0.3652 -0.0710
 4206TIP3    H134033   5.544   0.891  13.787  0.4485  1.1251  1.4792
 4206TIP3    H234034   5.507   1.022  13.721 -0.8714 -0.9153 -2.1188
 4207TIP3   OH234035   0.292   4.360  16.390  0.3937  0.6275  0.0942
 4207TIP3    H134036   0.314   4.432  16.449 -3.1365 -0.0470  2.5557
 4207TIP3    H234037   0.218   4.393  16.338 -0.2540 -0.6755  0.1450
 4208TIP3   OH234038   2.958   6.009   1.020 -0.2706 -0.3240 -0.3740
 4208TIP3    H134039   2.932   6.033   0.931  1.3600  0.4537 -0.6816
 4208TIP3    H234040   3.019   5.936   1.008 -0.6838 -0.7769  0.1812
 4209TIP3   OH234041   6.361   3.791   1.418  0.2648 -0.8156 -0.0030
 4209TIP3    H134042   6.289   3.733   1.396  0.5635 -1.1581 -0.0741
 4209TIP3    H234043   6.377   3.775   1.511  0.9198 -1.4876 -0.2219
 4210TIP3   OH234044   2.732   1.715  16.368 -0.5297  0.1752 -0.3711
 4210TIP3    H134045   2.821   1.720  16.332 -0.1645 -2.1987  0.0260
 4210TIP3    H234046   2.702   1.805  16.370  2.1199  1.1406  0.0851
 4211TIP3   OH234047   0.411   4.235   4.247 -0.2842 -0.1830  0.4331
 4211TIP3    H134048   0.399   4.319   4.291 -4.1549 -1.0562  1.4527
 4211TIP3    H234049   0.467   4.185   4.307  1.5395  1.3676  0.1165
 4212TIP3   OH234050   1.828   4.325   1.677  0.3006  0.0183  0.0879
 4212TIP3    H134051   1.734   4.311   1.662  0.1348  1.3989 -0.3080
 4212TIP3    H234052   1.847   4.275   1.755 -0.3764 -1.7171 -0.8032
 4213TIP3   OH234053   5.687   3.710  15.484  0.1597  0.2508  0.0715
 4213TIP3    H134054   5.704   3.728  15.391  0.0103 -0.8191 -0.1865
 4213TIP3    H234055   5.758   3.755  15.530 -0.1954  1.4315 -0.4975
 4214TIP3   OH234056   1.595   0.436  11.844 -0.3829  0.1637 -0.5007
 4214TIP3    H134057   1.526   0.396  11.791 -1.7130 -0.5089  1.6423
 4214TIP3    H234058   1.658   0.365  11.858 -1.2477 -0.3811  0.7933
 4215TIP3   OH234059   3.205   0.513   3.197  0.1356  0.4800 -0.1337
 4215TIP3    H134060   3.251   0.477   3.121  0.5945  0.2876  0.2261
 4215TIP3    H234061   3.118   0.536   3.165 -0.5259 -1.8630 -0.1607
 4216TIP3   OH234062   3.378   3.661  15.639  0.0861 -0.2303 -0.2413
 4216TIP3    H134063   3.338   3.746  15.621  2.7318  1.3744  0.8088
 4216TIP3    H234064   3.327   3.626  15.712 -0.8969  0.5657 -0.5204
 4217TIP3   OH234065   4.445   5.697   1.849  0.7665 -0.1686 -0.5103
 4217TIP3    H134066   4.504   5.679   1.776 -0.0874  0.3987 -1.3583
 4217TIP3    H234067   4.463   5.627   1.912  0.9859 -1.1055 -1.5886
 4218TIP3   OH234068   4.906   1.991   3.332 -0.3026 -0.2334  0.4973
 4218TIP3    H134069   4.947   2.069   3.369 -1.1526  0.5967 -0.2435
 4218TIP3    H234070   4.954   1.918   3.371  1.5474  0.6689  0.0232
 4219TIP3   OH234071   0.994   0.385   4.628 -0.0188  0.0447 -0.2800
 4219TIP3    H134072   0.980   0.477   4.652 -0.9988 -0.3036  0.5620
 4219TIP3    H234073   0.976   0.336   4.709 -0.9565 -0.9888 -1.0840
 4220TIP3   OH234074   1.647   6.411  13.731  0.2286 -0.1394  0.1677
 4220TIP3    H134075   1.582   6.464  13.685  0.1664  0.1501  0.5872
 4220TIP3    H234076   1.604   6.327  13.745 -0.2590  0.2197  0.9159
 4221TIP3   OH234077   3.163   6.541  15.968 -0.0823  0.2106  0.6234
 4221TIP3    H134078   3.224   6.485  16.017 -0.5019  1.0880  2.2093
 4221TIP3    H234079   3.077   6.503  15.984  0.0037 -1.3719 -2.0834
 4222TIP3   OH234080   4.527   0.218  13.985  0.5385  0.7699  0.0455
 4222TIP3    H134081   4.583   0.200  13.909  0.2581 -2.4022  0.4807
 4222TIP3    H234082   4.438   0.211  13.951  0.3904 -1.7669  0.7829
 4223TIP3   OH234083   0.325   1.656  13.404  0.6323  0.5596  0.5837
 4223TIP3    H134084   0.380   1.650  13.482  1.4621  0.5011  0.0086
 4223TIP3    H234085   0.268   1.731  13.421  0.2632  0.0711  1.5742
 4224TIP3   OH234086   2.548   2.152  10.755 -0.0591 -0.2789 -0.0042
 4224TIP3    H134087   2.526   2.092  10.684  3.5702 -1.8211 -0.0751
 4224TIP3    H234088   2.521   2.238  10.723 -2.2905 -1.4081 -1.3886
 4225TIP3   OH234089   5.859   3.498   5.385 -0.0327  0.3077  0.1966
 4225TIP3    H134090   5.765   3.483   5.398  0.2319 -0.0436  1.9387
 4225TIP3    H234091   5.866   3.591   5.366 -0.6378  0.6553  1.5463
 4226TIP3   OH234092   3.990   4.186  16.592 -0.0793 -0.0375  0.5412
 4226TIP3    H134093   4.086   4.197  16.590 -0.0991  2.0382  3.5550
 4226TIP3    H234094   3.976   4.106  16.642  0.0477 -0.6767 -0.4230
 4227TIP3   OH234095   0.886   6.313  13.518 -0.0902  0.4437 -0.1431
 4227TIP3    H134096   0.946   6.306  13.593  2.0826 -1.3942 -1.9092
 4227TIP3    H234097   0.928   6.262  13.449 -2.8736  0.5864 -2.0950
 4228TIP3   OH234098   4.726   1.035   6.095 -0.2598 -0.5166 -1.0389
 4228TIP3    H134099   4.709   0.941   6.090  1.0519 -0.8357  0.0024
 4228TIP3    H234100   4.704   1.058   6.185  0.9764 -0.1652 -0.8145
 4229TIP3   OH234101   0.598   1.534  12.934  0.1954  0.2565  0.2981
 4229TIP3    H134102   0.612   1.447  12.896  1.1901  0.6110 -0.1683
 4229TIP3    H234103   0.525   1.570  12.885 -1.1404 -0.8183  1.3878
 4230TIP3   OH234104   6.627   4.896   3.294  0.0962 -0.3264  0.4711
 4230TIP3    H134105   6.621   4.829   3.225 -2.0067 -1.4975  1.7039
 4230TIP3    H234106   6.666   4.971   3.250 -1.2755 -0.9840 -2.0498
 4231TIP3   OH234107   0.393   3.659  12.598 -0.1939 -0.4715 -0.0010
 4231TIP3    H134108   0.395   3.724  12.668  0.5189  0.1002 -0.5203
 4231TIP3    H234109   0.315   3.681  12.547 -0.4099 -0.5440  0.2951
 4232TIP3   OH234110   5.107   5.550  15.104 -0.0198  0.1733  0.2438
 4232TIP3    H134111   5.130   5.468  15.148  1.8033 -1.5327 -3.4440
 4232TIP3    H234112   5.180   5.608  15.124  0.5704 -0.4284 -0.1119
 4233TIP3   OH234113   6.288   6.016  10.966  0.0082 -0.4016 -0.2277
 4233TIP3    H134114   6.342   6.091  10.941  0.7310 -0.9843 -0.4448
 4233TIP3    H234115   6.200   6.039  10.936 -0.0174  0.8495  0.7271
 4234TIP3   OH234116   0.287   6.505   0.385  0.1052 -0.5822 -0.0343
 4234TIP3    H134117   0.305   6.524   0.477  1.6607 -0.0739 -0.4112
 4234TIP3    H234118   0.349   6.436   0.362  0.4403 -0.0010 -0.9556
 4235TIP3   OH234119   3.090   1.778  13.809  0.3410  0.7433 -0.7149
 4235TIP3    H134120   3.138   1.757  13.889  1.4156  2.0290 -0.9780
 4235TIP3    H234121   3.013   1.827  13.838 -0.1492 -0.2075 -0.3753
 4236TIP3   OH234122   0.682   4.337   2.602 -0.0233 -0.2580 -0.1569
 4236TIP3    H134123   0.712   4.395   2.532 -0.7406  0.1793 -0.1120
 4236TIP3    H234124   0.659   4.256   2.557 -0.0660 -0.1284 -0.3738
 4237TIP3   OH234125   1.415   0.674   6.061 -0.3437 -0.3266 -0.0370
 4237TIP3    H134126   1.489   0.619   6.033  0.8074 -0.1915  2.4515
 4237TIP3    H234127   1.438   0.762   6.030 -0.2311 -0.5603 -0.6208
 4238TIP3   OH234128   0.878   2.385  16.392 -0.6255  0.2943 -0.2536
 4238TIP3    H134129   0.791   2.344  16.387 -1.1401  0.8394  2.5551
 4238TIP3    H234130   0.923   2.338  16.462  0.9371  0.8370 -0.8391
 4239TIP3   OH234131   2.813   3.337   2.081  0.1946 -0.2521  0.4826
 4239TIP3    H134132   2.888   3.278   2.092  0.7269  0.5589  1.4141
 4239TIP3    H234133   2.852   3.417   2.045 -0.0302  0.5582  1.9636
 4240TIP3   OH234134   1.846   4.112  11.983  0.5772 -0.0529 -0.3659
 4240TIP3    H134135   1.782   4.123  11.913  0.7520  0.2498 -0.4807
 4240TIP3    H234136   1.812   4.165  12.055  0.5285 -0.1588 -0.3105
 4241TIP3   OH234137   3.356   1.693   4.477 -0.2665  0.4120 -0.1548
 4241TIP3    H134138   3.369   1.756   4.406  0.1370  0.1501 -0.3183
 4241TIP3    H234139   3.377   1.608   4.437 -0.6465  0.1914  0.1078
 4242TIP3   OH234140   0.289   1.754  14.560  0.4681  0.0383 -0.2035
 4242TIP3    H134141   0.384   1.743  14.566  0.5715 -0.0479 -1.6798
 4242TIP3    H234142   0.271   1.758  14.467 -0.7367  2.3061  0.0527
 4243TIP3   OH234143   2.326   4.065   2.770  0.3602  0.8585  0.5142
 4243TIP3    H134144   2.385   3.997   2.803 -0.1731 -0.3058 -0.8413
 4243TIP3    H234145   2.244   4.019   2.754 -0.5024  2.1668  1.0243
 4244TIP3   OH234146   6.526   4.240   4.051  0.0906 -0.7831 -0.7378
 4244TIP3    H134147   6.523   4.156   4.005 -0.4232 -1.6413  0.7927
 4244TIP3    H234148   6.441   4.246   4.094 -0.7792  1.6019 -2.5995
 4245TIP3   OH234149   3.822   0.935   0.230 -0.1768 -0.3647  0.3749
 4245TIP3    H134150   3.767   1.013   0.221  0.2092 -0.2668 -1.3021
 4245TIP3    H234151   3.793   0.877   0.160 -0.5246 -1.8021  1.6654
 4246TIP3   OH234152   1.805   5.766   5.469 -0.1405 -0.2523  0.0043
 4246TIP3    H134153   1.868   5.832   5.439  0.5514 -0.4551  0.9461
 4246TIP3    H234154   1.810   5.770   5.565  0.7464 -2.4192  0.1054
 4247TIP3   OH234155   4.105   1.439  13.698 -0.5658  0.2089  0.1746
 4247TIP3    H134156   4.150   1.522  13.683 -1.2640  0.4289 -0.8112
 4247TIP3    H234157   4.013   1.458  13.681 -0.5461 -1.1315 -1.7186
 4248TIP3   OH234158   5.254   1.245  15.046 -0.1181 -0.2441  0.3868
 4248TIP3    H134159   5.341   1.204  15.045 -0.1181 -0.2510 -0.8044
 4248TIP3    H234160   5.234   1.261  14.954 -1.3512 -0.1591  0.6513
 4249TIP3   OH234161   5.656   3.062  12.851 -0.0106  0.0714 -0.6889
 4249TIP3    H134162   5.693   2.988  12.900 -0.3904  0.4303  0.1549
 4249TIP3    H234163   5.731   3.114  12.825  0.1125  0.6324  0.7471
 4250TIP3   OH234164   3.685   0.516   0.799  0.2754  0.4237 -0.0042
 4250TIP3    H134165   3.597   0.504   0.834 -0.4028 -1.0192 -2.0451
 4250TIP3    H234166   3.729   0.571   0.864 -1.3179 -0.8824  2.3194
 4251TIP3   OH234167   0.149   1.812   6.178 -0.5130  0.6921  1.1579
 4251TIP3    H134168   0.095   1.850   6.247  0.8043  0.7821  2.1850
 4251TIP3    H234169   0.211   1.755   6.224 -1.3538 -1.4371 -0.2030
 4252TIP3   OH234170   3.731   4.586   5.950 -0.5457 -0.3462 -0.0276
 4252TIP3    H134171   3.677   4.660   5.979 -0.7052 -1.0571  1.6294
 4252TIP3    H234172   3.733   4.527   6.026 -0.8950 -2.3251 -1.4911
 4253TIP3   OH234173   4.590   0.760   3.581  0.3620  0.5360  0.0596
 4253TIP3    H134174   4.598   0.836   3.524  0.5500  1.2232  0.9819
 4253TIP3    H234175   4.531   0.701   3.535  1.4025  0.5603 -1.3774
 4254TIP3   OH234176   3.530   5.855   2.636 -0.4706  0.0066  0.4248
 4254TIP3    H134177   3.447   5.898   2.619  0.3257  1.7485  0.7101
 4254TIP3    H234178   3.512   5.793   2.706 -1.5089  0.4263  0.5363
 4255TIP3   OH234179   5.956   2.244  16.207 -0.0727  0.6657  0.3235
 4255TIP3    H134180   5.872   2.267  16.166  1.2188  3.3513 -1.0421
 4255TIP3    H234181   6.014   2.317  16.185  2.7071 -1.1973  1.0693
 4256TIP3   OH234182   3.506   0.915  15.133  0.2737  0.2458 -0.0341
 4256TIP3    H134183   3.440   0.959  15.188  1.1158  1.6262 -0.0723
 4256TIP3    H234184   3.465   0.909  15.047 -0.5740 -0.7836  0.4174
 4257TIP3   OH234185   6.512   6.376  11.495  0.4955 -0.2346 -0.3846
 4257TIP3    H134186   6.535   6.339  11.410 -0.8875 -0.5804 -0.6378
 4257TIP3    H234187   6.511   6.470  11.481  1.6338 -0.2133 -0.3782
 4258TIP3   OH234188   1.484   6.328  16.030  0.1155 -0.0874 -0.5282
 4258TIP3    H134189   1.546   6.363  15.965 -0.6720 -0.1336 -1.3169
 4258TIP3    H234190   1.470   6.238  16.004 -1.0869  0.2213 -0.9715
 4259TIP3   OH234191   5.383   5.171   4.274 -0.0487  0.4020 -0.0607
 4259TIP3    H134192   5.415   5.252   4.234 -3.2714  1.2741 -1.2258
 4259TIP3    H234193   5.370   5.193   4.366  0.6545  0.6639 -0.0181
 4260TIP3   OH234194   5.038   1.727   0.967 -0.6892  0.0839 -0.2881
 4260TIP3    H134195   4.969   1.699   1.027  0.1711 -1.0842  0.1886
 4260TIP3    H234196   5.118   1.689   1.002  0.3467  1.9697 -0.4310
 4261TIP3   OH234197   4.893   1.554   5.442  0.1925 -0.6055 -0.0232
 4261TIP3    H134198   4.983   1.538   5.468  0.3753 -0.9539 -0.8435
 4261TIP3    H234199   4.899   1.620   5.373 -0.1250 -1.1273 -0.5534
 4262TIP3   OH234200   6.160   2.756  14.424 -0.4912  0.7441 -0.0317
 4262TIP3    H134201   6.230   2.812  14.458  0.4657 -1.6488  2.4116
 4262TIP3    H234202   6.089   2.766  14.487 -0.7657  0.1950 -0.2441
 4263TIP3   OH234203   5.732   2.476   5.634 -0.0824 -0.1814  0.0792
 4263TIP3    H134204   5.721   2.533   5.711  0.3230 -1.9052  1.4898
 4263TIP3    H234205   5.764   2.534   5.565 -0.4460  1.4310  1.2098
 4264TIP3   OH234206   0.101   4.930  11.311  0.0588 -0.0360  0.1933
 4264TIP3    H134207   0.073   4.918  11.221 -0.7851  0.7012  0.3397
 4264TIP3    H234208   0.174   4.992  11.305 -1.4552  1.8555  0.1514
 4265TIP3   OH234209   5.817   3.434   2.800 -0.4024  0.1879 -0.2662
 4265TIP3    H134210   5.778   3.499   2.742  0.8182  0.2609 -1.0353
 4265TIP3    H234211   5.893   3.478   2.838 -1.4097  0.3016  1.7669
 4266TIP3   OH234212   6.366   0.202   3.682 -0.6237  0.7422  0.3722
 4266TIP3    H134213   6.307   0.132   3.656 -1.0353  0.8302  1.0656
 4266TIP3    H234214   6.353   0.270   3.616 -0.2714  0.2050 -0.2663
 4267TIP3   OH234215   6.508   3.598  10.430  0.5343 -0.9765  0.5592
 4267TIP3    H134216   6.534   3.675  10.481  0.0738 -1.2933  1.2934
 4267TIP3    H234217   6.421   3.620  10.396  1.4156 -0.2084 -1.2841
 4268TIP3   OH234218   6.694   1.516  12.642  0.1897  0.3610 -0.3250
 4268TIP3    H134219   6.739   1.432  12.646  0.3098  0.4721  1.7498
 4268TIP3    H234220   6.602   1.495  12.661  0.2191  0.6835  0.1969
 4269TIP3   OH234221   4.246   5.858   3.070  0.4543 -0.6882 -0.3931
 4269TIP3    H134222   4.167   5.868   3.018 -0.5866 -0.1758  1.2078
 4269TIP3    H234223   4.264   5.946   3.104  2.3802 -0.5594 -1.6288
 4270TIP3   OH234224   4.816   2.529   0.358  0.3204 -0.2072  0.3180
 4270TIP3    H134225   4.766   2.554   0.435 -1.1034  0.0584 -0.6467
 4270TIP3    H234226   4.824   2.609   0.307  0.4419 -0.5700 -0.2456
 4271TIP3   OH234227   2.808   4.593   6.574 -0.0446 -0.8655  1.1502
 4271TIP3    H134228   2.831   4.560   6.487 -0.2793 -1.3977  1.2892
 4271TIP3    H234229   2.886   4.640   6.603  0.4447 -1.6404  1.1186
 4272TIP3   OH234230   4.210   0.942   4.566 -0.5338  0.0801 -0.2175
 4272TIP3    H134231   4.119   0.923   4.589 -0.6378  0.8913  0.0905
 4272TIP3    H234232   4.246   0.985   4.644  0.5642 -1.5785  0.2324
 4273TIP3   OH234233   1.123   0.808  10.822  0.0590 -0.2188 -0.1505
 4273TIP3    H134234   1.188   0.878  10.816 -0.9672  0.9042  1.1519
 4273TIP3    H234235   1.072   0.830  10.900 -1.1924 -1.6606 -0.5273
 4274TIP3   OH234236   2.479   0.745   3.762  0.2886  0.4616 -0.4841
 4274TIP3    H134237   2.569   0.721   3.783  0.1932 -0.9855 -1.6187
 4274TIP3    H234238   2.439   0.665   3.729 -1.8718  0.6935  1.3447
 4275TIP3   OH234239   2.069   0.105  15.986  0.1724 -0.0959  0.0057
 4275TIP3    H134240   1.986   0.069  15.954  0.5572 -0.9080 -0.1184
 4275TIP3    H234241   2.089   0.053  16.064 -0.8387  1.9736  1.7332
 4276TIP3   OH234242   2.877   5.732   5.423 -0.2102 -0.3637  0.5157
 4276TIP3    H134243   2.963   5.770   5.403  0.6992 -1.8456  1.4495
 4276TIP3    H234244   2.826   5.805   5.457 -0.2022  1.1277 -2.3777
 4277TIP3   OH234245   1.680   1.765  13.787 -0.4946 -0.8292 -0.1937
 4277TIP3    H134246   1.710   1.757  13.878 -1.7003 -1.8643  0.1472
 4277TIP3    H234247   1.587   1.786  13.795  0.1351  3.0206 -1.2080
 4278TIP3   OH234248   5.426   2.802   1.014  0.1770  0.3423 -0.3274
 4278TIP3    H134249   5.404   2.740   1.084 -0.5613  0.9238 -0.0366
 4278TIP3    H234250   5.461   2.879   1.060 -1.9867  1.4677 -0.4262
 4279TIP3   OH234251   2.619   0.076  12.754 -0.0184  0.4479  0.1601
 4279TIP3    H134252   2.663  -0.001  12.791  1.6089  1.5335  0.5956
 4279TIP3    H234253   2.660   0.087  12.668 -1.0837  0.1503 -0.3904
 4280TIP3   OH234254   1.681   2.587   1.400  0.2141 -0.1826  0.3294
 4280TIP3    H134255   1.678   2.654   1.469  2.5157  1.1245 -0.7258
 4280TIP3    H234256   1.750   2.526   1.428 -0.1909 -0.7497  0.1116
 4281TIP3   OH234257   5.747   5.250   5.901 -0.7170 -0.2697 -0.2482
 4281TIP3    H134258   5.767   5.337   5.867 -1.1602 -0.9259 -2.3120
 4281TIP3    H234259   5.814   5.234   5.968 -1.1370  1.9559  0.8035
 4282TIP3   OH234260   2.556   2.019   3.843 -0.2313  0.2173 -0.5150
 4282TIP3    H134261   2.473   1.973   3.831 -0.0863  0.2523 -1.7031
 4282TIP3    H234262   2.554   2.047   3.935 -0.7461 -1.2880 -0.0387
 4283TIP3   OH234263   2.214   3.658  12.563 -0.1003  0.3599  0.1906
 4283TIP3    H134264   2.138   3.630  12.511 -0.5986  1.2482  0.4191
 4283TIP3    H234265   2.228   3.586  12.624 -2.4727  1.2594  1.9671
 4284TIP3   OH234266   6.719   1.235   4.855 -0.4938  0.0751  0.3072
 4284TIP3    H134267   6.672   1.295   4.798 -0.0832  0.9068  0.8256
 4284TIP3    H234268   6.652   1.173   4.885 -0.8963  0.1937 -0.3188
 4285TIP3   OH234269   4.547   3.012   3.832 -0.2116 -0.0289  0.1471
 4285TIP3    H134270   4.560   3.058   3.749  1.2724 -0.8599 -0.1277
 4285TIP3    H234271   4.487   2.940   3.810 -2.6380  1.7508  0.6082
 4286TIP3   OH234272   6.600   4.423  14.977 -0.3446  1.0140  0.3440
 4286TIP3    H134273   6.675   4.478  14.956  1.2941 -1.7686 -1.8531
 4286TIP3    H234274   6.596   4.359  14.905 -2.7832 -0.9929  2.0727
 4287TIP3   OH234275   0.614   6.042   3.799 -0.0692 -0.5114  0.1425
 4287TIP3    H134276   0.577   6.116   3.847  0.9100  0.3477 -0.4112
 4287TIP3    H234277   0.550   6.023   3.730 -0.6714 -0.6775  0.7292
 4288TIP3   OH234278   0.469   5.488   5.040  0.0193  0.2715 -0.3906
 4288TIP3    H134279   0.489   5.397   5.016  0.9287  0.0760  0.9719
 4288TIP3    H234280   0.502   5.497   5.130 -0.8009  1.7171 -0.1943
 4289TIP3   OH234281   3.047   0.185   9.987 -1.0103  0.7532 -0.5134
 4289TIP3    H134282   3.118   0.225   9.938  1.8535 -0.6888  2.1365
 4289TIP3    H234283   3.028   0.103   9.940  1.4259 -0.4310  0.3816
 4290TIP3   OH234284   2.977   4.503   6.048  0.3367  0.3767 -0.6262
 4290TIP3    H134285   2.911   4.504   5.978 -1.5420 -0.6804  1.0021
 4290TIP3    H234286   2.937   4.554   6.119  0.2807 -1.9930  1.1764
 4291TIP3   OH234287   5.716   6.009  10.377  0.4352 -0.3834  0.6113
 4291TIP3    H134288   5.679   5.943  10.435 -1.0272  0.8541  1.1503
 4291TIP3    H234289   5.811   6.000  10.388  0.2329 -1.4962  1.6638
 4292TIP3   OH234290   1.853   2.675   0.905 -0.2216  0.3792 -0.5778
 4292TIP3    H134291   1.924   2.613   0.887 -0.1588  0.5437 -0.9222
 4292TIP3    H234292   1.897   2.759   0.913 -0.0634  0.1257  1.8911
 4293TIP3   OH234293   3.418   4.050  10.972  0.4946  0.2800  0.3468
 4293TIP3    H134294   3.512   4.047  10.953  0.7567 -0.0338  1.5818
 4293TIP3    H234295   3.406   4.131  11.022  0.4379 -0.5057  1.6735
 4294TIP3   OH234296   2.498   2.000  12.481 -0.0201  0.6967 -0.5464
 4294TIP3    H134297   2.549   1.936  12.531  1.9894  0.6274 -2.5347
 4294TIP3    H234298   2.410   1.962  12.477 -0.3200  0.6795  2.7586
 4295TIP3   OH234299   6.251   1.773   0.931 -0.3297  0.0247 -0.0117
 4295TIP3    H134300   6.343   1.777   0.956  0.4460  0.7343 -2.6532
 4295TIP3    H234301   6.215   1.856   0.963  1.2549  2.1170 -3.1342
 4296TIP3   OH234302   6.726   6.406   0.148  0.0872 -0.3986 -0.1542
 4296TIP3    H134303   6.819   6.408   0.172 -0.3885 -3.0067  2.5156
 4296TIP3    H234304   6.683   6.463   0.213 -0.3921 -1.1198  0.1761
 4297TIP3   OH234305   6.622   1.885   2.884  0.4436  0.1019 -0.2162
 4297TIP3    H134306   6.535   1.853   2.906  0.1441  0.0829 -1.3766
 4297TIP3    H234307   6.680   1.844   2.948 -0.3749 -0.0272  0.4489
 4298TIP3   OH234308   3.579   6.603   4.612 -0.3435 -0.0588  0.1985
 4298TIP3    H134309   3.579   6.620   4.518 -0.3881 -3.1967 -0.4640
 4298TIP3    H234310   3.658   6.647   4.644  0.3500  0.0502 -1.5211
 4299TIP3   OH234311   0.380   5.178  15.259 -0.1402 -0.1625  0.0881
 4299TIP3    H134312   0.323   5.248  15.225 -0.3775 -1.1361 -1.6447
 4299TIP3    H234313   0.454   5.225  15.298 -0.6778  1.0731 -0.3211
 4300TIP3   OH234314   5.572   3.568  11.659  0.4618 -0.2284  0.4948
 4300TIP3    H134315   5.538   3.550  11.747  1.5534 -0.5774  0.8596
 4300TIP3    H234316   5.503   3.537  11.601  0.3517 -1.3955  1.2109
 4301TIP3   OH234317   6.096   2.588   5.220 -0.2216 -0.0640 -0.0570
 4301TIP3    H134318   6.134   2.531   5.286  1.6703  0.1668 -0.8872
 4301TIP3    H234319   6.170   2.614   5.165 -1.1092  2.6321 -0.1257
 4302TIP3   OH234320   3.519   6.086  16.179  0.4197 -0.1116 -0.2525
 4302TIP3    H134321   3.511   5.991  16.169  0.2919 -0.0306 -0.9711
 4302TIP3    H234322   3.600   6.108  16.134  0.4706  0.1170 -0.0495
 4303TIP3   OH234323   3.479   2.513  11.752 -0.4553 -0.0185 -0.6259
 4303TIP3    H134324   3.517   2.425  11.748 -2.0759 -0.8892  1.6555
 4303TIP3    H234325   3.425   2.520  11.673  0.1208 -0.8382 -1.1037
 4304TIP3   OH234326   4.912   5.306  13.067  0.0148 -0.1607 -0.3011
 4304TIP3    H134327   4.862   5.381  13.034  0.1192 -0.3271 -0.8417
 4304TIP3    H234328   4.903   5.312  13.163  0.7843  1.0715 -0.2861
 4305TIP3   OH234329   2.071   3.253  12.825  0.0422  0.3495  0.3300
 4305TIP3    H134330   2.135   3.315  12.789  1.1243 -1.6925 -1.5175
 4305TIP3    H234331   2.000   3.252  12.760 -1.3620  1.6483  1.7447
 4306TIP3   OH234332   6.635   2.770   0.378  0.2351 -0.0790  0.3662
 4306TIP3    H134333   6.678   2.842   0.334  0.6064 -1.3413 -1.4450
 4306TIP3    H234334   6.606   2.806   0.462  0.4796  2.1055 -0.4502
 4307TIP3   OH234335   3.055   5.314  13.072 -0.1374 -0.1995  0.2763
 4307TIP3    H134336   2.994   5.249  13.106  1.6252 -1.4523  1.1954
 4307TIP3    H234337   3.064   5.293  12.979 -0.8397 -0.1888  0.2003
 4308TIP3   OH234338   6.234   5.073  14.326  0.0980 -0.2825  0.5290
 4308TIP3    H134339   6.283   5.153  14.345 -0.3352  0.1127 -0.0127
 4308TIP3    H234340   6.299   5.003  14.335  0.7783  0.2405 -0.2181
 4309TIP3   OH234341   6.269   0.431  14.572 -0.0970 -0.0741 -0.0453
 4309TIP3    H134342   6.351   0.402  14.613 -0.3985 -0.9324 -0.0228
 4309TIP3    H234343   6.267   0.526  14.586 -0.6018 -0.4082  2.6696
 4310TIP3   OH234344   4.099   0.758   0.834  0.0940 -0.6270  0.2207
 4310TIP3    H134345   4.116   0.720   0.920 -2.3182 -3.3139 -0.3285
 4310TIP3    H234346   4.158   0.712   0.774  1.8711  1.3377  0.3602
 4311TIP3   OH234347   3.046   4.388  15.374  0.1166 -0.0022  0.3326
 4311TIP3    H134348   3.072   4.338  15.297  1.1443  1.4634 -0.2971
 4311TIP3    H234349   3.104   4.358  15.444  1.2446  0.8391 -0.2321
 4312TIP3   OH234350   6.058   4.185   1.205 -0.0488  0.3307  0.2570
 4312TIP3    H134351   5.980   4.239   1.194 -0.5595 -0.2510  0.9855
 4312TIP3    H234352   6.087   4.166   1.116  1.0085  3.0101 -0.0888
 4313TIP3   OH234353   2.008   3.526  11.418 -0.2431  0.2761  0.7681
 4313TIP3    H134354   2.074   3.594  11.430  1.6579 -0.5223 -3.3854
 4313TIP3    H234355   1.938   3.569  11.370 -0.6479  0.0548  1.1534
 4314TIP3   OH234356   5.955   0.609  14.344  0.0590 -0.5291  0.0168
 4314TIP3    H134357   6.033   0.559  14.317  0.6726  0.7910 -0.7366
 4314TIP3    H234358   5.924   0.650  14.264  0.4715  1.5105  0.8392
 4315TIP3   OH234359   2.934   6.309   3.903  0.0297  0.4436  0.2133
 4315TIP3    H134360   2.969   6.301   3.814 -0.0608  0.2014  0.1974
 4315TIP3    H234361   2.944   6.401   3.925 -2.4741  1.1003 -1.0753
 4316TIP3   OH234362   2.951   1.169   4.728 -0.1711  0.5203 -0.3797
 4316TIP3    H134363   2.968   1.232   4.658 -0.4715  1.1548  0.1097
 4316TIP3    H234364   2.871   1.200   4.769 -0.1751 -0.0346  0.0396
 4317TIP3   OH234365   2.274   2.803  16.665  0.1391  0.2187 -0.2284
 4317TIP3    H134366   2.192   2.758  16.686  0.2986  0.3349  0.6494
 4317TIP3    H234367   2.303   2.762  16.583 -0.1107 -0.7568  0.1619
 4318TIP3   OH234368   2.130   1.618  14.304  0.0698  0.0625  0.1113
 4318TIP3    H134369   2.175   1.541  14.269  0.4541  0.4593 -0.2855
 4318TIP3    H234370   2.187   1.650  14.373 -0.2273 -0.1692  0.4668
 4319TIP3   OH234371   1.780   1.184   5.420  0.0234  0.0218  0.3439
 4319TIP3    H134372   1.737   1.221   5.342 -2.6366  0.6232  1.9641
 4319TIP3    H234373   1.860   1.145   5.387  0.0122  2.0086 -2.4027
 4320TIP3   OH234374   0.755   4.765   0.711 -0.1971 -0.5642 -0.1479
 4320TIP3    H134375   0.736   4.726   0.796 -1.0327 -0.8697 -0.4640
 4320TIP3    H234376   0.806   4.698   0.665 -0.9996 -1.0008 -0.4183
 4321TIP3   OH234377   6.018   6.489  11.184 -0.9964 -0.4576  0.1352
 4321TIP3    H134378   6.071   6.424  11.139 -0.2536 -0.5846  1.1645
 4321TIP3    H234379   6.026   6.467  11.276 -0.9783  0.8934  0.4817
 4322TIP3   OH234380   1.630   0.739  13.000 -0.1176 -0.0304 -0.3769
 4322TIP3    H134381   1.719   0.771  13.012 -0.8935  1.4566  1.9729
 4322TIP3    H234382   1.628   0.654  13.045 -0.0240  0.2077  0.0793
 4323TIP3   OH234383   6.212   0.067  12.575  0.2674  0.1281 -0.3898
 4323TIP3    H134384   6.261  -0.004  12.615  0.6424  1.1466  1.0124
 4323TIP3    H234385   6.123   0.032  12.563  0.3826 -0.4946  0.5101
 4324TIP3   OH234386   2.143   3.517  14.755 -0.0782  0.5246  0.0560
 4324TIP3    H134387   2.075   3.514  14.688  0.0290  1.2378 -0.0919
 4324TIP3    H234388   2.129   3.438  14.807 -0.6950  0.4044 -0.2849
 4325TIP3   OH234389   0.750   3.315  13.485  0.0374 -0.5288  0.8938
 4325TIP3    H134390   0.806   3.373  13.434 -0.0252 -0.7451  0.5747
 4325TIP3    H234391   0.808   3.275  13.549 -0.3676  1.8712  2.9204
 4326TIP3   OH234392   1.456   5.007   4.210 -0.2221 -0.2536 -0.0968
 4326TIP3    H134393   1.426   5.087   4.168  0.1542 -0.0238  0.0699
 4326TIP3    H234394   1.433   5.017   4.302  2.6909  1.1280  0.6024
 4327TIP3   OH234395   2.679   0.360  15.130  0.0002 -0.2472  0.4253
 4327TIP3    H134396   2.702   0.282  15.079 -1.4362 -0.5792  0.2445
 4327TIP3    H234397   2.633   0.417  15.069 -2.4691 -0.9946  1.4490
 4328TIP3   OH234398   0.819   5.620  11.529  0.3760  0.2646  0.6510
 4328TIP3    H134399   0.791   5.598  11.618  0.0652  0.6603  0.6526
 4328TIP3    H234400   0.772   5.557  11.474  1.4096 -0.7128  0.8353
 4329TIP3   OH234401   1.623   5.152  15.825 -0.1628  0.4654  0.4917
 4329TIP3    H134402   1.583   5.065  15.830 -0.0597  0.3875  0.0340
 4329TIP3    H234403   1.549   5.212  15.828 -0.5851  0.2817 -2.5380
 4330TIP3   OH234404   3.799   3.233  16.351  0.3316  0.0977 -0.5003
 4330TIP3    H134405   3.730   3.169  16.369  0.3867 -0.2991 -1.6246
 4330TIP3    H234406   3.859   3.187  16.293 -0.0401  1.4121 -1.9879
 4331TIP3   OH234407   5.649   6.361   0.958 -0.2294 -0.7910  0.0808
 4331TIP3    H134408   5.743   6.377   0.956 -0.0032 -1.9628  0.2165
 4331TIP3    H234409   5.609   6.445   0.937  0.8614 -0.4997 -0.9114
 4332TIP3   OH234410   0.770   0.124   5.703  0.1651  0.6619 -0.2450
 4332TIP3    H134411   0.736   0.067   5.634  0.5897  0.5821 -0.3930
 4332TIP3    H234412   0.865   0.117   5.695  0.2183  0.9723  0.0849
 4333TIP3   OH234413   5.046   4.046   3.492 -0.1155  0.4645 -0.1539
 4333TIP3    H134414   4.975   3.994   3.455 -0.1518  0.6586 -0.3564
 4333TIP3    H234415   5.039   4.031   3.587 -0.2207  0.2235 -0.1979
 4334TIP3   OH234416   6.743   0.098  16.271  0.1524  1.0806  0.3872
 4334TIP3    H134417   6.794   0.168  16.311  0.2754  1.0111  0.3513
 4334TIP3    H234418   6.696   0.058  16.345  1.0500  0.3902  0.5959
 4335TIP3   OH234419   1.845   0.529   0.321 -0.3400  0.1041 -0.5064
 4335TIP3    H134420   1.802   0.471   0.259  0.1768 -0.2991 -0.4908
 4335TIP3    H234421   1.773   0.574   0.366 -0.7814 -1.1112  0.0538
 4336TIP3   OH234422   1.238   5.181  14.884  0.3460  0.2353 -0.2352
 4336TIP3    H134423   1.195   5.128  14.951  0.6884  2.5703  1.9986
 4336TIP3    H234424   1.180   5.175  14.808 -1.3485 -0.6364  1.0546
 4337TIP3   OH234425   4.393   0.243  16.417  0.6424 -0.4045  0.0932
 4337TIP3    H134426   4.341   0.167  16.391  1.7813 -1.6312  1.2211
 4337TIP3    H234427   4.329   0.306  16.449 -0.2619 -1.2925  0.1022
 4338TIP3   OH234428   4.535   6.139   3.091  0.4437 -0.1222 -0.3589
 4338TIP3    H134429   4.569   6.171   3.008  0.4209 -1.1032 -0.7578
 4338TIP3    H234430   4.440   6.136   3.080  0.3103  1.2020  0.2438
 4339TIP3   OH234431   0.178   5.125   0.142 -0.4768 -0.0673 -0.1218
 4339TIP3    H134432   0.161   5.217   0.123  0.6370 -0.0517 -1.1018
 4339TIP3    H234433   0.151   5.079   0.063  1.3777 -0.3044 -0.6602
 4340TIP3   OH234434   4.803   6.680   4.005  0.1872 -0.1135  0.0125
 4340TIP3    H134435   4.782   6.663   3.913  1.4929  0.6553 -0.4664
 4340TIP3    H234436   4.718   6.684   4.049 -0.4682 -0.3715 -1.1788
 4341TIP3   OH234437   2.858   5.323  15.415 -0.5981 -0.3302 -0.7375
 4341TIP3    H134438   2.907   5.290  15.491 -0.6511  2.8084  0.8400
 4341TIP3    H234439   2.920   5.317  15.342 -0.1198 -2.3098 -0.2290
 4342TIP3   OH234440   6.223   5.052   4.905 -0.0214  0.0826  0.0788
 4342TIP3    H134441   6.166   5.102   4.963  1.5016  0.6235  1.1886
 4342TIP3    H234442   6.187   5.065   4.818 -2.6557 -1.1099  0.8729
 4343TIP3   OH234443   2.012   2.969  11.366  0.0222 -0.1860  0.0717
 4343TIP3    H134444   1.998   3.063  11.366  2.3375  0.2265 -0.2300
 4343TIP3    H234445   2.027   2.946  11.457 -0.3038 -0.2115  0.1179
 4344TIP3   OH234446   3.662   5.193  12.179 -0.2579 -0.1392 -0.2730
 4344TIP3    H134447   3.681   5.218  12.088 -0.8830  0.3703 -0.2681
 4344TIP3    H234448   3.675   5.272  12.230 -0.0689 -0.3821  0.0605
 4345TIP3   OH234449   0.790   2.608  13.266  0.9917  0.0679  0.2018
 4345TIP3    H134450   0.813   2.644  13.352  1.0208 -0.2927  0.3447
 4345TIP3    H234451   0.780   2.685  13.210 -1.1078  0.4715  1.0215
 4346TIP3   OH234452   0.061   6.778   2.727  0.2485 -0.1459 -0.1851
 4346TIP3    H134453   0.017   6.860   2.703 -1.0326 -0.7752 -0.0797
 4346TIP3    H234454   0.040   6.718   2.655 -1.9301 -1.4496  1.4098
 4347TIP3   OH234455   4.680   0.379   0.047 -0.2692  0.0618 -0.1345
 4347TIP3    H134456   4.690   0.360  -0.046  0.5673 -1.8810  0.3047
 4347TIP3    H234457   4.714   0.468   0.058  0.1583  0.0954 -1.5708
 4348TIP3   OH234458   5.277   5.016  12.240  0.4030 -0.1194  0.5241
 4348TIP3    H134459   5.324   4.951  12.188 -0.1465  0.5436 -0.8380
 4348TIP3    H234460   5.275   5.095  12.185 -3.2706 -0.4329 -0.0543
 4349TIP3   OH234461   3.619   3.436   2.640 -0.4089 -0.0239  0.1496
 4349TIP3    H134462   3.666   3.504   2.592  0.1153  0.6905  1.6220
 4349TIP3    H234463   3.687   3.390   2.689 -0.6026 -2.2926 -1.5122
 4350TIP3   OH234464   5.924   5.559   3.554 -0.2556  0.0272  0.2225
 4350TIP3    H134465   5.877   5.572   3.637 -0.6303  0.4246 -0.0440
 4350TIP3    H234466   6.016   5.573   3.576 -0.3233 -0.1547  0.6283
 4351TIP3   OH234467   6.484   5.552  15.913  0.0551  0.5544  0.1304
 4351TIP3    H134468   6.475   5.596  15.828  0.6331  0.1181 -0.1589
 4351TIP3    H234469   6.568   5.507  15.909 -0.0180  0.3312  0.8494
 4352TIP3   OH234470   4.303   1.193  11.696 -0.4690 -1.5532 -0.0014
 4352TIP3    H134471   4.234   1.259  11.690  2.0123  1.5746  2.3524
 4352TIP3    H234472   4.363   1.214  11.624 -0.7732 -2.8075 -0.6519
 4353TIP3   OH234473   3.637   4.959  14.558  0.4278 -0.1222 -0.2493
 4353TIP3    H134474   3.720   4.998  14.530  0.2746 -0.1000 -0.6760
 4353TIP3    H234475   3.625   4.884  14.500  0.9336 -1.0723  0.8448
 4354TIP3   OH234476   3.113   4.892   2.239 -0.5570 -0.0863 -0.0220
 4354TIP3    H134477   3.175   4.851   2.300 -2.9697 -1.4049  1.7127
 4354TIP3    H234478   3.054   4.821   2.214 -0.1050  0.5861 -3.4576
 4355TIP3   OH234479   3.468   6.051   3.324 -0.0735  0.2579  0.1152
 4355TIP3    H134480   3.496   6.039   3.233 -0.1276 -1.3367  0.2862
 4355TIP3    H234481   3.379   6.085   3.318  0.1658  0.7919 -0.4254
 4356TIP3   OH234482   6.080   4.049  11.476  0.1790 -0.1349  0.1999
 4356TIP3    H134483   6.027   4.017  11.549  0.3349  2.0298  1.3310
 4356TIP3    H234484   6.113   3.969  11.433 -0.6216 -1.4620  1.9581
 4357TIP3   OH234485   0.659   0.853   1.556 -0.9536  0.5175 -0.0656
 4357TIP3    H134486   0.603   0.895   1.621  0.3786 -0.5640  1.8686
 4357TIP3    H234487   0.746   0.850   1.596 -0.2523 -0.9140 -1.5526
 4358TIP3   OH234488   3.324   3.850  12.137 -0.3159  0.0599  0.7445
 4358TIP3    H134489   3.413   3.822  12.115 -0.5541 -1.9401  2.0345
 4358TIP3    H234490   3.269   3.776  12.112 -1.2441  0.0595  2.5905
 4359TIP3   OH234491   5.027   5.642  13.965 -0.2314 -0.5001  0.1399
 4359TIP3    H134492   5.120   5.641  13.940 -0.0534 -1.5667  0.7664
 4359TIP3    H234493   5.023   5.586  14.043 -1.4002 -0.4362  0.1422
 4360TIP3   OH234494   5.818   2.438   0.930 -0.0238  0.4891  1.5650
 4360TIP3    H134495   5.778   2.522   0.953 -0.5751  1.1044 -1.2811
 4360TIP3    H234496   5.744   2.377   0.928 -0.4106  0.9560 -0.6631
 4361TIP3   OH234497   2.974   6.544   5.927  0.0565  0.1248 -0.1007
 4361TIP3    H134498   2.990   6.488   5.851  0.7026 -0.8585  0.7307
 4361TIP3    H234499   3.048   6.527   5.986 -1.5144 -0.8296  1.7241
 4362TIP3   OH234500   1.229   2.308   4.794 -0.2286  0.2433  0.4230
 4362TIP3    H134501   1.263   2.378   4.738  0.6697  0.1357  0.8215
 4362TIP3    H234502   1.151   2.346   4.835  0.7687  1.3463  1.3535
 4363TIP3   OH234503   6.248   6.217   6.129  0.3485  0.0937  0.1072
 4363TIP3    H134504   6.333   6.200   6.088  1.3770  0.2998  2.0316
 4363TIP3    H234505   6.231   6.138   6.181  0.2822  0.8256  1.2075
 4364TIP3   OH234506   6.238   5.397   1.351 -0.2441 -0.3762 -0.0227
 4364TIP3    H134507   6.299   5.327   1.328  1.4244  1.0101  0.0356
 4364TIP3    H234508   6.216   5.380   1.443 -2.5558 -2.7104 -0.8759
 4365TIP3   OH234509   1.739   2.386  13.655 -0.3036  0.5963 -0.2307
 4365TIP3    H134510   1.682   2.431  13.718 -0.0742 -0.0045  0.4266
 4365TIP3    H234511   1.724   2.293  13.672 -1.6512  0.3717 -2.3839
 4366TIP3   OH234512   4.473   4.257  12.546  0.4245  0.0996  0.4120
 4366TIP3    H134513   4.541   4.298  12.494  0.7593 -2.3505 -1.2458
 4366TIP3    H234514   4.520   4.200  12.607 -0.0522  1.2404  1.9022
 4367TIP3   OH234515   4.328   5.849  15.916  0.2939  0.2427  0.5607
 4367TIP3    H134516   4.347   5.761  15.885  0.1116 -0.3468  2.0164
 4367TIP3    H234517   4.357   5.907  15.846 -1.8478 -1.0312 -1.5062
 4368TIP3   OH234518   5.479   0.606  11.947  0.1900  0.1742 -0.1872
 4368TIP3    H134519   5.404   0.556  11.914  0.8912  0.1667 -1.8414
 4368TIP3    H234520   5.487   0.578  12.039 -1.9161  0.3117  0.0812
 4369TIP3   OH234521   2.726   3.591   4.053 -0.6682  0.7200  0.3469
 4369TIP3    H134522   2.667   3.595   4.128  0.1733  1.8200  0.9851
 4369TIP3    H234523   2.784   3.667   4.064  0.0369  0.4012 -0.9441
 4370TIP3   OH234524   5.517   0.888  12.498  0.9850  0.2309  0.1630
 4370TIP3    H134525   5.428   0.854  12.501 -0.0160  2.3712 -1.7391
 4370TIP3    H234526   5.563   0.843  12.569 -0.8199 -2.9821 -0.5473
 4371TIP3   OH234527   4.276   1.133  11.333  0.4813  0.0112  0.2132
 4371TIP3    H134528   4.285   1.222  11.298  1.6919  0.2325  1.0163
 4371TIP3    H234529   4.334   1.132  11.410 -0.1536 -1.2255  0.6940
 4372TIP3   OH234530   5.246   4.991   5.711 -0.1042  0.2131 -0.0837
 4372TIP3    H134531   5.207   4.906   5.732 -1.5706  0.1180 -2.7319
 4372TIP3    H234532   5.203   5.053   5.769 -0.7876 -0.5594  0.2503
 4373TIP3   OH234533   1.514   4.524  11.770 -0.1141 -0.7313  0.1714
 4373TIP3    H134534   1.518   4.476  11.853  1.1818 -0.1845  0.4511
 4373TIP3    H234535   1.487   4.459  11.706 -0.4782 -1.3234  0.9100
 4374TIP3   OH234536   4.799   1.941  16.187 -0.1361  0.0137 -0.1932
 4374TIP3    H134537   4.713   1.983  16.194 -0.0341  0.1129  0.5581
 4374TIP3    H234538   4.783   1.850  16.210 -0.2443 -0.2371 -1.2137
 4375TIP3   OH234539   6.567   3.494   3.272  0.8809 -0.4443 -0.5717
 4375TIP3    H134540   6.654   3.510   3.307  0.2676  1.4465  0.2210
 4375TIP3    H234541   6.522   3.442   3.339  1.1904 -0.8965 -0.7103
 4376TIP3   OH234542   2.113   0.561   2.320 -0.1859  0.3657 -0.7473
 4376TIP3    H134543   2.073   0.479   2.351  1.0444 -0.7022 -1.9079
 4376TIP3    H234544   2.053   0.592   2.252 -0.6802  0.4678 -0.2734
 4377TIP3   OH234545   5.647   1.957  15.873 -0.5491 -0.1421  0.2794
 4377TIP3    H134546   5.579   1.892  15.890  0.8656 -1.7687 -0.0085
 4377TIP3    H234547   5.623   1.996  15.789  0.1326 -2.4911 -1.0875
 4378TIP3   OH234548   4.795   0.622   2.538 -0.1279  0.4001  0.4521
 4378TIP3    H134549   4.805   0.529   2.520  0.2276  0.4199  0.5508
 4378TIP3    H234550   4.795   0.663   2.451  0.5392  0.3902  0.4439
 4379TIP3   OH234551   2.170   5.858   3.741 -0.3901 -0.1742  0.1829
 4379TIP3    H134552   2.212   5.926   3.793  2.6701 -0.4057 -1.7552
 4379TIP3    H234553   2.163   5.783   3.800  1.3427  0.1173  0.8112
 4380TIP3   OH234554   4.435   2.577  11.938 -0.0921 -0.3640 -0.0685
 4380TIP3    H134555   4.437   2.588  12.033  0.7516 -0.9926  0.0011
 4380TIP3    H234556   4.521   2.605  11.909 -0.7086  0.8448 -0.7836
 4381TIP3   OH234557   1.853   0.743  12.274  0.3108 -0.5381  0.0148
 4381TIP3    H134558   1.775   0.771  12.322  0.5158 -2.4657  1.6113
 4381TIP3    H234559   1.900   0.824  12.255 -0.8756  0.4768  1.1714
 4382TIP3   OH234560   2.961   4.891  16.346  0.0141 -0.7702  0.7684
 4382TIP3    H134561   3.037   4.839  16.371 -0.5006 -1.4412  0.9368
 4382TIP3    H234562   2.982   4.980  16.376  1.2753 -0.6710 -0.2938
 4383TIP3   OH234563   4.099   6.792  11.366 -0.2714  0.2216  0.0387
 4383TIP3    H134564   4.082   6.852  11.293 -0.8416  1.5853  1.2565
 4383TIP3    H234565   4.163   6.837  11.421 -1.9291  0.5105  1.8391
 4384TIP3   OH234566   0.427   2.976   1.756  0.2664 -0.0506 -0.5156
 4384TIP3    H134567   0.400   2.884   1.757  1.7085 -0.4898 -0.4408
 4384TIP3    H234568   0.522   2.974   1.769  0.3929  1.4279 -1.0007
 4385TIP3   OH234569   4.860   1.268   5.620 -0.0550  0.2754  0.1238
 4385TIP3    H134570   4.862   1.232   5.532 -0.1508 -0.2372  0.3274
 4385TIP3    H234571   4.944   1.313   5.630 -0.1792  0.6225 -0.3411
 4386TIP3   OH234572   4.738   5.242  14.568 -0.3252 -0.1301  0.3285
 4386TIP3    H134573   4.803   5.177  14.594 -0.4890  0.0959  1.3815
 4386TIP3    H234574   4.751   5.253  14.474  1.0318 -0.2207  0.4806
 4387TIP3   OH234575   2.786   0.550  12.319  0.1270 -0.5790 -0.0287
 4387TIP3    H134576   2.746   0.561  12.405  0.2194 -2.5253  0.3077
 4387TIP3    H234577   2.742   0.474  12.282  2.1061 -1.5732 -0.4614
 4388TIP3   OH234578   1.776   5.932  11.608  0.2537 -0.1783 -0.3776
 4388TIP3    H134579   1.859   5.976  11.627 -1.3346  2.6457  0.6351
 4388TIP3    H234580   1.801   5.844  11.582  3.5291  0.3945  0.3819
 4389TIP3   OH234581   0.598   6.396  10.649 -0.0112  0.4929 -0.3137
 4389TIP3    H134582   0.681   6.422  10.610 -0.5156  0.8431 -1.1732
 4389TIP3    H234583   0.576   6.314  10.606  1.1591 -1.0214  1.7864
 4390TIP3   OH234584   4.628   1.411  12.876 -0.7087  0.0208 -0.1548
 4390TIP3    H134585   4.640   1.340  12.814  0.2260 -0.1095  0.1544
 4390TIP3    H234586   4.536   1.405  12.903 -0.6142 -1.1399 -0.0505
 4391TIP3   OH234587   5.133   1.473  11.628  0.0038 -0.2428 -0.3686
 4391TIP3    H134588   5.133   1.478  11.724 -0.1314 -0.4621 -0.3540
 4391TIP3    H234589   5.214   1.516  11.601  1.0339 -1.8700 -0.0488
 4392TIP3   OH234590   1.569   1.898   5.848  0.5647 -0.0517 -0.2302
 4392TIP3    H134591   1.504   1.933   5.786  0.5716 -1.4631 -1.0742
 4392TIP3    H234592   1.518   1.852   5.914  0.5178  1.9306  1.2160
 4393TIP3   OH234593   5.864   2.368  16.861 -0.0129 -0.1115  0.1558
 4393TIP3    H134594   5.776   2.342  16.834 -0.3989  0.1973  1.0795
 4393TIP3    H234595   5.907   2.286  16.885  0.1861 -0.3385 -0.9177
 4394TIP3   OH234596   1.541   4.392  16.809  0.1486 -0.2856 -0.4380
 4394TIP3    H134597   1.503   4.399  16.721 -0.8504  0.9568  0.0629
 4394TIP3    H234598   1.505   4.311  16.844  1.5610 -1.4882 -1.5963
 4395TIP3   OH234599   1.478   3.524   1.914 -0.4015 -0.4372  0.3870
 4395TIP3    H134600   1.573   3.511   1.915  0.0215  1.5270  4.5710
 4395TIP3    H234601   1.459   3.552   1.824  3.1250  0.0825 -0.3420
 4396TIP3   OH234602   5.912   6.781   3.802  0.0813  0.7845  0.2143
 4396TIP3    H134603   5.853   6.723   3.851  0.4324  0.9454  0.8422
 4396TIP3    H234604   5.959   6.830   3.870 -0.2962  1.8964 -0.3004
 4397TIP3   OH234605   2.756   3.120   5.144 -0.0632 -0.5900 -0.1948
 4397TIP3    H134606   2.727   3.122   5.235  1.2811 -1.9342  0.2911
 4397TIP3    H234607   2.680   3.088   5.096 -1.2503  1.4135  0.2015
 4398TIP3   OH234608   3.620   2.752  14.274  0.4197 -0.0292  0.0286
 4398TIP3    H134609   3.661   2.686  14.219  1.2786 -0.3730  1.0518
 4398TIP3    H234610   3.681   2.766  14.346  0.0191  1.5156  0.1153
 4399TIP3   OH234611   3.878   5.715   5.339 -0.0393 -0.3360  0.1568
 4399TIP3    H134612   3.825   5.765   5.401 -1.7334 -1.9096  0.0662
 4399TIP3    H234613   3.931   5.657   5.395 -1.2776 -1.4747  0.2002
 4400TIP3   OH234614   4.092   0.970   3.404 -0.4240 -0.2759  0.3452
 4400TIP3    H134615   4.088   0.961   3.309 -0.3450 -1.3825  0.4431
 4400TIP3    H234616   4.068   0.884   3.438 -1.5647  0.4113  1.3544
 4401TIP3   OH234617   3.526   5.253   0.574 -0.2446  0.0881 -0.4458
 4401TIP3    H134618   3.555   5.304   0.499 -0.5992  2.4964  0.9456
 4401TIP3    H234619   3.500   5.318   0.639  3.3670 -1.6028  3.1932
 4402TIP3   OH234620   1.987   3.310   0.444  0.2504 -0.0053 -0.1527
 4402TIP3    H134621   1.936   3.378   0.488  0.0131  0.4134 -1.0606
 4402TIP3    H234622   2.067   3.354   0.415  0.7233 -0.4440  0.4571
 4403TIP3   OH234623   4.859   3.264   1.602  0.0740 -0.6605 -0.7478
 4403TIP3    H134624   4.906   3.347   1.609 -0.1281 -0.6208  0.3020
 4403TIP3    H234625   4.785   3.283   1.545 -0.4548  0.1150  0.1761
 4404TIP3   OH234626   3.707   1.468  16.435 -0.2305 -0.4437 -0.0576
 4404TIP3    H134627   3.618   1.447  16.463 -1.2151  2.3291 -0.8247
 4404TIP3    H234628   3.695   1.517  16.354  2.1311 -1.4707 -1.1083
 4405TIP3   OH234629   3.975   5.342  13.064 -0.3812  0.1231  0.4508
 4405TIP3    H134630   3.987   5.254  13.029  1.1901  0.8714 -1.0352
 4405TIP3    H234631   3.925   5.389  12.997  1.7278  1.2745 -0.4150
 4406TIP3   OH234632   4.978   1.376   0.923 -0.2078 -0.1833  0.0668
 4406TIP3    H134633   4.975   1.417   1.010 -2.0339 -0.2025  0.0562
 4406TIP3    H234634   5.071   1.369   0.903  0.2127  1.3190  1.3143
 4407TIP3   OH234635   3.060   3.685  16.901 -0.0789 -0.0110 -0.2630
 4407TIP3    H134636   3.086   3.745  16.971 -1.9257  0.8455 -0.2290
 4407TIP3    H234637   2.968   3.707  16.885  0.2024 -0.4289 -2.7249
 4408TIP3   OH234638   2.391   3.569   2.277 -0.2309  0.2771 -0.3264
 4408TIP3    H134639   2.358   3.658   2.281 -1.8583 -0.2143 -1.3821
 4408TIP3    H234640   2.432   3.554   2.362 -2.3406  1.1508  0.9347
 4409TIP3   OH234641   2.348   6.315  14.527 -0.0495  0.0590 -0.1184
 4409TIP3    H134642   2.359   6.224  14.555 -0.9265 -0.2849 -0.8608
 4409TIP3    H234643   2.433   6.339  14.490  0.1203 -0.5268 -0.1176
 4410TIP3   OH234644   5.058   5.181  15.546 -0.3956  0.6064  0.0267
 4410TIP3    H134645   4.971   5.143  15.533  0.5091 -1.4521 -0.4463
 4410TIP3    H234646   5.079   5.163  15.638 -0.1051  0.2482 -0.1058
 4411TIP3   OH234647   1.511   2.311  14.487  1.0934  0.0115 -0.3165
 4411TIP3    H134648   1.537   2.400  14.463 -0.3491  0.4124 -0.4652
 4411TIP3    H234649   1.499   2.315  14.582  3.7904 -0.7880  0.1347
 4412TIP3   OH234650   6.142   1.535  15.493  0.5303 -0.4264 -0.3338
 4412TIP3    H134651   6.143   1.443  15.467  1.3054  0.0541 -2.1558
 4412TIP3    H234652   6.131   1.583  15.411 -0.0586  1.1131  0.6024
 4413TIP3   OH234653   2.483   4.245  12.096 -0.2966  0.8691 -0.0175
 4413TIP3    H134654   2.530   4.324  12.069 -1.1869  2.1711  1.9891
 4413TIP3    H234655   2.496   4.241  12.191 -0.9839 -0.9537  0.0435
 4414TIP3   OH234656   3.174   5.127   3.718 -0.2125 -0.2557 -0.3698
 4414TIP3    H134657   3.251   5.172   3.683 -0.6817  0.7872 -0.0923
 4414TIP3    H234658   3.101   5.164   3.668 -0.6048 -0.7698 -0.1795
 4415TIP3   OH234659   2.870   2.925  16.260  0.5474 -0.4034 -0.3602
 4415TIP3    H134660   2.907   2.884  16.338  1.2709  1.1007  0.1413
 4415TIP3    H234661   2.779   2.895  16.257  0.9483 -1.7134  0.1647
 4416TIP3   OH234662   0.740   0.551  16.051  0.3260 -0.0323 -0.3303
 4416TIP3    H134663   0.741   0.615  15.980 -0.2289 -2.3970 -2.5996
 4416TIP3    H234664   0.668   0.579  16.108  0.0975  1.3281 -1.2417
 4417TIP3   OH234665   2.691   0.971  16.435  0.1585  0.0288  0.0894
 4417TIP3    H134666   2.659   0.962  16.345  0.0223  0.1829  0.1206
 4417TIP3    H234667   2.783   0.946  16.431  0.8353  2.3290 -0.5716
 4418TIP3   OH234668   4.026   0.936   6.240 -0.3452 -0.2332 -0.2107
 4418TIP3    H134669   4.049   0.843   6.244  2.6972  0.4121 -0.4222
 4418TIP3    H234670   4.024   0.964   6.332 -0.8795 -0.3961 -0.1671
 4419TIP3   OH234671   4.633   1.958  13.047 -0.6321 -0.1964 -0.0528
 4419TIP3    H134672   4.655   2.034  13.101  1.2610 -0.3018 -0.6162
 4419TIP3    H234673   4.548   1.928  13.081 -0.6940  1.2539  1.1592
 4420TIP3   OH234674   6.559   3.752  16.143  0.2646  0.0114 -0.0770
 4420TIP3    H134675   6.604   3.680  16.099 -0.1553  1.1332 -2.5041
 4420TIP3    H234676   6.630   3.810  16.171  0.5076  0.5745 -1.7175
 4421TIP3   OH234677   4.809   0.612   1.115 -0.2342 -0.2252  0.2257
 4421TIP3    H134678   4.829   0.550   1.044  2.1871 -0.1057  0.7315
 4421TIP3    H234679   4.820   0.561   1.195  0.2778  0.4728  0.6047
 4422TIP3   OH234680   6.653   4.852  11.975 -0.1787 -0.2445  0.9968
 4422TIP3    H134681   6.690   4.764  11.970 -0.3305 -0.2848  0.5248
 4422TIP3    H234682   6.620   4.859  12.064 -0.6198 -0.8534  0.8861
 4423TIP3   OH234683   2.070   3.271  11.309 -0.0478  0.2303  0.3160
 4423TIP3    H134684   1.988   3.283  11.260  0.5218 -1.5153 -1.2160
 4423TIP3    H234685   2.083   3.353  11.355 -1.5744  1.3290 -1.0778
 4424TIP3   OH234686   4.691   1.767  15.307  0.0701  0.3038 -0.0725
 4424TIP3    H134687   4.770   1.730  15.269  0.1640  1.3748 -0.9695
 4424TIP3    H234688   4.722   1.846  15.352 -0.7553  2.2255 -2.6260
 4425TIP3   OH234689   0.908   2.524   5.319  0.4039 -0.1645  0.0883
 4425TIP3    H134690   0.971   2.594   5.336  0.8310 -0.5780  0.2287
 4425TIP3    H234691   0.822   2.566   5.328  0.6503  0.7300 -1.4650
 4426TIP3   OH234692   3.468   2.934   5.936 -0.0489 -0.0507 -0.3359
 4426TIP3    H134693   3.485   3.026   5.915  0.6737 -0.6431 -2.7588
 4426TIP3    H234694   3.375   2.923   5.918 -0.9440  0.8585  3.0860
 4427TIP3   OH234695   6.415   3.843  11.688 -0.3215 -0.3414 -0.7446
 4427TIP3    H134696   6.348   3.877  11.747  1.5918  0.8155  0.8824
 4427TIP3    H234697   6.440   3.917  11.634  2.2901  0.4154  1.3011
 4428TIP3   OH234698   3.711   0.805  13.484 -0.0875  0.0576 -0.1174
 4428TIP3    H134699   3.792   0.805  13.432  0.4096 -1.9987  0.5399
 4428TIP3    H234700   3.643   0.779  13.422 -0.1240  1.0802 -0.5129
 4429TIP3   OH234701   3.295   4.132   3.954  0.1580  0.1582  0.6016
 4429TIP3    H134702   3.389   4.112   3.959  0.5161  0.2696 -2.9348
 4429TIP3    H234703   3.292   4.228   3.947  0.1629  0.0213 -2.5200
 4430TIP3   OH234704   5.098   5.872  11.867 -0.1676 -0.3585 -0.0648
 4430TIP3    H134705   5.162   5.852  11.798  0.1133  0.4191 -0.0335
 4430TIP3    H234706   5.013   5.848  11.829  0.1775 -1.9375  0.1003
 4431TIP3   OH234707   2.986   1.042  12.075  0.0828 -0.1328  0.5690
 4431TIP3    H134708   2.931   0.978  12.029 -0.1420  1.1716 -1.0966
 4431TIP3    H234709   3.071   1.035  12.032  0.7093 -0.7819  1.8462
 4432TIP3   OH234710   2.354   0.571  16.052 -0.3514 -0.1955  0.2266
 4432TIP3    H134711   2.289   0.501  16.053 -0.8568  0.2593  1.7212
 4432TIP3    H234712   2.320   0.635  15.989 -0.4075 -0.8083 -0.3714
 4433TIP3   OH234713   1.604   0.298  16.466 -0.1747 -0.6933 -0.4741
 4433TIP3    H134714   1.578   0.372  16.521 -1.0141 -1.4566  0.1953
 4433TIP3    H234715   1.639   0.338  16.387  1.4359  0.4527  0.7493
 4434TIP3   OH234716   0.668   0.458  14.848  0.3751  0.3866  0.5497
 4434TIP3    H134717   0.615   0.378  14.842  0.8658  0.0770  0.2380
 4434TIP3    H234718   0.635   0.503  14.926  1.1184 -0.8958  1.6505
 4435TIP3   OH234719   1.264   2.722  15.744  0.0454 -0.3416 -0.1005
 4435TIP3    H134720   1.291   2.707  15.835 -0.0333 -0.1731 -0.0487
 4435TIP3    H234721   1.340   2.697  15.692 -0.1860 -1.2046 -0.0344
 4436TIP3   OH234722   4.985   0.746   4.625 -0.1153  0.4760  0.1169
 4436TIP3    H134723   5.017   0.753   4.714 -0.2130  0.9664  0.1170
 4436TIP3    H234724   4.996   0.653   4.602 -1.5234  0.0118  1.1659
 4437TIP3   OH234725   2.133   3.874  14.777  0.4672  0.0378 -0.0602
 4437TIP3    H134726   2.155   3.895  14.686 -0.5931 -0.6783 -0.5043
 4437TIP3    H234727   2.144   3.779  14.783 -0.7245 -0.1103  0.1638
 4438TIP3   OH234728   5.491   5.684   4.028 -0.0027  0.2898 -0.3875
 4438TIP3    H134729   5.481   5.628   3.951  1.3345 -1.8355  0.8898
 4438TIP3    H234730   5.569   5.736   4.008  0.1170  0.0204 -0.6440
 4439TIP3   OH234731   2.573   0.435  13.470  0.7924  0.1352 -0.5017
 4439TIP3    H134732   2.626   0.512  13.490  0.2387  0.3387  0.2594
 4439TIP3    H234733   2.490   0.451  13.515  0.4515 -0.6371 -0.8290
 4440TIP3   OH234734   6.076   4.640  13.000 -0.0779  0.0377 -0.6304
 4440TIP3    H134735   6.010   4.572  13.012 -0.2906  0.3930  0.3497
 4440TIP3    H234736   6.035   4.705  12.944 -0.7709  0.5104  0.3991
 4441TIP3   OH234737   4.371   1.014   4.818  0.6929  0.4132  0.1038
 4441TIP3    H134738   4.438   1.068   4.775  0.2989 -1.1221 -2.6743
 4441TIP3    H234739   4.400   1.009   4.909  1.9415  3.3710  0.0041
 4442TIP3   OH234740   3.331   0.533   0.276  0.6383  0.6528  0.5884
 4442TIP3    H134741   3.424   0.510   0.277  0.8961  1.6978  0.7157
 4442TIP3    H234742   3.290   0.469   0.335  1.2777  0.2392  0.5941
 4443TIP3   OH234743   4.964   0.699   3.828  0.2479 -0.1349  0.6722
 4443TIP3    H134744   5.010   0.667   3.750  0.7104 -1.7688  1.5644
 4443TIP3    H234745   5.024   0.763   3.867 -0.1584  0.9944 -0.4985
 4444TIP3   OH234746   1.691   3.105   4.543  0.0061  0.1411  0.3066
 4444TIP3    H134747   1.685   3.166   4.617 -1.8469  0.9171 -0.4356
 4444TIP3    H234748   1.623   3.040   4.560 -1.1872  0.9378 -1.2073
 4445TIP3   OH234749   5.018   4.359   5.127 -0.0859  0.0767 -0.0881
 4445TIP3    H134750   4.946   4.348   5.190 -0.0992 -0.2971 -0.1655
 4445TIP3    H234751   5.069   4.431   5.162  0.8411 -1.1596  1.2482
 4446TIP3   OH234752   0.337   0.239  16.066 -0.0662 -0.2067  0.0857
 4446TIP3    H134753   0.248   0.271  16.054 -0.2077 -0.1076  1.3165
 4446TIP3    H234754   0.391   0.299  16.015 -0.7285 -0.5086 -1.0023
 4447TIP3   OH234755   2.310   0.319   5.103 -0.0444 -0.2149 -0.0813
 4447TIP3    H134756   2.382   0.257   5.115 -1.2818 -1.3716  1.7738
 4447TIP3    H234757   2.285   0.345   5.191 -2.6244 -0.7135 -0.5989
 4448TIP3   OH234758   0.245   1.076   1.560 -0.0296 -0.0585 -0.0132
 4448TIP3    H134759   0.193   1.121   1.627  1.1544  0.7091  0.4234
 4448TIP3    H234760   0.299   1.015   1.610  0.5177  0.1807 -0.3049
 4449TIP3   OH234761   2.906   2.523   2.233 -0.0014  0.3361  0.3027
 4449TIP3    H134762   2.815   2.550   2.218 -0.6032 -2.0430 -0.7991
 4449TIP3    H234763   2.903   2.472   2.314  0.1507 -0.5545 -0.2432
 4450TIP3   OH234764   3.826   5.314   0.681  0.1163 -0.1463  0.4820
 4450TIP3    H134765   3.853   5.392   0.634  2.3193 -0.8938  0.4029
 4450TIP3    H234766   3.782   5.347   0.759 -0.5728  1.1313 -0.4108
 4451TIP3   OH234767   0.969   1.373  10.831 -0.4062 -0.2319  0.4910
 4451TIP3    H134768   1.009   1.319  10.762 -0.6821  0.7743 -0.4887
 4451TIP3    H234769   0.905   1.316  10.873 -1.4938 -0.3707 -1.2578
 4452TIP3   OH234770   1.117   2.283  14.319 -0.5865 -0.5791 -0.0487
 4452TIP3    H134771   1.185   2.231  14.275 -1.4402 -1.8768  0.0943
 4452TIP3    H234772   1.131   2.266  14.412 -0.3696  0.1078  0.0430
 4453TIP3   OH234773   5.266   0.400  14.142 -0.1152  0.0071 -0.0056
 4453TIP3    H134774   5.200   0.397  14.210 -1.7904 -0.6782 -1.5689
 4453TIP3    H234775   5.232   0.463  14.078  0.7039 -0.3948 -0.8669
 4454TIP3   OH234776   1.379   3.687  15.637  0.4196  0.0374 -0.0309
 4454TIP3    H134777   1.472   3.674  15.620  1.0235  2.1252  1.3126
 4454TIP3    H234778   1.344   3.599  15.650  2.0999 -0.8170 -0.9990
 4455TIP3   OH234779   4.860   2.464   1.986  0.3272  0.1028  0.0950
 4455TIP3    H134780   4.912   2.503   1.916  0.7922 -2.1677 -0.9279
 4455TIP3    H234781   4.801   2.533   2.015  0.5032  1.2659 -2.1650
 4456TIP3   OH234782   5.498   1.303   2.561  0.2164 -1.0032 -0.4255
 4456TIP3    H134783   5.590   1.314   2.585  0.2809 -0.0126 -1.0819
 4456TIP3    H234784   5.501   1.258   2.476  0.2012  1.1845 -1.6481
 4457TIP3   OH234785   6.619   1.165  12.422 -0.3218 -0.5723  0.1872
 4457TIP3    H134786   6.667   1.165  12.505 -0.8579 -1.4497  0.5086
 4457TIP3    H234787   6.687   1.157  12.356  0.1136  0.1570  0.5371
 4458TIP3   OH234788   5.867   6.619   3.513  0.1496 -0.4131  0.1724
 4458TIP3    H134789   5.849   6.699   3.463 -0.3941 -0.5311  0.1756
 4458TIP3    H234790   5.909   6.651   3.593 -0.1928 -0.1178  0.2366
 4459TIP3   OH234791   3.993   3.615  16.760  0.0121  0.0453  0.7410
 4459TIP3    H134792   4.053   3.560  16.811  0.2870 -0.6856 -0.3451
 4459TIP3    H234793   3.918   3.558  16.742 -1.3749  1.1385  2.6395
 4460TIP3   OH234794   3.380   4.280   5.575  0.2822 -0.4166  0.0486
 4460TIP3    H134795   3.438   4.221   5.526  0.1219 -1.4531  1.0738
 4460TIP3    H234796   3.399   4.262   5.667 -0.7999  0.1074  0.3901
 4461TIP3   OH234797   5.902   6.641  13.243 -0.0834  0.2917 -0.6467
 4461TIP3    H134798   5.954   6.595  13.309 -0.2384 -1.0233 -1.4068
 4461TIP3    H234799   5.833   6.685  13.294  0.6134  0.4675  0.1806
 4462TIP3   OH234800   4.692   6.360  16.779  0.6204 -0.3854 -0.4722
 4462TIP3    H134801   4.608   6.392  16.811 -0.4502 -1.0189 -2.4681
 4462TIP3    H234802   4.734   6.321  16.856 -0.5690  0.5938  0.7195
 4463TIP3   OH234803   6.159   0.977  14.824  0.4215 -0.2025  0.7349
 4463TIP3    H134804   6.219   1.043  14.857  0.9480 -0.3221  0.0371
 4463TIP3    H234805   6.121   1.017  14.745 -0.6268 -0.0191  1.3138
 4464TIP3   OH234806   2.668   3.741   3.534 -0.3228  0.3248 -0.4727
 4464TIP3    H134807   2.692   3.832   3.516 -2.0134  0.8371 -0.3430
 4464TIP3    H234808   2.707   3.722   3.619  0.0992  0.9077 -0.5352
 4465TIP3   OH234809   0.044   3.840  13.844  0.0131  0.0239 -0.2491
 4465TIP3    H134810   0.030   3.907  13.777  0.1585 -0.1490 -0.4551
 4465TIP3    H234811  -0.019   3.861  13.913  0.6129  0.8569  0.0598
 4466TIP3   OH234812   4.855   5.813   3.977 -0.0120 -0.2133 -0.4276
 4466TIP3    H134813   4.946   5.821   4.005 -0.5070  2.1745  0.7229
 4466TIP3    H234814   4.806   5.867   4.039 -2.0482 -0.3690 -1.8153
 4467TIP3   OH234815   0.630   3.328  12.696 -0.3707  0.3000 -0.4603
 4467TIP3    H134816   0.546   3.284  12.681  0.3480 -1.1049 -0.5567
 4467TIP3    H234817   0.693   3.278  12.643  0.8035  0.2989  0.8658
 4468TIP3   OH234818   1.039   3.355  16.979 -0.1345  0.5312 -0.1619
 4468TIP3    H134819   0.948   3.348  16.950 -0.6579  2.2105  0.9340
 4468TIP3    H234820   1.089   3.366  16.898 -0.8595 -0.6165 -0.7952
 4469TIP3   OH234821   4.585   1.199   0.434 -0.4079  0.0107 -0.3331
 4469TIP3    H134822   4.673   1.223   0.463 -0.6182 -0.2426  0.5477
 4469TIP3    H234823   4.575   1.241   0.349 -0.1226  1.5795  0.3784
 4470TIP3   OH234824   3.744   3.063  13.586 -0.1553 -0.3976 -0.8044
 4470TIP3    H134825   3.776   3.128  13.648 -2.2483  0.2338 -0.2890
 4470TIP3    H234826   3.819   3.005  13.570  1.0750  0.7500  0.5504
 4471TIP3   OH234827   6.319   1.415   0.442 -0.3095  0.1323  0.4037
 4471TIP3    H134828   6.366   1.363   0.508  2.1644 -0.4205 -1.6527
 4471TIP3    H234829   6.350   1.504   0.456 -0.0167  0.0665  0.1656
 4472TIP3   OH234830   6.362   1.720  14.734 -0.5876 -0.0352 -0.4978
 4472TIP3    H134831   6.433   1.667  14.771  0.8185  1.1809 -1.3173
 4472TIP3    H234832   6.356   1.796  14.793 -2.4769 -0.9502  0.5823
 4473TIP3   OH234833   5.588   0.839  14.995  0.4897  0.1865 -0.2385
 4473TIP3    H134834   5.664   0.881  14.955  1.6673 -1.4100  0.2157
 4473TIP3    H234835   5.575   0.759  14.945  0.8588 -0.9371  1.3825
 4474TIP3   OH234836   1.197   1.854  15.633  0.4209  0.2780 -0.5421
 4474TIP3    H134837   1.202   1.833  15.726  1.3697 -0.3251 -0.7105
 4474TIP3    H234838   1.232   1.776  15.589  0.0987  0.6031 -1.3976
 4475TIP3   OH234839   0.676   5.066   5.239 -0.4447  0.0150 -0.3417
 4475TIP3    H134840   0.616   4.992   5.250  0.1660 -0.5147 -0.4695
 4475TIP3    H234841   0.757   5.037   5.281 -0.3609  0.8270  0.0684
 4476TIP3   OH234842   4.817   1.437  11.083 -0.7148 -0.4404  1.2233
 4476TIP3    H134843   4.755   1.507  11.063 -0.5499 -0.4081  0.8235
 4476TIP3    H234844   4.903   1.478  11.080 -0.3715 -1.1386 -1.5661
 4477TIP3   OH234845   5.453   4.300  11.600 -0.2768 -0.4167  0.8582
 4477TIP3    H134846   5.487   4.301  11.689  1.4528 -1.5135  0.2716
 4477TIP3    H234847   5.458   4.208  11.574  0.7668  0.0820 -0.8894
 4478TIP3   OH234848   3.428   4.843  14.725 -0.6779 -0.2257 -0.4035
 4478TIP3    H134849   3.507   4.853  14.672 -2.0385  0.8899 -2.3222
 4478TIP3    H234850   3.452   4.778  14.791  1.0310 -1.9063 -2.5292
 4479TIP3   OH234851   1.524   5.456   2.750 -0.1258 -0.2789  1.0935
 4479TIP3    H134852   1.501   5.522   2.686  0.5433  0.1867  1.3162
 4479TIP3    H234853   1.561   5.384   2.699 -1.4489 -0.7691  0.7939
 4480TIP3   OH234854   5.170   2.835   6.113  0.9800 -0.0713  0.4900
 4480TIP3    H134855   5.114   2.860   6.186 -1.5085  1.6440 -1.7929
 4480TIP3    H234856   5.253   2.880   6.129 -0.9838  4.1877  0.1752
 4481TIP3   OH234857   2.902   2.492  14.273 -0.1243 -0.3920 -0.1391
 4481TIP3    H134858   2.982   2.511  14.322 -0.6037  0.3727  0.3613
 4481TIP3    H234859   2.910   2.545  14.193 -0.3103 -0.0052  0.0965
 4482TIP3   OH234860   3.643   3.284  12.567 -0.1813  0.2968 -0.4685
 4482TIP3    H134861   3.551   3.266  12.587 -0.2581  2.1703  1.0586
 4482TIP3    H234862   3.691   3.253  12.644  0.4488 -0.2339 -1.0606
 4483TIP3   OH234863   0.826   0.696   5.606  0.3932  0.8481  0.3731
 4483TIP3    H134864   0.862   0.783   5.624  1.2563  0.5081  0.3396
 4483TIP3    H234865   0.738   0.698   5.643  0.1355  1.9819 -0.2778
 4484TIP3   OH234866   0.778   2.959  11.171  0.1436 -0.4372 -0.3377
 4484TIP3    H134867   0.728   2.931  11.093 -1.2864  2.4132 -0.5803
 4484TIP3    H234868   0.716   3.012  11.221  1.6809 -0.4581  1.6969
 4485TIP3   OH234869   1.595   2.730   4.526  0.5074 -0.2225  0.0474
 4485TIP3    H134870   1.562   2.662   4.467 -0.5711  1.4020 -1.2997
 4485TIP3    H234871   1.682   2.699   4.551  0.3571 -1.7260 -1.1167
 4486TIP3   OH234872   3.860   0.506  11.987 -0.0946  0.0110 -0.2157
 4486TIP3    H134873   3.902   0.459  12.059 -0.0261 -0.1562 -0.3639
 4486TIP3    H234874   3.928   0.514  11.920  0.0315  0.7297 -0.0089
 4487TIP3   OH234875   3.093   3.201   5.553 -0.3610  0.7215  0.1346
 4487TIP3    H134876   3.052   3.234   5.634  1.1734  2.4169  0.2848
 4487TIP3    H234877   3.163   3.144   5.584 -0.5207  0.4311 -0.0398
 4488TIP3   OH234878   1.625   0.743   0.958 -0.7621 -0.0261  0.5802
 4488TIP3    H134879   1.603   0.665   0.907 -0.8338  0.3396  0.0456
 4488TIP3    H234880   1.595   0.816   0.904  0.6665  0.4339  0.3921
 4489TIP3   OH234881   3.920   4.472   3.875 -0.0348  0.0636  0.5767
 4489TIP3    H134882   3.931   4.551   3.928  1.0629  0.9960 -0.9512
 4489TIP3    H234883   3.976   4.407   3.918  0.6330  0.7156  0.7218
 4490TIP3   OH234884   2.159   6.021   1.500 -0.2060 -0.1696  0.1848
 4490TIP3    H134885   2.118   5.977   1.426 -0.8100  0.5545  0.0719
 4490TIP3    H234886   2.104   5.999   1.575  0.1558 -0.5475  0.3431
 4491TIP3   OH234887   0.701   0.863  13.849  0.1517  0.7109  0.2052
 4491TIP3    H134888   0.623   0.832  13.803 -0.5722  2.2157  0.3618
 4491TIP3    H234889   0.748   0.783  13.873 -0.4810 -0.1850 -1.3502
 4492TIP3   OH234890   6.684   2.029   0.606  0.0444  0.0215 -0.1775
 4492TIP3    H134891   6.601   1.994   0.638  0.3845  0.6948  1.5663
 4492TIP3    H234892   6.750   1.965   0.633  0.3739  0.7498  0.8133
 4493TIP3   OH234893   5.070   0.700  16.214 -0.5265  0.1123 -0.1799
 4493TIP3    H134894   5.051   0.793  16.223 -3.3698 -0.3684 -0.2302
 4493TIP3    H234895   5.062   0.683  16.120  0.4553 -0.1383 -0.2355
 4494TIP3   OH234896   0.522   0.525  15.428  0.7169  0.0407 -0.5362
 4494TIP3    H134897   0.482   0.609  15.450  2.5844  0.9519 -0.3399
 4494TIP3    H234898   0.477   0.496  15.349  0.9392  1.9404 -1.4140
 4495TIP3   OH234899   1.271   3.426  16.839  0.1585  0.2043 -0.0456
 4495TIP3    H134900   1.274   3.513  16.799  0.1332 -0.8123 -2.4718
 4495TIP3    H234901   1.340   3.377  16.794 -1.0582 -1.5413 -0.0948
 4496TIP3   OH234902   3.067   1.361   2.374  0.0144  0.0286  0.2306
 4496TIP3    H134903   3.155   1.358   2.412 -0.1849  2.0520  1.0043
 4496TIP3    H234904   3.073   1.430   2.308 -0.9669  0.1544  0.2651
 4497TIP3   OH234905   0.528   5.657  14.816 -0.0054  0.1787  0.0935
 4497TIP3    H134906   0.440   5.635  14.784 -0.5244  0.1946  1.4207
 4497TIP3    H234907   0.519   5.747  14.849  1.0209  0.8935 -1.4962
 4498TIP3   OH234908   4.615   0.756  14.188 -0.7609  0.0608  0.4689
 4498TIP3    H134909   4.659   0.809  14.122  0.2501 -1.1696  0.1089
 4498TIP3    H234910   4.525   0.790  14.190  0.0889  2.4898  1.0814
 4499TIP3   OH234911   4.294   5.324  15.388 -0.4025  0.3265 -0.1059
 4499TIP3    H134912   4.322   5.260  15.454 -0.5267  0.5684  0.1825
 4499TIP3    H234913   4.368   5.382  15.377  0.0013 -0.3187 -0.9414
 4500TIP3   OH234914   3.004   1.151  16.052  0.0706 -0.4497  0.1766
 4500TIP3    H134915   3.090   1.179  16.020  0.3023  0.8506  1.7946
 4500TIP3    H234916   2.941   1.197  15.996  0.4317 -0.4350 -0.2216
 4501TIP3   OH234917   3.347   0.604  11.680  0.2809  0.1093  0.3765
 4501TIP3    H134918   3.313   0.676  11.627  0.3300 -0.9085 -1.0795
 4501TIP3    H234919   3.442   0.615  11.677  0.2671  0.3228  0.6609
 4502TIP3   OH234920   0.909   5.081   2.977  0.0363 -0.0051 -0.1078
 4502TIP3    H134921   0.939   4.999   2.938 -0.6962 -1.9498  3.0842
 4502TIP3    H234922   0.931   5.073   3.069  0.1319  3.5651  0.3023
 4503TIP3   OH234923   5.574   6.155   3.474  0.0083  0.0594  0.1881
 4503TIP3    H134924   5.628   6.233   3.460  2.5373 -1.6834 -0.4544
 4503TIP3    H234925   5.486   6.181   3.445  0.7801  2.5998 -0.1031
 4504TIP3   OH234926   5.255   4.437  11.177 -0.5933 -0.0242 -0.4151
 4504TIP3    H134927   5.211   4.377  11.116  0.1915  0.8130 -1.8505
 4504TIP3    H234928   5.222   4.524  11.154  0.8584  0.4803 -0.7093
 4505TIP3   OH234929   4.473   5.899  13.066  0.1063 -0.5193  0.1338
 4505TIP3    H134930   4.447   5.818  13.023  0.8804 -1.3386  1.1608
 4505TIP3    H234931   4.418   5.904  13.144  2.9148 -2.3450  2.4038
 4506TIP3   OH234932   4.272   2.843  11.761 -0.3236  0.5819 -0.0210
 4506TIP3    H134933   4.328   2.795  11.700 -1.0575 -0.3062 -0.0212
 4506TIP3    H234934   4.320   2.924  11.779  2.8044 -1.6401  2.8765
 4507TIP3   OH234935   0.812   0.344  11.708 -0.1939 -0.1252 -0.2838
 4507TIP3    H134936   0.791   0.260  11.749 -1.2843  0.6701  0.8547
 4507TIP3    H234937   0.799   0.408  11.777 -1.2660  1.1855 -1.6352
 4508TIP3   OH234938   1.586   1.746   0.656 -0.4310 -0.2464 -0.3832
 4508TIP3    H134939   1.569   1.753   0.750 -1.1285 -1.4491 -0.4069
 4508TIP3    H234940   1.586   1.836   0.625 -1.4489  0.0985  0.5560
 4509TIP3   OH234941   0.678   5.403   6.090  0.1346  0.2669  0.2162
 4509TIP3    H134942   0.657   5.367   6.176 -0.0138 -1.2044 -0.4129
 4509TIP3    H234943   0.636   5.344   6.028  1.0416  0.7544 -0.9039
 4510TIP3   OH234944   6.250   4.100  13.102  0.4854 -0.4293 -0.4829
 4510TIP3    H134945   6.211   4.036  13.043 -0.0607 -0.6116  0.0623
 4510TIP3    H234946   6.285   4.168  13.044  0.0132 -0.6293 -1.0170
 4511TIP3   OH234947   5.656   1.887   2.855 -0.3590 -0.2372 -0.1028
 4511TIP3    H134948   5.653   1.981   2.871 -0.6308 -0.1667 -0.5366
 4511TIP3    H234949   5.619   1.847   2.933  1.4645 -0.0851  0.8847
 4512TIP3   OH234950   4.275   3.327  14.903 -0.1431  0.4637 -0.7268
 4512TIP3    H134951   4.316   3.276  14.833  0.4226  0.3909 -0.3589
 4512TIP3    H234952   4.220   3.263  14.949 -0.0296  0.3629 -0.7287
 4513TIP3   OH234953   2.239   2.577   0.294 -0.4571 -0.0332  0.1219
 4513TIP3    H134954   2.220   2.549   0.384 -0.5002  0.2197  0.1924
 4513TIP3    H234955   2.197   2.663   0.286  0.2846  0.3399  0.1367
 4514TIP3   OH234956   0.331   4.990   3.035 -0.0852 -0.0000  0.4051
 4514TIP3    H134957   0.399   5.042   2.992  1.2354 -0.0197  2.3132
 4514TIP3    H234958   0.350   4.899   3.009  1.6789 -0.2014  2.1042
 4515TIP3   OH234959   1.533   0.342   4.491  0.2961 -0.6242 -0.4125
 4515TIP3    H134960   1.467   0.311   4.553  1.1414 -1.3911  0.1182
 4515TIP3    H234961   1.494   0.420   4.452 -0.5159 -0.4966  0.6146
 4516TIP3   OH234962   3.263   2.486  16.624 -0.5699 -0.4802 -0.1325
 4516TIP3    H134963   3.327   2.419  16.599 -0.2172 -0.1846 -0.0248
 4516TIP3    H234964   3.178   2.447  16.603 -0.4592 -1.5203  1.2005
 4517TIP3   OH234965   0.385   3.131  13.714  0.0283  0.4712  0.4220
 4517TIP3    H134966   0.458   3.074  13.692  0.5712  1.4002 -0.2544
 4517TIP3    H234967   0.420   3.188  13.783 -0.1581  0.6918  0.3357
 4518TIP3   OH234968   4.702   6.311   1.320 -0.1191  0.3053  0.0735
 4518TIP3    H134969   4.786   6.267   1.334  1.4087  3.1921  0.9265
 4518TIP3    H234970   4.724   6.390   1.271 -1.9727  2.1924  2.0568
 4519TIP3   OH234971   6.720   6.581  16.439 -0.4911  0.2262  0.4039
 4519TIP3    H134972   6.716   6.544  16.351  0.7621  0.7177  0.1240
 4519TIP3    H234973   6.666   6.660  16.434  0.9481  1.2112 -0.4433
 4520TIP3   OH234974   6.594   0.530  14.970  0.4735 -0.3326  0.1552
 4520TIP3    H134975   6.587   0.617  15.007  0.8298 -0.1237 -0.2546
 4520TIP3    H234976   6.504   0.497  14.968  0.2100  0.3884 -0.5421
 4521TIP3   OH234977   3.426   0.712   5.402  0.1636  0.5333 -0.5244
 4521TIP3    H134978   3.348   0.657   5.405 -1.1467  2.1864 -1.9108
 4521TIP3    H234979   3.411   0.778   5.470  2.1429 -1.1700  1.7749
 4522TIP3   OH234980   0.740   3.825   1.335  0.4446 -0.0186  0.2282
 4522TIP3    H134981   0.708   3.791   1.251  0.5105  0.2802  0.0819
 4522TIP3    H234982   0.774   3.748   1.381  0.0503 -0.2466  0.1429
 4523TIP3   OH234983   4.300   5.638   0.205 -0.1221 -0.5999  0.1318
 4523TIP3    H134984   4.359   5.563   0.209  0.9788  0.2664  2.2668
 4523TIP3    H234985   4.244   5.628   0.283  0.4364  1.0290  0.7851
 4524TIP3   OH234986   2.054   3.304  12.381 -0.4611 -0.5710 -0.8539
 4524TIP3    H134987   2.147   3.297  12.401 -0.4607  2.1954  0.5929
 4524TIP3    H234988   2.039   3.237  12.314  1.8438 -3.2570  1.0708
 4525TIP3   OH234989   1.740   0.538   1.397 -0.6940 -0.1690 -0.2939
 4525TIP3    H134990   1.772   0.565   1.311 -1.6339  0.1198 -0.5641
 4525TIP3    H234991   1.681   0.609   1.424 -1.4452 -0.8825 -0.0092
 4526TIP3   OH234992   5.794   3.155  14.648  0.0642  0.0025 -0.3642
 4526TIP3    H134993   5.835   3.102  14.579 -0.0929  0.8094 -1.0884
 4526TIP3    H234994   5.786   3.095  14.722  2.1047 -0.3313 -0.3493
 4527TIP3   OH234995   6.431   3.821   4.154  0.2090 -0.2035 -0.0906
 4527TIP3    H134996   6.523   3.837   4.175  0.4027 -1.6549  0.2727
 4527TIP3    H234997   6.405   3.751   4.214 -1.2471  0.4286  0.0569
 4528TIP3   OH234998   5.615   5.040  12.589  0.0967  0.3335  0.3498
 4528TIP3    H134999   5.531   5.007  12.558  0.4890  0.3294 -0.7306
 4528TIP3    H235000   5.619   5.130  12.558 -0.7145  1.2874  2.7965
 4529TIP3   OH235001   0.628   6.198  11.498  0.2322 -0.3304 -0.0914
 4529TIP3    H135002   0.614   6.161  11.585  2.0178 -3.0006 -0.8276
 4529TIP3    H235003   0.722   6.215  11.494  0.1453 -0.0604 -1.4524
 4530TIP3   OH235004   0.027   6.615   4.793  0.5539  0.6447 -0.1258
 4530TIP3    H135005   0.103   6.640   4.846 -0.0484  0.5218  0.8289
 4530TIP3    H235006  -0.049   6.642   4.846 -0.0667  0.7316 -1.0405
 4531TIP3   OH235007   0.899   1.201   6.143 -0.7299  0.2218  0.4451
 4531TIP3    H135008   0.890   1.208   6.048  0.0859  0.2942  0.3677
 4531TIP3    H235009   0.993   1.203   6.158 -0.8762  2.1808  1.4150
 4532TIP3   OH235010   4.171   1.892   2.997  0.1667 -0.3701  0.4136
 4532TIP3    H135011   4.160   1.900   2.902  2.2970 -0.0728  0.1359
 4532TIP3    H235012   4.206   1.977   3.024  0.5371 -0.7933  1.3056
 4533TIP3   OH235013   1.524   4.482  16.474  0.0470 -0.3947  0.0351
 4533TIP3    H135014   1.481   4.399  16.492  1.0802 -1.0308 -0.2996
 4533TIP3    H235015   1.467   4.548  16.513 -0.9033 -1.2380  0.1150
 4534TIP3   OH235016   3.912   6.187   4.157 -0.1904 -0.0056  0.2079
 4534TIP3    H135017   3.863   6.237   4.091  1.2356  2.0869  0.6211
 4534TIP3    H235018   4.003   6.215   4.144  0.3994 -1.1169  1.7284
 4535TIP3   OH235019   0.725   2.117  15.222  0.0935  0.4577 -0.3703
 4535TIP3    H135020   0.751   2.082  15.308 -0.6404  1.3767  0.2446
 4535TIP3    H235021   0.807   2.125  15.174  0.2495 -2.9851 -0.9274
 4536TIP3   OH235022   0.250   0.627   1.551 -0.5049  0.7237  0.3549
 4536TIP3    H135023   0.226   0.716   1.524  0.8534  2.4590  4.1527
 4536TIP3    H235024   0.344   0.622   1.536 -0.6722 -0.4032 -0.4657
 4537TIP3   OH235025   5.667   6.132  13.195  0.5121  0.2693 -0.3855
 4537TIP3    H135026   5.763   6.138  13.199  0.4584  0.8716  0.3490
 4537TIP3    H235027   5.641   6.207  13.143  0.3067  1.7449  1.7288
 4538TIP3   OH235028   5.453   3.426  12.658 -0.0818  0.0359  0.5503
 4538TIP3    H135029   5.505   3.456  12.732 -1.2368  1.4298  0.8372
 4538TIP3    H235030   5.513   3.371  12.608  2.1799  2.6435  0.1115
 4539TIP3   OH235031   1.676   5.603  12.547 -0.5193 -0.3570  0.0911
 4539TIP3    H135032   1.632   5.659  12.483  1.5034  0.3311 -0.8084
 4539TIP3    H235033   1.660   5.514  12.517 -1.5802 -0.1494  0.0192
 4540TIP3   OH235034   5.946   1.510   2.749 -0.6202  0.2297 -0.3410
 4540TIP3    H135035   6.015   1.547   2.694 -0.9090  1.8423  0.3180
 4540TIP3    H235036   5.919   1.583   2.805 -1.4968 -0.9114  0.7683
 4541TIP3   OH235037   6.672   2.662   4.597  0.0949  0.3716  0.0093
 4541TIP3    H135038   6.755   2.707   4.581 -0.2023  0.6646 -0.7592
 4541TIP3    H235039   6.691   2.569   4.579  0.1587  0.4946 -0.5975
 4542TIP3   OH235040   1.036   1.848  14.295  0.2033 -0.3431  0.1763
 4542TIP3    H135041   1.022   1.855  14.200 -0.1997  1.0107  0.3038
 4542TIP3    H235042   1.097   1.775  14.306  0.4629 -0.3431 -1.1466
 4543TIP3   OH235043   6.378   6.456   0.535  0.1935  0.0557  0.3598
 4543TIP3    H135044   6.420   6.473   0.451  0.9329 -0.6028  0.5896
 4543TIP3    H235045   6.341   6.368   0.525 -0.8744  0.5017  0.2682
 4544TIP3   OH235046   4.137   0.892   1.180  0.0707 -0.5523  0.4275
 4544TIP3    H135047   4.118   0.802   1.155 -0.4942  0.2242 -2.2524
 4544TIP3    H235048   4.051   0.932   1.193  0.1967  0.1865 -0.8475
 4545TIP3   OH235049   2.112   2.308   1.024 -0.0669  0.4555  0.4443
 4545TIP3    H135050   2.112   2.238   0.959  2.3530  1.8084 -1.1523
 4545TIP3    H235051   2.085   2.265   1.105 -3.8875 -1.2042 -1.4356
 4546TIP3   OH235052   4.173   0.718  14.138  0.2291 -0.0643 -0.4392
 4546TIP3    H135053   4.173   0.627  14.167  1.3422  0.1294  0.2220
 4546TIP3    H235054   4.261   0.750  14.159 -0.0500  1.0826 -0.9301
 4547TIP3   OH235055   6.030   5.608  10.867 -0.2351 -0.2488  0.9342
 4547TIP3    H135056   6.087   5.675  10.829  1.0301 -0.4433  2.3740
 4547TIP3    H235057   5.987   5.652  10.941 -1.8505 -0.1587 -0.0241
 4548TIP3   OH235058   3.269   2.658  16.073 -0.4834  0.0332 -0.4835
 4548TIP3    H135059   3.235   2.601  16.004 -0.4708 -2.0066  1.1080
 4548TIP3    H235060   3.353   2.689  16.039  0.3675 -2.3563 -0.7328
 4549TIP3   OH235061   3.935   3.368  13.928 -0.0984 -0.0458  0.4325
 4549TIP3    H135062   3.946   3.452  13.883 -0.7767  0.1814  0.6761
 4549TIP3    H235063   3.840   3.355  13.931  0.0116 -1.9836 -1.7403
 4550TIP3   OH235064   2.459   3.005  11.764 -0.1072  0.3101 -0.2077
 4550TIP3    H135065   2.429   2.959  11.685 -2.0634 -0.8813  1.1539
 4550TIP3    H235066   2.499   3.086  11.730 -1.9382  0.4200 -2.3672
 4551TIP3   OH235067   2.670   4.992   5.397 -0.5771  0.0219  0.1196
 4551TIP3    H135068   2.599   4.944   5.354  0.5326 -3.0033  1.3880
 4551TIP3    H235069   2.732   5.011   5.326 -0.6666 -1.2029 -0.3108
 4552TIP3   OH235070   2.361   3.358   3.091  0.3081 -0.6909 -0.8678
 4552TIP3    H135071   2.368   3.284   3.152  1.1773  0.1735  0.1063
 4552TIP3    H235072   2.448   3.397   3.091 -0.4862  1.1581 -0.3218
 4553TIP3   OH235073   6.218   6.248   1.442 -0.0674 -0.1472 -0.4006
 4553TIP3    H135074   6.224   6.164   1.397 -0.2153  0.2958 -1.2620
 4553TIP3    H235075   6.269   6.308   1.389 -2.1797  0.9430 -1.3493
 4554TIP3   OH235076   2.372   2.442   0.977 -0.7183  0.1279  0.2089
 4554TIP3    H135077   2.289   2.421   1.020 -1.0417  3.2322  1.3551
 4554TIP3    H235078   2.438   2.424   1.044 -0.7406  0.3151  0.2810
 4555TIP3   OH235079   0.945   3.809   0.975 -0.8181 -0.3861 -0.3780
 4555TIP3    H135080   0.921   3.719   0.956  0.5855 -1.0754  0.9213
 4555TIP3    H235081   0.972   3.808   1.067  0.5903  1.0385 -0.7322
 4556TIP3   OH235082   1.723   1.840  15.617 -0.3826 -0.6730  0.2198
 4556TIP3    H135083   1.647   1.811  15.667 -1.1290 -1.7202 -1.4520
 4556TIP3    H235084   1.693   1.844  15.526  1.3661 -0.4452 -0.3939
 4557TIP3   OH235085   6.645   3.394   2.378 -0.2235  0.2071  0.1963
 4557TIP3    H135086   6.622   3.341   2.455  0.2180  0.2692  0.3785
 4557TIP3    H235087   6.576   3.377   2.315  0.9617 -2.2728 -0.5629
 4558TIP3   OH235088   4.728   5.555   0.309 -0.0167 -0.2402  0.0403
 4558TIP3    H135089   4.659   5.610   0.347  0.6257  0.7186 -0.1535
 4558TIP3    H235090   4.770   5.611   0.244  1.3301 -0.6084  0.5632
 4559TIP3   OH235091   2.713   6.182  11.455 -0.0532 -0.1858 -0.0214
 4559TIP3    H135092   2.722   6.196  11.550 -2.0790 -0.1326  0.2100
 4559TIP3    H235093   2.779   6.240  11.416 -0.0577  0.7854  1.3196
 4560TIP3   OH235094   0.653   1.229   4.032  0.0342 -0.0724  1.0032
 4560TIP3    H135095   0.681   1.226   4.124  1.8183  0.4124  0.4912
 4560TIP3    H235096   0.643   1.137   4.008 -1.8255 -0.2049  2.0430
 4561TIP3   OH235097   4.764   1.052  16.547  0.1372 -0.0417  0.1084
 4561TIP3    H135098   4.839   0.993  16.555 -0.4542 -0.9180 -0.5399
 4561TIP3    H235099   4.799   1.139  16.566  0.8966 -0.6685  1.7452
 4562TIP3   OH235100   1.934   4.827   4.646 -0.5433 -0.1649  0.0171
 4562TIP3    H135101   1.881   4.877   4.585  2.1158  1.8637 -0.8511
 4562TIP3    H235102   1.969   4.754   4.594 -0.8962 -0.3456  0.0349
 4563TIP3   OH235103   4.033   6.349   3.484 -0.3334  0.0121 -0.5199
 4563TIP3    H135104   4.024   6.444   3.490 -0.6083 -0.0531  0.2567
 4563TIP3    H235105   4.117   6.335   3.441  0.2221  0.6045  0.3494
 4564TIP3   OH235106   1.286   1.013   2.243  0.5448  0.6351  0.0533
 4564TIP3    H135107   1.247   1.041   2.160  0.4458  0.3782  0.0105
 4564TIP3    H235108   1.213   1.011   2.304 -0.0739 -2.2918 -0.6244
 4565TIP3   OH235109   2.712   4.233   5.812 -0.9467  0.5314  0.2131
 4565TIP3    H135110   2.719   4.231   5.907  0.4999  1.4020  0.1618
 4565TIP3    H235111   2.759   4.155   5.783 -2.1354 -0.2016  0.2263
 4566TIP3   OH235112   2.668   5.999  16.362  0.3665 -0.1849  0.0864
 4566TIP3    H135113   2.742   6.039  16.316  1.1761 -0.6765  0.9168
 4566TIP3    H235114   2.701   5.982  16.450 -0.9740  0.2468  0.6989
 4567TIP3   OH235115   1.855   2.460  12.843 -0.1705 -0.1191 -0.2435
 4567TIP3    H135116   1.793   2.484  12.912  0.0641  0.2569 -0.1604
 4567TIP3    H235117   1.835   2.518  12.770  0.2509  0.1895 -0.1218
 4568TIP3   OH235118   6.152   5.013   0.008 -0.6530 -0.1455 -0.4640
 4568TIP3    H135119   6.236   4.967   0.014 -0.2868  0.4484 -0.9196
 4568TIP3    H235120   6.087   4.949   0.039 -0.1644 -0.9618 -1.0842
 4569TIP3   OH235121   3.121   6.758   4.949 -0.4268 -0.2611 -0.5056
 4569TIP3    H135122   3.116   6.710   5.032  3.1948  0.4395  0.2962
 4569TIP3    H235123   3.147   6.693   4.885  0.2657 -0.1993 -0.3014
 4570TIP3   OH235124   3.320   6.375  15.426 -0.0036 -0.2254  0.5953
 4570TIP3    H135125   3.384   6.383  15.497  1.8043 -1.4884 -0.8141
 4570TIP3    H235126   3.346   6.296  15.379 -1.2162  0.5051 -1.4178
 4571TIP3   OH235127   2.060   3.665  16.138 -0.1741  0.4826  0.2282
 4571TIP3    H135128   2.096   3.731  16.080  0.2186 -0.4757 -0.6442
 4571TIP3    H235129   2.102   3.681  16.222  0.7919  0.6164 -0.2689
 4572TIP3   OH235130   2.203   6.780  11.623  0.2076  0.1814 -0.3340
 4572TIP3    H135131   2.219   6.846  11.691 -0.7386 -0.0227  0.0951
 4572TIP3    H235132   2.114   6.751  11.638 -0.3638  0.7673 -2.2303
 4573TIP3   OH235133   0.338   0.806   1.227  0.2130 -0.5483 -0.2272
 4573TIP3    H135134   0.244   0.816   1.243  0.0210 -0.5449 -1.3281
 4573TIP3    H235135   0.368   0.746   1.295  0.1584  2.3038  2.5905
 4574TIP3   OH235136   1.380   1.603   4.092  0.4996  0.1785  0.4699
 4574TIP3    H135137   1.380   1.508   4.100 -2.9387 -0.1700 -1.6795
 4574TIP3    H235138   1.290   1.629   4.112  1.0121  2.8471 -0.3118
 4575TIP3   OH235139   2.556   6.685  14.042 -0.3985 -0.2815  0.0919
 4575TIP3    H135140   2.584   6.641  13.961 -1.3320 -1.2733  0.2818
 4575TIP3    H235141   2.536   6.613  14.102 -2.5822  0.3525  0.2197
 4576TIP3   OH235142   0.932   2.979  13.399  0.4440  0.1510 -0.2847
 4576TIP3    H135143   0.873   2.909  13.424 -0.5053  0.0687 -2.4890
 4576TIP3    H235144   0.946   3.029  13.479 -1.5119 -0.6263  0.5995
 4577TIP3   OH235145   0.511   6.605   4.911  0.7102 -0.0606  0.2129
 4577TIP3    H135146   0.560   6.524   4.899  0.8672 -0.1139  1.1336
 4577TIP3    H235147   0.519   6.651   4.827  1.3018 -0.6230 -0.0470
 4578TIP3   OH235148   1.252   2.814  16.794 -0.0147  0.1512  0.1742
 4578TIP3    H135149   1.232   2.871  16.869 -2.0234  0.0131 -0.2074
 4578TIP3    H235150   1.209   2.856  16.720 -1.3702 -1.6815 -0.1660
 4579TIP3   OH235151   1.723   1.976  10.987  0.0896 -0.4088  0.1549
 4579TIP3    H135152   1.791   2.042  10.975 -0.0679 -0.3436 -0.4113
 4579TIP3    H235153   1.738   1.913  10.917 -0.7741 -0.1009 -0.3252
 4580TIP3   OH235154   0.018   6.359   0.803 -0.2745  0.2881 -0.1896
 4580TIP3    H135155  -0.046   6.401   0.860 -0.8650 -1.2354  0.3072
 4580TIP3    H235156  -0.027   6.353   0.718 -0.4389  0.0617 -0.0868
 4581TIP3   OH235157   0.949   5.381   3.827 -0.1825  0.1264  0.2542
 4581TIP3    H135158   0.872   5.381   3.771  0.8601  0.2742 -1.2490
 4581TIP3    H235159   0.982   5.471   3.823  0.6892 -0.1906 -0.0617
 4582TIP3   OH235160   2.564   5.166  12.733  0.2845  0.7580 -0.6004
 4582TIP3    H135161   2.527   5.081  12.708  2.0218 -0.0629 -0.5051
 4582TIP3    H235162   2.596   5.203  12.651  0.3550  0.9077 -0.5057
 4583TIP3   OH235163   1.896   3.401   3.387 -0.3796 -0.3111  0.5235
 4583TIP3    H135164   1.917   3.464   3.318  0.1525 -3.0167 -2.0049
 4583TIP3    H235165   1.979   3.357   3.406 -1.0580 -1.5546  0.7361
 4584TIP3   OH235166   2.733   1.966   3.165 -0.2616 -0.5822 -0.0587
 4584TIP3    H135167   2.764   1.882   3.200  1.8850 -0.6160 -1.8751
 4584TIP3    H235168   2.811   2.020   3.158 -1.2713  0.8281 -0.9825
 4585TIP3   OH235169   1.973   2.906   4.057 -0.4202 -0.1341 -0.1280
 4585TIP3    H135170   2.025   2.952   4.123 -0.8540  0.8973 -0.4938
 4585TIP3    H235171   2.038   2.872   3.996  0.2029 -3.0140  1.9084
 4586TIP3   OH235172   6.224   2.773   4.370  0.4642 -0.2684 -0.0371
 4586TIP3    H135173   6.243   2.687   4.331  1.3995 -0.2111  0.2640
 4586TIP3    H235174   6.293   2.785   4.435  0.2121  0.6220  0.0737
 4587TIP3   OH235175   5.242   2.847   1.707  0.4494 -0.1157  0.2782
 4587TIP3    H135176   5.313   2.823   1.648  1.5206  1.3511  0.9266
 4587TIP3    H235177   5.165   2.851   1.650  0.8096 -1.8294 -0.4145
 4588TIP3   OH235178   1.148   2.627   3.684 -0.1702 -0.0956 -0.0933
 4588TIP3    H135179   1.094   2.630   3.606  1.2098  1.8164 -1.0516
 4588TIP3    H235180   1.108   2.558   3.738 -1.7849 -0.7380 -1.9757
 4589TIP3   OH235181   0.971   1.160  14.362 -0.3374 -0.0782  0.1418
 4589TIP3    H135182   0.959   1.103  14.286  1.8061 -0.3267 -0.0581
 4589TIP3    H235183   0.889   1.151  14.411 -0.4686 -2.5348 -0.4031
 4590TIP3   OH235184   2.380   1.688   0.251  0.0611  0.0314  0.0833
 4590TIP3    H135185   2.381   1.745   0.328  0.6903  1.1158 -0.7014
 4590TIP3    H235186   2.288   1.682   0.226 -0.2394 -0.9216  1.3282
 4591TIP3   OH235187   6.235   5.344   5.314  0.0786  0.7026 -0.5269
 4591TIP3    H135188   6.164   5.354   5.377  0.5739 -1.7521  0.5560
 4591TIP3    H235189   6.293   5.278   5.353  1.1931  0.1637 -2.8779
 4592TIP3   OH235190   5.156   5.347  14.351  0.0343  0.4488 -0.7027
 4592TIP3    H135191   5.110   5.368  14.270 -2.0560 -0.1754  0.2594
 4592TIP3    H235192   5.143   5.423  14.407 -2.4324 -0.8205  0.6136
 4593TIP3   OH235193   0.847   6.616   5.757  0.1151 -0.2212  0.3597
 4593TIP3    H135194   0.754   6.603   5.738  0.3414 -0.1152 -0.9146
 4593TIP3    H235195   0.861   6.572   5.841 -1.6747  2.1273  2.0175
 4594TIP3   OH235196   6.196   6.099  16.422  0.2771  0.9125  0.2094
 4594TIP3    H135197   6.192   6.186  16.461 -2.3350  0.3718  1.3191
 4594TIP3    H235198   6.203   6.040  16.496  3.0504  0.1234 -0.5685
 4595TIP3   OH235199   1.343   3.503  15.052 -0.3202 -0.5251  0.9404
 4595TIP3    H135200   1.322   3.591  15.082  0.6888 -0.0101  0.2019
 4595TIP3    H235201   1.330   3.506  14.957  0.8812 -0.8095  0.7480
 4596TIP3   OH235202   3.213   2.510   0.768 -0.5853  0.1210  0.1696
 4596TIP3    H135203   3.287   2.458   0.801 -0.4231  0.7104  0.7489
 4596TIP3    H235204   3.180   2.459   0.694 -0.8861 -1.1783  1.1595
 4597TIP3   OH235205   5.185   5.560   3.084 -0.1187  0.4621 -0.0927
 4597TIP3    H135206   5.096   5.590   3.102 -0.9161 -1.5121 -0.4433
 4597TIP3    H235207   5.202   5.588   2.994 -0.6135  0.3568 -0.2213
 4598TIP3   OH235208   5.825   1.611   4.048  0.0821 -0.0975  0.1133
 4598TIP3    H135209   5.803   1.518   4.058 -1.1938  0.0455 -1.0971
 4598TIP3    H235210   5.743   1.657   4.062  0.4997  0.7828 -0.2498
 4599TIP3   OH235211   5.596   4.519   3.671 -0.5461 -0.5175 -0.4834
 4599TIP3    H135212   5.516   4.570   3.683 -1.1749 -1.3060 -1.2255
 4599TIP3    H235213   5.566   4.430   3.657  0.4240 -0.6885 -1.6697
 4600TIP3   OH235214   2.090   1.300  16.574 -0.4489  0.1793  0.3476
 4600TIP3    H135215   2.126   1.380  16.537 -2.3782  0.4991 -1.0124
 4600TIP3    H235216   2.067   1.246  16.498 -1.7124 -0.4673  1.1416
 4601TIP3   OH235217   5.461   5.084   3.819  0.9832 -0.1402 -0.2934
 4601TIP3    H135218   5.520   5.155   3.843  2.7165 -1.4625 -0.4402
 4601TIP3    H235219   5.508   5.037   3.750 -1.9230  0.9940 -3.3234
 4602TIP3   OH235220   3.190   3.285   1.306  0.3567 -0.3009 -0.0070
 4602TIP3    H135221   3.213   3.209   1.359 -0.0459 -0.9016 -0.6855
 4602TIP3    H235222   3.189   3.253   1.216 -0.0916  0.4373 -0.2728
 4603TIP3   OH235223   5.379   6.034   5.617  0.2833 -0.3697  0.3045
 4603TIP3    H135224   5.324   6.052   5.541 -1.1856 -2.2702  0.8168
 4603TIP3    H235225   5.404   6.120   5.650 -1.5475  0.5620 -0.5656
 4604TIP3   OH235226   6.281   2.565   2.505  0.0268 -0.3767  0.1426
 4604TIP3    H135227   6.362   2.524   2.475 -0.3049 -2.5246  1.9286
 4604TIP3    H235228   6.295   2.582   2.598 -1.7459 -1.3164  0.6241
 4605TIP3   OH235229   1.425   3.666   2.678  0.0513  0.3497 -0.2446
 4605TIP3    H135230   1.425   3.599   2.747 -0.5654  2.1315  1.5572
 4605TIP3    H235231   1.333   3.689   2.666  0.4456  3.5667  1.9743
 4606TIP3   OH235232   3.870   3.369   2.378 -0.1139 -0.1294 -0.3326
 4606TIP3    H135233   3.960   3.363   2.411 -0.5715  0.9190  1.2223
 4606TIP3    H235234   3.835   3.448   2.418 -1.5258 -0.1308 -1.4799
 4607TIP3   OH235235   5.872   2.112  11.436  0.0976 -0.0989  0.5820
 4607TIP3    H135236   5.852   2.146  11.349  0.5296  1.2122  0.9800
 4607TIP3    H235237   5.871   2.017  11.425  1.8347  0.0224 -1.2680
 4608TIP3   OH235238   2.575   2.687  16.646 -0.1599 -0.1122  0.3927
 4608TIP3    H135239   2.606   2.766  16.689 -1.8787  0.1009  1.3037
 4608TIP3    H235240   2.481   2.684  16.663 -0.2993 -1.8895 -0.3669
 4609TIP3   OH235241   2.812   1.485  12.771  0.1228 -0.4634  0.2734
 4609TIP3    H135242   2.861   1.407  12.797  0.9819 -0.0828 -0.1447
 4609TIP3    H235243   2.795   1.472  12.678  2.3940  0.8958 -0.4181
 4610TIP3   OH235244   2.019   1.187   2.506 -0.2400  0.7724 -0.2742
 4610TIP3    H135245   2.069   1.119   2.550  1.0307 -0.1745 -3.0014
 4610TIP3    H235246   2.077   1.264   2.506 -1.8814  2.2713  3.3094
 4611TIP3   OH235247   2.835   1.835  15.104 -0.2397  0.0945  0.1553
 4611TIP3    H135248   2.891   1.910  15.085  0.3777 -0.5316 -0.5777
 4611TIP3    H235249   2.843   1.779  15.026 -0.2612 -0.9855  0.9025
 4612TIP3   OH235250   6.456   1.799   1.125 -0.7005 -0.3135 -0.3631
 4612TIP3    H135251   6.544   1.777   1.157 -0.4089  2.7576  1.3094
 4612TIP3    H235252   6.470   1.873   1.066 -2.0898 -0.6076 -1.1153
 4613TIP3   OH235253   4.971   5.704   3.114 -0.3134  0.1895 -0.3874
 4613TIP3    H135254   4.897   5.651   3.085 -0.5034  0.7325 -0.9056
 4613TIP3    H235255   4.938   5.750   3.191  0.5022 -2.0195  1.3918
 4614TIP3   OH235256   4.606   0.119  13.470  0.6738  0.2727  0.0887
 4614TIP3    H135257   4.572   0.034  13.441  0.6194  0.0291  0.8397
 4614TIP3    H235258   4.657   0.152  13.396  0.9807 -0.5712 -0.0780
 4615TIP3   OH235259   5.287   6.063  13.571  0.3310 -0.0096  0.0387
 4615TIP3    H135260   5.373   6.091  13.539 -0.0241 -0.0086 -0.9552
 4615TIP3    H235261   5.245   6.023  13.495 -1.4569  2.0834 -0.1667
 4616TIP3   OH235262   6.320   1.524   5.681  0.8128  0.4036 -0.3329
 4616TIP3    H135263   6.381   1.452   5.669  0.1024 -0.1355 -0.7627
 4616TIP3    H235264   6.234   1.486   5.665  0.4430  1.3967 -0.7753
 4617TIP3   OH235265   0.231   3.215  13.180 -1.0254 -0.7649 -0.2663
 4617TIP3    H135266   0.244   3.308  13.198 -0.7165 -0.5538 -1.4882
 4617TIP3    H235267   0.158   3.213  13.118 -2.2892 -1.4819  1.1750
 4618TIP3   OH235268   2.044   0.982  16.452 -0.1722  0.1701 -0.6041
 4618TIP3    H135269   1.955   1.011  16.435 -0.1407  1.4108  1.0937
 4618TIP3    H235270   2.041   0.946  16.541  0.9659  0.0452 -0.5997
 4619TIP3   OH235271   4.665   6.110  15.299  0.7049 -0.1493  0.5182
 4619TIP3    H135272   4.697   6.108  15.209  1.2842 -1.7796  0.7253
 4619TIP3    H235273   4.570   6.103  15.292  0.6803  0.6029  0.0199
 4620TIP3   OH235274   3.230   5.312  12.134  0.4220  0.0632 -0.5482
 4620TIP3    H135275   3.212   5.364  12.056 -0.3604  0.0489 -0.3849
 4620TIP3    H235276   3.160   5.247  12.137  1.5410 -1.1902 -0.9002
 4621TIP3   OH235277   3.678   2.405   1.751  0.8398  0.4236 -0.0332
 4621TIP3    H135278   3.627   2.346   1.695  2.5247  0.6453 -1.8795
 4621TIP3    H235279   3.615   2.471   1.780  0.0586  0.7788 -2.3699
 4622TIP3   OH235280   0.048   0.607   5.620  0.0197 -0.0708 -0.3060
 4622TIP3    H135281  -0.005   0.682   5.592  0.8326  0.5430 -0.2394
 4622TIP3    H235282   0.027   0.537   5.558 -0.7365  0.2113 -0.3784
 4623TIP3   OH235283   3.672   2.962   3.069  0.3466  0.4130  0.6227
 4623TIP3    H135284   3.587   3.007   3.069  0.1554  0.2135 -2.4004
 4623TIP3    H235285   3.731   3.025   3.111 -0.4305  2.5689 -1.2688
 4624TIP3   OH235286   4.449   5.716   2.996 -0.1447  0.4673 -0.2855
 4624TIP3    H135287   4.427   5.714   2.903 -0.1868  0.8171 -0.2817
 4624TIP3    H235288   4.387   5.778   3.035  0.9946  1.6809 -0.3215
 4625TIP3   OH235289   0.193   4.274  12.862 -0.3194 -0.3046  0.4050
 4625TIP3    H135290   0.215   4.182  12.847  0.8481  0.1658 -1.1399
 4625TIP3    H235291   0.150   4.276  12.947  1.1304 -2.0579  1.2448
 4626TIP3   OH235292   2.656   3.991   4.907 -0.4401 -0.2968 -0.2091
 4626TIP3    H135293   2.721   4.060   4.919 -0.9743  0.1913 -0.0859
 4626TIP3    H235294   2.606   4.018   4.830 -1.1172 -0.1650  0.2674
 4627TIP3   OH235295   0.592   4.503  15.521  0.5678  0.2562  0.2558
 4627TIP3    H135296   0.617   4.436  15.457  0.4319 -0.7435  1.2219
 4627TIP3    H235297   0.580   4.583  15.469 -1.8081 -1.0354 -1.3390
 4628TIP3   OH235298   1.586   3.236  15.579  0.3529 -0.0570 -0.3711
 4628TIP3    H135299   1.511   3.176  15.577  0.1814  0.1017  0.6096
 4628TIP3    H235300   1.663   3.179  15.583  0.2567 -0.2128 -0.6583
 4629TIP3   OH235301   4.534   1.100   0.728 -0.2688  0.7487  0.3912
 4629TIP3    H135302   4.533   1.004   0.720 -2.3198  0.6981  0.8002
 4629TIP3    H235303   4.624   1.120   0.754  0.6049 -0.9222 -1.0817
 4630TIP3   OH235304   5.010   0.766  12.127  0.1331 -0.1172  0.6835
 4630TIP3    H135305   5.088   0.730  12.169 -0.2563 -0.9632  0.6978
 4630TIP3    H235306   5.044   0.811  12.049  0.7200  0.3045  1.1706
 4631TIP3   OH235307   2.219   2.334  15.428  0.2687 -0.1954 -0.6726
 4631TIP3    H135308   2.226   2.239  15.419  2.3087 -0.1402 -0.0906
 4631TIP3    H235309   2.233   2.368  15.339  0.8106 -0.4032 -0.6711
 4632TIP3   OH235310   3.631   4.406  16.683  0.1064 -0.5014  0.2851
 4632TIP3    H135311   3.693   4.356  16.735  0.3870 -0.0350  0.4062
 4632TIP3    H235312   3.667   4.404  16.594  0.6144  0.2635  0.4660
 4633TIP3   OH235313   0.812   1.504   2.297 -0.0853  0.2388  0.2029
 4633TIP3    H135314   0.897   1.543   2.318  0.6002  0.1207 -2.0852
 4633TIP3    H235315   0.748   1.565   2.334  0.9868  1.0659  0.7545
 4634TIP3   OH235316   1.701   2.295   4.212 -0.0353  0.0419  0.2281
 4634TIP3    H135317   1.657   2.210   4.202 -0.5103  0.4960 -2.0281
 4634TIP3    H235318   1.793   2.272   4.228 -0.1768 -0.9210 -0.2607
 4635TIP3   OH235319   2.062   0.295  12.768  0.7111 -0.0148 -0.6972
 4635TIP3    H135320   1.982   0.247  12.786  1.0190 -0.6934 -1.1089
 4635TIP3    H235321   2.064   0.364  12.835 -0.6087  0.5209 -1.1807
 4636TIP3   OH235322   5.164   4.321   1.784  0.4423  0.1184  0.4910
 4636TIP3    H135323   5.100   4.345   1.851 -0.5029  0.4317 -0.4931
 4636TIP3    H235324   5.145   4.381   1.711  2.3369  0.7231  0.4373
 4637TIP3   OH235325   5.087   2.406  12.786 -0.2880 -0.1781  0.1641
 4637TIP3    H135326   5.042   2.381  12.705 -0.4977 -1.7392  0.7311
 4637TIP3    H235327   5.105   2.323  12.829 -1.9987  0.6513  2.6938
 4638TIP3   OH235328   2.139   5.112   2.045  0.0429  0.9528 -0.6934
 4638TIP3    H135329   2.069   5.102   1.981 -0.5364  0.7538 -0.0414
 4638TIP3    H235330   2.218   5.123   1.993 -0.5418  1.7094 -1.4392
 4639TIP3   OH235331   5.211   1.065  16.069 -0.2886  0.4793  0.0438
 4639TIP3    H135332   5.126   1.020  16.076 -0.9763  1.5943 -0.7275
 4639TIP3    H235333   5.275   0.995  16.068 -1.3299 -0.5245 -1.2515
 4640TIP3   OH235334   6.632   5.413  11.477  0.2329 -0.2424 -0.4013
 4640TIP3    H135335   6.705   5.414  11.416  0.4045 -1.2241 -0.2180
 4640TIP3    H235336   6.555   5.398  11.422  0.3637 -0.9167 -0.4016
 4641TIP3   OH235337   6.244   0.769  14.072 -0.6750  0.1552 -0.0750
 4641TIP3    H135338   6.216   0.679  14.055  0.9160 -0.1739 -1.1699
 4641TIP3    H235339   6.339   0.768  14.056 -0.4303  1.7694  1.0181
 4642TIP3   OH235340   6.330   1.611   3.147 -0.0768  0.2139 -0.0518
 4642TIP3    H135341   6.391   1.594   3.219 -0.3782 -0.4238  0.0508
 4642TIP3    H235342   6.386   1.644   3.076  0.6170 -1.8039 -0.4899
 4643TIP3   OH235343   3.325   0.371   4.802 -0.2497  0.1030 -0.5087
 4643TIP3    H135344   3.399   0.423   4.772  0.1390 -0.5268 -0.6592
 4643TIP3    H235345   3.287   0.421   4.874  0.3842  0.3738 -0.3601
 4644TIP3   OH235346   0.801   1.324   5.603 -0.3606  0.4478 -0.2162
 4644TIP3    H135347   0.839   1.338   5.690  1.3003 -0.1267 -0.8021
 4644TIP3    H235348   0.720   1.276   5.619  0.5869 -0.8376  0.9707
 4645TIP3   OH235349   3.218   2.538   5.679  0.2214 -0.0347 -0.8749
 4645TIP3    H135350   3.138   2.551   5.729 -0.9517 -1.4845 -2.2347
 4645TIP3    H235351   3.280   2.501   5.741  0.3051  2.2491  0.5000
 4646TIP3   OH235352   6.343   1.939  11.207  0.1906  0.2150 -0.2690
 4646TIP3    H135353   6.413   1.940  11.142  0.7118 -1.6482  0.2012
 4646TIP3    H235354   6.273   1.992  11.168  1.4686  1.3170 -1.1607
 4647TIP3   OH235355   1.539   2.931   1.269  0.5959  0.5747  0.5122
 4647TIP3    H135356   1.602   2.959   1.335  2.4006 -0.1715 -0.8104
 4647TIP3    H235357   1.582   2.858   1.224 -2.0740 -1.4288  0.9137
 4648TIP3   OH235358   4.880   4.172  16.705 -0.0640  0.4782  0.1570
 4648TIP3    H135359   4.891   4.252  16.757  0.0936  1.5727 -1.4747
 4648TIP3    H235360   4.789   4.175  16.675  0.3790  0.9823 -1.2742
 4649TIP3   OH235361   5.594   5.742  15.225 -0.1911 -0.0655 -0.1440
 4649TIP3    H135362   5.630   5.697  15.301  0.2181 -0.2095 -0.4241
 4649TIP3    H235363   5.658   5.811  15.204 -0.6317  0.4139  0.0567
 4650TIP3   OH235364   1.167   1.589  16.959 -0.4703  0.5144 -0.0911
 4650TIP3    H135365   1.209   1.511  16.994 -1.1774  0.2549  0.1804
 4650TIP3    H235366   1.088   1.557  16.916 -0.5784  1.0413 -0.2916
 4651TIP3   OH235367   4.747   1.701   3.179 -0.1059  0.1533  0.0434
 4651TIP3    H135368   4.714   1.611   3.171  0.8374 -0.2368  0.4047
 4651TIP3    H235369   4.784   1.705   3.267  2.2295  0.0766 -0.8764
 4652TIP3   OH235370   6.124   4.876   4.541 -0.3982 -0.5330  0.2530
 4652TIP3    H135371   6.117   4.784   4.513 -0.4094 -0.3715 -0.2756
 4652TIP3    H235372   6.208   4.880   4.587  0.4691 -0.4178 -1.2674
 4653TIP3   OH235373   5.441   1.213   3.577 -0.0450  0.6115 -0.2919
 4653TIP3    H135374   5.371   1.151   3.595  0.2272  0.3206 -0.2237
 4653TIP3    H235375   5.505   1.197   3.647 -0.7774  2.1843  0.7899
 4654TIP3   OH235376   5.519   1.042   5.345  0.4574  0.4886 -0.5324
 4654TIP3    H135377   5.540   1.050   5.252 -2.2829  2.2798 -1.1020
 4654TIP3    H235378   5.448   0.977   5.348 -1.1422  2.1968 -0.0498
 4655TIP3   OH235379   2.329   5.639   2.690 -0.1740  0.1779 -0.0643
 4655TIP3    H135380   2.330   5.548   2.662 -2.0374  0.3583 -0.8688
 4655TIP3    H235381   2.361   5.688   2.614  0.8667  0.2047  0.3805
 4656TIP3   OH235382   0.727   6.388   0.749  0.1323 -0.2137 -0.1708
 4656TIP3    H135383   0.755   6.416   0.662  0.0594  1.8707  0.4049
 4656TIP3    H235384   0.779   6.443   0.809 -1.0583 -0.3623  1.0458
 4657TIP3   OH235385   5.468   6.644  12.819 -0.5249 -0.3650 -0.1707
 4657TIP3    H135386   5.425   6.712  12.767 -0.7055 -2.0060 -2.3000
 4657TIP3    H235387   5.442   6.663  12.910 -1.3248  1.8112 -0.8016
 4658TIP3   OH235388   5.449   4.150   6.028  0.0188 -0.5609  0.0728
 4658TIP3    H135389   5.407   4.067   6.050 -1.6616  0.5224  1.1903
 4658TIP3    H235390   5.376   4.208   6.002  0.9829  0.9519  0.6231
 4659TIP3   OH235391   0.981   4.639   5.297  0.1657 -0.7424  0.0165
 4659TIP3    H135392   0.973   4.600   5.210 -0.4319 -0.6621  0.0285
 4659TIP3    H235393   1.007   4.567   5.354 -1.9452 -1.3986  0.2330
 4660TIP3   OH235394   3.483   4.310   3.573 -0.6543  0.2997 -1.4117
 4660TIP3    H135395   3.569   4.281   3.543  0.0513  1.6387 -0.7501
 4660TIP3    H235396   3.479   4.280   3.664 -0.2031  1.5982 -0.9393
 4661TIP3   OH235397   2.280   5.822  14.571  0.0533  0.0234  0.2516
 4661TIP3    H135398   2.369   5.859  14.562  0.0571  0.3050  1.2956
 4661TIP3    H235399   2.222   5.895  14.548  0.0805 -0.1117 -0.2664
 4662TIP3   OH235400   5.158   5.838  10.486  0.1437 -0.0688  0.1426
 4662TIP3    H135401   5.177   5.920  10.439  0.6767 -0.2745 -0.0169
 4662TIP3    H235402   5.081   5.802  10.442  0.6527 -0.2728 -0.6104
 4663TIP3   OH235403   6.289   3.803   2.431  0.8442 -0.6695 -0.2455
 4663TIP3    H135404   6.366   3.746   2.437  1.2683 -0.3342 -2.0717
 4663TIP3    H235405   6.319   3.887   2.466  1.3055 -0.5468 -0.9276
 4664TIP3   OH235406   1.708   0.079  14.044 -0.5191 -0.1686 -0.2707
 4664TIP3    H135407   1.801   0.098  14.036 -0.6597  1.1841  0.8320
 4664TIP3    H235408   1.700  -0.015  14.026  0.7532  0.0908 -2.4510
 4665TIP3   OH235409   4.899   1.085  15.666 -0.0905 -0.6286 -0.6366
 4665TIP3    H135410   4.806   1.105  15.672 -0.2686 -1.1991 -1.3250
 4665TIP3    H235411   4.904   0.990  15.675  0.5703 -0.4861  0.7684
 4666TIP3   OH235412   4.230   0.642   0.606  0.2928 -0.1804  0.1711
 4666TIP3    H135413   4.206   0.591   0.528 -0.4980  1.5271 -0.7550
 4666TIP3    H235414   4.316   0.679   0.584 -1.1370  2.6552 -1.2297
 4667TIP3   OH235415   2.326   4.956  12.317 -0.2824  0.6729 -0.0356
 4667TIP3    H135416   2.381   5.004  12.256  1.5114 -0.5046  0.5714
 4667TIP3    H235417   2.243   4.943  12.271  0.5178  1.0707 -1.6306
 4668TIP3   OH235418   1.457   4.822   2.823 -0.2355  0.0369  0.0286
 4668TIP3    H135419   1.427   4.881   2.892 -2.8105  0.8929 -1.6471
 4668TIP3    H235420   1.406   4.742   2.835  0.5131 -0.4376  0.0940
 4669TIP3   OH235421   4.949   5.421   2.346  0.1564 -0.4547 -0.4888
 4669TIP3    H135422   4.935   5.510   2.378  0.3117 -1.0994  1.4969
 4669TIP3    H235423   4.969   5.432   2.253  0.6062  1.6179 -0.1953
 4670TIP3   OH235424   4.792   1.219  11.416 -0.1188 -0.2519 -0.6703
 4670TIP3    H135425   4.749   1.222  11.331 -1.0341  0.3244 -0.1959
 4670TIP3    H235426   4.810   1.126  11.430 -0.6869 -0.4360 -1.1371
 4671TIP3   OH235427   1.218   5.864  13.755 -0.4393 -0.3035 -0.2779
 4671TIP3    H135428   1.140   5.905  13.718 -1.2340 -0.6447  0.9473
 4671TIP3    H235429   1.185   5.813  13.829  0.7793 -1.5140 -0.5254
 4672TIP3   OH235430   6.321   2.469  13.803 -0.3791  0.1098 -0.0837
 4672TIP3    H135431   6.286   2.528  13.870  0.9050 -2.1062  2.7472
 4672TIP3    H235432   6.310   2.382  13.841  1.8130 -1.1469 -2.1176
 4673TIP3   OH235433   3.877   3.632  13.796 -0.5105  0.1938  0.5301
 4673TIP3    H135434   3.959   3.680  13.790 -0.4618  0.0774  0.2037
 4673TIP3    H235435   3.809   3.697  13.779 -0.3623 -0.1818 -1.9086
 4674TIP3   OH235436   5.961   6.191  16.638  0.5041 -0.4090  0.4132
 4674TIP3    H135437   5.895   6.186  16.707  1.4770  2.4643  1.6978
 4674TIP3    H235438   5.931   6.263  16.582  1.2759 -0.7421 -0.4415
 4675TIP3   OH235439   1.770   0.128  11.135  0.1780 -0.1395 -0.0974
 4675TIP3    H135440   1.699   0.121  11.199 -0.3642  0.1437 -0.6571
 4675TIP3    H235441   1.793   0.220  11.134  0.6857 -0.2561  0.2083
 4676TIP3   OH235442   6.173   2.318   2.478  0.5070  0.4171  1.0901
 4676TIP3    H135443   6.086   2.336   2.440  0.7510  1.5538  1.0385
 4676TIP3    H235444   6.215   2.403   2.481  2.9273 -0.4693 -2.0392
 4677TIP3   OH235445   3.876   6.587  14.710  0.5554 -0.1886 -0.4011
 4677TIP3    H135446   3.943   6.616  14.772  0.6672 -2.0541  0.4290
 4677TIP3    H235447   3.834   6.668  14.679 -0.2891  0.8031  2.9673
 4678TIP3   OH235448   1.200   6.504   0.747 -0.4895 -0.1653  0.7923
 4678TIP3    H135449   1.120   6.554   0.734 -1.5673 -1.8918  0.4926
 4678TIP3    H235450   1.201   6.441   0.674  0.3626 -1.1449  1.6150
 4679TIP3   OH235451   4.235   5.214   0.555 -0.0337 -0.7024  0.6262
 4679TIP3    H135452   4.158   5.229   0.500 -1.1143 -2.7177  1.4881
 4679TIP3    H235453   4.296   5.283   0.530 -2.4999  1.6712  0.6349
 4680TIP3   OH235454   2.179   5.616  12.009  0.1946  0.5470  0.4327
 4680TIP3    H135455   2.115   5.611  12.080 -0.9770  0.2073 -0.6118
 4680TIP3    H235456   2.164   5.702  11.969  0.5811  0.5849  0.3697
 4681TIP3   OH235457   1.552   4.160  12.277  0.4961  0.4226 -0.4031
 4681TIP3    H135458   1.537   4.254  12.289 -0.4327  0.0984  1.2695
 4681TIP3    H235459   1.465   4.122  12.268  0.8172 -0.3615 -0.3179
 4682TIP3   OH235460   4.580   5.752   1.001 -0.4211  0.1565 -0.7722
 4682TIP3    H135461   4.532   5.776   0.922  0.4900  2.8982 -0.6155
 4682TIP3    H235462   4.671   5.776   0.981 -0.0983  0.4692  0.9194
 4683TIP3   OH235463   3.563   0.420   5.651  0.0060 -0.0617 -0.3079
 4683TIP3    H135464   3.514   0.447   5.729 -0.2209  0.3422 -0.5875
 4683TIP3    H235465   3.607   0.500   5.621  2.0423 -0.7101  0.7745
 4684TIP3   OH235466   1.721   6.299  11.424 -0.0953 -0.2657  0.3366
 4684TIP3    H135467   1.772   6.334  11.496  1.1996 -0.6164 -0.3814
 4684TIP3    H235468   1.767   6.327  11.345 -1.6161  0.3189 -0.3886
 4685TIP3   OH235469   2.156   5.595   4.675  0.0140  0.4049  0.3093
 4685TIP3    H135470   2.190   5.542   4.602 -1.3642  1.1519 -0.9294
 4685TIP3    H235471   2.206   5.565   4.751  2.2959  0.3378 -1.0976
 4686TIP3   OH235472   3.559   5.510  12.777 -0.2244  0.1824 -0.2088
 4686TIP3    H135473   3.648   5.490  12.806 -0.2026  0.4461 -0.0906
 4686TIP3    H235474   3.569   5.545  12.688 -0.3088 -0.8155 -0.6195
 4687TIP3   OH235475   5.374   4.574  14.409 -0.6038  0.3622  0.1727
 4687TIP3    H135476   5.291   4.530  14.425 -1.2993  1.1155 -1.1590
 4687TIP3    H235477   5.382   4.576  14.314  0.4821  1.1241  0.2598
 4688TIP3   OH235478   4.676   3.343  14.084 -0.1598  0.2007  0.6166
 4688TIP3    H135479   4.678   3.271  14.021  0.2935  0.1063  0.7387
 4688TIP3    H235480   4.753   3.396  14.064 -0.2777  0.4395  0.7783
 4689TIP3   OH235481   5.288   5.287  11.784  0.3588 -0.7733  0.4646
 4689TIP3    H135482   5.309   5.209  11.837 -0.2427 -0.0969  1.7526
 4689TIP3    H235483   5.228   5.254  11.717  0.0279 -1.4140  1.0546
 4690TIP3   OH235484   0.662   5.731   4.493  0.0821 -0.7579 -0.1028
 4690TIP3    H135485   0.649   5.707   4.401  0.6265 -1.5374  0.0074
 4690TIP3    H235486   0.674   5.826   4.492  0.2289 -0.7786 -0.8503
 4691TIP3   OH235487   2.523   6.440  11.494  0.6207  0.5110  0.5575
 4691TIP3    H135488   2.530   6.346  11.480  1.4364  0.5803  0.4248
 4691TIP3    H235489   2.614   6.470  11.501  0.4270  1.4691 -0.6541
 4692TIP3   OH235490   1.348   2.638  15.968 -0.4200  0.8263  0.2380
 4692TIP3    H135491   1.359   2.703  16.038  0.6545 -0.0175  0.8930
 4692TIP3    H235492   1.405   2.566  15.994  0.7728  0.8785 -2.0120
 4693TIP3   OH235493   6.790   5.987  13.534  0.3844  0.5478 -0.0796
 4693TIP3    H135494   6.871   6.016  13.492  0.9266  3.6124  2.6782
 4693TIP3    H235495   6.733   6.064  13.533 -1.4541 -0.7277  0.4732
 4694TIP3   OH235496   0.524   6.681   4.206  0.3076 -0.3397  0.2839
 4694TIP3    H135497   0.572   6.762   4.220  0.1568 -0.5523  2.5672
 4694TIP3    H235498   0.460   6.702   4.138 -0.7066  1.9582  1.7913
 4695TIP3   OH235499   3.331   0.024  12.910 -0.3478  0.0490  0.0381
 4695TIP3    H135500   3.390  -0.045  12.877  1.6986  2.0127 -0.6757
 4695TIP3    H235501   3.329   0.088  12.839 -0.6146  1.6327  1.4332
 4696TIP3   OH235502   3.723   3.043  12.147 -0.2008 -0.2202  0.1231
 4696TIP3    H135503   3.771   3.066  12.067 -0.2087  1.6690  0.6149
 4696TIP3    H235504   3.686   2.957  12.129  0.4114 -0.1575 -1.6218
 4697TIP3   OH235505   5.819   4.494  16.190  0.0647 -0.2871 -0.2195
 4697TIP3    H135506   5.772   4.441  16.254 -0.5879 -0.1641 -0.5851
 4697TIP3    H235507   5.904   4.451  16.180 -0.4429 -1.2715 -0.5057
 4698TIP3   OH235508   0.118   5.041   4.367 -0.1575  0.4320 -0.1111
 4698TIP3    H135509   0.055   5.057   4.437 -1.5050 -2.6636 -0.4394
 4698TIP3    H235510   0.174   4.971   4.401 -1.0173 -1.3540 -2.0966
 4699TIP3   OH235511   3.626   4.430   3.841  0.6483 -0.5892 -0.5245
 4699TIP3    H135512   3.717   4.429   3.810  0.5481 -0.1319 -0.8507
 4699TIP3    H235513   3.621   4.506   3.899  0.7542 -1.2660  0.3894
 4700TIP3   OH235514   4.885   1.360   5.181 -0.0647 -0.4874 -0.3843
 4700TIP3    H135515   4.951   1.350   5.112  0.5350 -2.2543  0.3832
 4700TIP3    H235516   4.880   1.455   5.195  0.5143 -0.1573 -2.1470
 4701TIP3   OH235517   5.851   0.055   3.257 -0.0487 -0.6506  0.3619
 4701TIP3    H135518   5.877  -0.022   3.206 -0.5746  0.0513 -1.0159
 4701TIP3    H235519   5.932   0.087   3.296  0.2912 -1.4617  0.3406
 4702TIP3   OH235520   1.831   3.943   2.930 -0.2353  0.3898  0.6069
 4702TIP3    H135521   1.773   3.994   2.987 -1.5413 -1.1889  0.7437
 4702TIP3    H235522   1.876   4.009   2.877 -2.3557  1.6771  0.3050
 4703TIP3   OH235523   0.562   1.837  13.339 -0.0931 -0.1074 -0.4384
 4703TIP3    H135524   0.521   1.762  13.295 -1.4944  0.7105 -0.5804
 4703TIP3    H235525   0.498   1.908  13.330  1.1193  1.0610 -0.1351
 4704TIP3   OH235526   0.251   3.171   2.359 -0.1046 -0.1343  0.0642
 4704TIP3    H135527   0.292   3.198   2.441  0.0746  1.1555 -0.4263
 4704TIP3    H235528   0.191   3.242   2.338 -0.7595 -0.8386 -0.5133
 4705TIP3   OH235529   3.629   0.514  11.466  0.3881  0.0319 -0.4510
 4705TIP3    H135530   3.598   0.598  11.500 -2.4064 -1.0124 -0.1827
 4705TIP3    H235531   3.549   0.463  11.451  1.9639 -2.4341 -1.0245
 4706TIP3   OH235532   4.903   2.735   4.350  0.6218  0.2492 -0.4103
 4706TIP3    H135533   4.979   2.773   4.306 -0.0101  3.5607  1.0799
 4706TIP3    H235534   4.828   2.770   4.302 -0.0574 -1.0165 -0.3354
 4707TIP3   OH235535   0.805   5.958   0.381  0.5451  0.6797  0.2119
 4707TIP3    H135536   0.756   5.997   0.308  0.9255  0.9276  0.0836
 4707TIP3    H235537   0.842   6.033   0.428 -1.5473  0.6667  2.0234
 4708TIP3   OH235538   6.328   4.659   2.212 -0.7969  0.2818  0.4349
 4708TIP3    H135539   6.407   4.709   2.230 -0.9994  1.1977 -1.0497
 4708TIP3    H235540   6.257   4.724   2.215 -0.8529  0.6079 -3.4024
 4709TIP3   OH235541   0.334   0.851   3.348  0.1071 -0.1660  0.0372
 4709TIP3    H135542   0.341   0.867   3.442  1.6463  0.9185 -0.2269
 4709TIP3    H235543   0.310   0.935   3.311  1.5626 -0.0519 -0.7179
 4710TIP3   OH235544   1.879   5.542   4.192  0.0531  0.0349  0.6003
 4710TIP3    H135545   1.845   5.455   4.171 -0.9918  0.8161 -1.1011
 4710TIP3    H235546   1.851   5.558   4.282  1.3521 -1.8635  1.4184
 4711TIP3   OH235547   2.893   6.368   5.121  0.8102  0.0185 -0.2987
 4711TIP3    H135548   2.954   6.306   5.159  1.0387 -0.5131 -1.5017
 4711TIP3    H235549   2.924   6.454   5.150  0.1226 -0.4106  1.9065
 4712TIP3   OH235550   4.645   1.583  14.116 -0.2403  0.2225 -0.7839
 4712TIP3    H135551   4.604   1.610  14.034  0.6285 -0.3971 -1.4291
 4712TIP3    H235552   4.664   1.490  14.105 -1.6067 -0.2937  0.7615
 4713TIP3   OH235553   0.017   4.284  12.083 -0.0110  0.1324  0.1991
 4713TIP3    H135554   0.043   4.241  12.165 -0.0033 -2.8111 -1.2207
 4713TIP3    H235555   0.097   4.328  12.053  0.8310 -1.2101  0.3830
 4714TIP3   OH235556   0.450   3.643   2.283  0.1952  0.3208 -0.4333
 4714TIP3    H135557   0.407   3.571   2.329 -1.9925  0.2067 -2.4383
 4714TIP3    H235558   0.378   3.702   2.260  1.6217  1.9332 -0.9700
 4715TIP3   OH235559   6.083   0.454   6.321 -0.1826 -0.9096  0.1527
 4715TIP3    H135560   6.038   0.474   6.239 -0.0032  1.6258  0.5931
 4715TIP3    H235561   6.176   0.464   6.301 -0.1810  1.3036  0.9365
 4716TIP3   OH235562   0.037   1.495   0.745  0.2308  0.8897 -0.2741
 4716TIP3    H135563   0.036   1.530   0.834  0.0465 -0.4367  0.2697
 4716TIP3    H235564   0.097   1.420   0.749 -2.0327 -1.0402 -0.4951
 4717TIP3   OH235565   1.258   2.575  14.476  0.4311 -0.1457  0.8026
 4717TIP3    H135566   1.325   2.524  14.521  0.4181  0.3147  1.3530
 4717TIP3    H235567   1.274   2.666  14.503 -0.2825 -0.0043  0.7742
 4718TIP3   OH235568   2.996   0.654   3.089  0.1202 -0.1810 -0.8326
 4718TIP3    H135569   2.973   0.607   3.009 -0.3248  0.7175 -1.2442
 4718TIP3    H235570   3.031   0.737   3.058  2.1072 -0.7115 -0.1633
 4719TIP3   OH235571   5.842   4.511  15.275  0.3295 -0.0070  0.0024
 4719TIP3    H135572   5.815   4.425  15.243  1.1234  0.4884 -2.2306
 4719TIP3    H235573   5.936   4.514  15.258  0.4445  1.0291  0.7539
 4720TIP3   OH235574   4.115   4.371   2.674 -0.9206  0.1405 -0.3118
 4720TIP3    H135575   4.126   4.464   2.653  1.6483 -0.1265 -0.3995
 4720TIP3    H235576   4.188   4.350   2.731 -1.7945 -1.7265  0.2157
 4721TIP3   OH235577   2.531   4.002  10.649 -0.5877  0.2412 -0.4950
 4721TIP3    H135578   2.588   4.023  10.722 -0.1848 -0.7954 -0.4926
 4721TIP3    H235579   2.448   3.975  10.689 -0.4923  0.0439 -0.4268
 4722TIP3   OH235580   3.279   2.335   1.049  0.3901 -0.1712 -0.2269
 4722TIP3    H135581   3.251   2.426   1.038 -1.3681 -0.7277 -0.7639
 4722TIP3    H235582   3.356   2.327   0.992 -1.2513  0.2305 -2.6389
 4723TIP3   OH235583   1.466   0.539   4.167  0.4857  0.1813 -0.8996
 4723TIP3    H135584   1.494   0.583   4.087  2.4575 -1.2220 -1.0469
 4723TIP3    H235585   1.395   0.482   4.140  0.6248  0.2865 -1.4908
 4724TIP3   OH235586   2.164   2.097   3.492  1.0468  0.1810  0.1257
 4724TIP3    H135587   2.126   2.024   3.541 -4.6644  2.2071 -0.5940
 4724TIP3    H235588   2.186   2.060   3.407 -1.4070 -0.8768 -0.1210
 4725TIP3   OH235589   4.854   1.438   3.341 -0.8047  0.0880  0.5480
 4725TIP3    H135590   4.779   1.382   3.362 -0.6811 -0.3634 -0.1858
 4725TIP3    H235591   4.853   1.444   3.246 -0.4356  0.8229  0.5817
 4726TIP3   OH235592   2.748   4.247   2.716 -0.4624  0.1104 -0.0529
 4726TIP3    H135593   2.751   4.154   2.738  0.3269  0.1793  0.1537
 4726TIP3    H235594   2.685   4.285   2.778 -0.7460 -0.2745 -0.1061
 4727TIP3   OH235595   5.145   4.464  14.724 -0.2360  0.4298 -0.7624
 4727TIP3    H135596   5.156   4.424  14.810  1.0243  0.9726 -0.6362
 4727TIP3    H235597   5.109   4.395  14.669  3.2548 -1.4924 -0.9649
 4728TIP3   OH235598   2.015   1.834   5.567 -0.2263  0.8593 -0.0589
 4728TIP3    H135599   2.085   1.770   5.576 -1.0532 -0.4272 -2.0812
 4728TIP3    H235600   1.948   1.807   5.630  0.1251  0.7087  0.2453
 4729TIP3   OH235601   5.107   3.625  16.182  0.3921  0.2541 -0.0198
 4729TIP3    H135602   5.077   3.686  16.248  0.4489  0.5737 -0.2856
 4729TIP3    H235603   5.062   3.543  16.202  0.3476  0.3734  0.3618
 4730TIP3   OH235604   1.323   3.137  13.739  0.1111  0.1975  0.1809
 4730TIP3    H135605   1.402   3.142  13.792  0.5291  0.5942 -0.4739
 4730TIP3    H235606   1.318   3.046  13.712  0.5798  0.2600 -0.1272
 4731TIP3   OH235607   4.979   2.565  13.093  0.0227  0.0246 -0.0672
 4731TIP3    H135608   4.981   2.604  13.005  0.3967 -1.0833 -0.5631
 4731TIP3    H235609   4.911   2.615  13.140  0.9191  1.7035 -0.4620
 4732TIP3   OH235610   5.400   6.213  11.074 -0.7236  0.1859 -0.6376
 4732TIP3    H135611   5.312   6.219  11.111 -0.4536 -0.5094  0.1437
 4732TIP3    H235612   5.453   6.271  11.129 -0.2737 -1.0261  0.2613
 4733TIP3   OH235613   3.830   6.796   1.430  0.2977 -0.1297 -0.5276
 4733TIP3    H135614   3.852   6.856   1.358 -0.9710 -0.5394 -1.2791
 4733TIP3    H235615   3.750   6.752   1.402 -0.3263 -0.2044  1.1952
 4734TIP3   OH235616   0.510   4.929  13.435 -0.3386 -0.1560 -0.0503
 4734TIP3    H135617   0.555   5.009  13.462  0.9750 -0.9426  0.1326
 4734TIP3    H235618   0.425   4.934  13.481  0.3101  0.4069  1.1570
 4735TIP3   OH235619   3.418   2.966  12.728 -0.5558 -0.1195  0.3008
 4735TIP3    H135620   3.476   2.976  12.804  0.1205  1.6634 -0.4119
 4735TIP3    H235621   3.347   3.027  12.744 -1.6631 -1.4140  0.5700
 4736TIP3   OH235622   4.992   2.239   3.414 -0.9545 -0.4362 -0.2751
 4736TIP3    H135623   5.070   2.283   3.448 -1.5159  0.3509  0.0391
 4736TIP3    H235624   4.983   2.272   3.325 -1.2868 -0.0323 -0.0932
 4737TIP3   OH235625   6.685   4.469  16.864 -0.3853 -0.4708 -0.8240
 4737TIP3    H135626   6.661   4.385  16.904 -0.5789  0.2219  0.5507
 4737TIP3    H235627   6.634   4.534  16.912 -2.0725  0.2666 -3.4220
 4738TIP3   OH235628   4.460   0.346  15.285  0.2493 -0.3947  0.9194
 4738TIP3    H135629   4.534   0.300  15.324  0.7468 -0.0145  0.4414
 4738TIP3    H235630   4.413   0.384  15.359  0.1700 -1.1653  1.2740
 4739TIP3   OH235631   1.145   0.434  15.028  0.1728  0.2509 -0.6718
 4739TIP3    H135632   1.101   0.511  15.063  1.6798  1.0269 -0.3823
 4739TIP3    H235633   1.115   0.362  15.084 -1.6776  0.4873 -1.2954
 4740TIP3   OH235634   1.981   5.571   1.944  0.1221  0.4839 -0.2041
 4740TIP3    H135635   1.966   5.485   1.904  0.5943  1.0072 -1.5682
 4740TIP3    H235636   2.019   5.623   1.874  2.1001  1.1162  1.2731
 4741TIP3   OH235637   5.357   1.293   2.864 -0.0575  0.8175 -0.0286
 4741TIP3    H135638   5.317   1.375   2.894  0.5928  1.4675 -0.8814
 4741TIP3    H235639   5.382   1.311   2.773 -1.6005 -0.9514 -0.8483
 4742TIP3   OH235640   1.289   5.700  15.302 -0.3536 -0.4130  0.1433
 4742TIP3    H135641   1.280   5.712  15.208 -1.1437 -2.3571 -0.0843
 4742TIP3    H235642   1.382   5.714  15.320 -0.2569  0.3027 -0.8535
 4743TIP3   OH235643   6.006   1.447  11.613 -0.1168  0.3213 -0.1249
 4743TIP3    H135644   5.912   1.445  11.594 -0.0758  1.3401 -0.4746
 4743TIP3    H235645   6.031   1.355  11.618 -0.8558  0.0276 -1.4375
 4744TIP3   OH235646   0.373   4.803  12.142 -0.1713  0.1025 -0.0497
 4744TIP3    H135647   0.390   4.857  12.065 -0.2892  2.1668  1.2960
 4744TIP3    H235648   0.396   4.858  12.216 -3.5819 -0.3716  1.5646
 4745TIP3   OH235649   5.480   4.747  14.620 -0.1125 -0.7620 -0.5996
 4745TIP3    H135650   5.432   4.693  14.557 -2.9971  2.0773 -1.1001
 4745TIP3    H235651   5.535   4.805  14.566  0.9863 -1.3826 -0.1938
 4746TIP3   OH235652   5.050   6.144  15.622 -0.3429  0.3006  0.0886
 4746TIP3    H135653   4.975   6.201  15.606 -1.2700 -1.3340 -1.8589
 4746TIP3    H235654   5.085   6.125  15.535  1.6212  0.0355  0.8675
 4747TIP3   OH235655   3.274   6.464  16.518 -0.5652  0.5337 -0.0732
 4747TIP3    H135656   3.180   6.479  16.503 -0.7626 -0.5815 -0.1013
 4747TIP3    H235657   3.303   6.417  16.439  0.1737  1.4500 -0.3537
 4748TIP3   OH235658   5.576   4.600  12.309 -0.3059  0.5572  0.0213
 4748TIP3    H135659   5.577   4.644  12.394 -2.3233 -0.2929  0.5348
 4748TIP3    H235660   5.619   4.516  12.325 -3.3430 -0.9166  1.0549
 4749TIP3   OH235661   6.042   4.291  14.363  0.5031 -0.3187 -0.2084
 4749TIP3    H135662   5.982   4.222  14.391 -0.8980  0.8071 -0.3185
 4749TIP3    H235663   6.119   4.244  14.332  0.0666 -1.7829  0.7986
 4750TIP3   OH235664   2.141   5.693   0.682 -0.3981  0.3870  0.4195
 4750TIP3    H135665   2.189   5.639   0.619  1.7543  0.9599  1.5035
 4750TIP3    H235666   2.073   5.735   0.630  0.0407 -0.7075 -1.1098
 4751TIP3   OH235667   5.666   0.441  12.386  0.3994  0.2269 -0.2842
 4751TIP3    H135668   5.722   0.410  12.457 -1.0361  0.3633  0.9318
 4751TIP3    H235669   5.651   0.364  12.332  2.6041  0.4105 -1.2560
 4752TIP3   OH235670   3.126   3.900   4.074  0.3062  0.8178 -0.0073
 4752TIP3    H135671   3.190   3.862   4.134  0.5778  2.0970  0.5444
 4752TIP3    H235672   3.169   3.979   4.040 -0.2305  0.6401 -1.1320
 4753TIP3   OH235673   1.693   3.813  12.324  0.1914  0.2567  0.4623
 4753TIP3    H135674   1.715   3.833  12.415  1.4974 -0.4883  0.3336
 4753TIP3    H235675   1.716   3.892  12.276 -0.9247  0.8200  0.8189
 4754TIP3   OH235676   6.526   0.911   0.299  0.3704 -0.2214  0.4996
 4754TIP3    H135677   6.471   0.961   0.358  0.1060 -0.9639  0.8894
 4754TIP3    H235678   6.526   0.822   0.334  1.8681 -0.2368  0.5529
 4755TIP3   OH235679   2.311   1.006  16.397 -0.5221  0.5580 -0.8456
 4755TIP3    H135680   2.339   1.053  16.476  1.0475 -0.7247 -0.6100
 4755TIP3    H235681   2.216   0.995  16.408  0.1113 -3.3422  3.0383
 4756TIP3   OH235682   2.915   1.178  13.657 -0.1195 -0.1633  0.5699
 4756TIP3    H135683   2.975   1.210  13.590  2.5133 -1.9325  1.9033
 4756TIP3    H235684   2.952   1.209  13.739 -0.6686 -1.8316  1.4943
 4757TIP3   OH235685   3.317   6.254  15.747 -0.3308 -0.4576 -0.2108
 4757TIP3    H135686   3.338   6.254  15.841 -2.3760 -0.5827  0.2913
 4757TIP3    H235687   3.222   6.260  15.744 -0.3297 -0.8470 -2.2914
 4758TIP3   OH235688   1.246   4.784   3.263  0.1373  0.4525 -0.3556
 4758TIP3    H135689   1.339   4.765   3.256  0.5781  1.5201  1.7502
 4758TIP3    H235690   1.204   4.699   3.273  1.4140  0.0783  3.0154
 4759TIP3   OH235691   2.726   5.691   1.081  0.3582  0.0703  0.2012
 4759TIP3    H135692   2.781   5.769   1.085  0.7042 -0.0714 -1.0881
 4759TIP3    H235693   2.674   5.703   1.002 -0.7989 -0.2417  0.8957
 4760TIP3   OH235694   2.010   1.251  16.830  0.0265  0.4990 -0.6410
 4760TIP3    H135695   1.934   1.197  16.806  1.2557 -2.2448  1.1254
 4760TIP3    H235696   2.051   1.272  16.747 -1.9056  0.8856 -1.5496
 4761TIP3   OH235697   4.969   4.113  16.350 -0.0588 -0.0816  0.3381
 4761TIP3    H135698   4.891   4.155  16.386  0.3597  0.3283  0.7784
 4761TIP3    H235699   4.936   4.037  16.302 -0.7696  0.4079  0.0442
 4762TIP3   OH235700   1.326   6.461   4.502 -0.5138  0.5537 -0.1160
 4762TIP3    H135701   1.363   6.388   4.551 -1.3696  0.1183 -0.1018
 4762TIP3    H235702   1.386   6.474   4.429 -1.1975 -1.2588 -1.0621
 4763TIP3   OH235703   0.681   5.830   3.573 -0.0714 -0.0094  0.8007
 4763TIP3    H135704   0.602   5.877   3.546  0.8776  1.6403  0.7373
 4763TIP3    H235705   0.654   5.781   3.651 -2.0822 -2.4929 -1.2370
 4764TIP3   OH235706   5.716   2.124   2.297  0.0558  0.0155  0.3637
 4764TIP3    H135707   5.804   2.126   2.258 -0.2507  1.3621 -0.3053
 4764TIP3    H235708   5.733   2.125   2.391  0.7592 -0.4023  0.2567
 4765TIP3   OH235709   2.385   2.626   4.633 -0.0579  0.8684 -0.2128
 4765TIP3    H135710   2.445   2.604   4.562  0.0133 -0.9854  0.3433
 4765TIP3    H235711   2.439   2.672   4.697  0.4261  0.5325 -0.3737
 4766TIP3   OH235712   0.402   3.609   1.732 -0.2595 -0.3206  0.1883
 4766TIP3    H135713   0.343   3.573   1.667  0.3606  0.8140 -1.0579
 4766TIP3    H235714   0.345   3.642   1.802 -1.4938  3.4859 -2.3039
 4767TIP3   OH235715   2.548   4.900   4.915 -0.0218  0.7161  0.0352
 4767TIP3    H135716   2.536   4.893   5.010  1.8160  0.0830  0.2562
 4767TIP3    H235717   2.478   4.846   4.879  0.8043 -1.1966  1.1380
 4768TIP3   OH235718   6.412   5.682  17.119  0.1428 -0.3736  0.4065
 4768TIP3    H135719   6.429   5.754  17.180 -0.9051  0.4756 -0.2780
 4768TIP3    H235720   6.329   5.645  17.149  0.2018 -0.6810  0.1839
 4769TIP3   OH235721   2.542   1.864   2.130 -0.2673 -0.3894 -0.6129
 4769TIP3    H135722   2.522   1.955   2.151 -0.4782 -0.5710 -0.0107
 4769TIP3    H235723   2.470   1.835   2.074 -0.4565 -0.3305 -0.4015
 4770TIP3   OH235724   2.359   4.426  12.610  0.7273 -0.6969  0.1753
 4770TIP3    H135725   2.338   4.335  12.629  1.4360 -0.7619  0.6917
 4770TIP3    H235726   2.339   4.473  12.692  0.0813 -0.3371 -0.1815
 4771TIP3   OH235727   2.227   1.412  11.875  0.5966  0.5392 -0.5648
 4771TIP3    H135728   2.294   1.458  11.926 -0.2783  1.8271 -0.5167
 4771TIP3    H235729   2.248   1.433  11.784  0.8968  0.0338 -0.6124
 4772TIP3   OH235730   5.288   4.948   5.363  0.3820  0.0802  0.2243
 4772TIP3    H135731   5.251   5.036   5.361  0.4556  0.1119  0.2207
 4772TIP3    H235732   5.214   4.890   5.379  0.3902  0.1792  0.6377
 4773TIP3   OH235733   0.810   4.877   0.302 -0.3645  0.2167  0.5174
 4773TIP3    H135734   0.777   4.914   0.221  2.9682 -0.6318 -1.4093
 4773TIP3    H235735   0.749   4.907   0.369 -1.4708  3.6722 -1.7850
 4774TIP3   OH235736   4.435   1.015   2.764 -0.1699  0.4019 -0.2299
 4774TIP3    H135737   4.450   0.928   2.726  0.3761 -0.3563  1.6362
 4774TIP3    H235738   4.519   1.039   2.802 -0.5193  1.4548 -0.0991
 4775TIP3   OH235739   6.174   4.361  15.537  0.5096  0.0019  0.4073
 4775TIP3    H135740   6.080   4.377  15.543 -0.2399 -4.0075  2.2167
 4775TIP3    H235741   6.182   4.293  15.471  2.2617  0.6695 -0.1155
 4776TIP3   OH235742   0.790   4.180   3.918 -0.9116  0.7694  0.1180
 4776TIP3    H135743   0.720   4.229   3.961 -0.9399  1.1638 -0.3825
 4776TIP3    H235744   0.779   4.197   3.825 -1.6389 -1.1111 -0.1806
 4777TIP3   OH235745   5.885   4.756   3.492 -0.3622 -0.2457  0.2464
 4777TIP3    H135746   5.909   4.671   3.455 -1.9068 -1.1084  1.1312
 4777TIP3    H235747   5.879   4.741   3.586  0.1872  1.0826  0.5210
 4778TIP3   OH235748   4.056   1.568   5.102  0.1829 -0.0377  0.4857
 4778TIP3    H135749   3.964   1.560   5.127  0.3567  0.6412  1.4128
 4778TIP3    H235750   4.065   1.659   5.074  0.4691 -0.2280 -0.0507
 4779TIP3   OH235751   1.410   1.870  14.115 -0.2018 -0.1339 -0.0408
 4779TIP3    H135752   1.403   1.863  14.210 -1.6523 -1.3844 -0.1885
 4779TIP3    H235753   1.441   1.783  14.088  0.1901  0.2118 -0.7165
 4780TIP3   OH235754   6.787   0.669  11.867 -0.0839 -0.2607 -0.8917
 4780TIP3    H135755   6.879   0.692  11.883 -0.1996 -0.2904 -0.1508
 4780TIP3    H235756   6.750   0.659  11.955 -0.4651 -1.6071 -1.1900
 4781TIP3   OH235757   4.609   3.712   2.652 -0.2387 -0.0136 -0.8424
 4781TIP3    H135758   4.697   3.739   2.678 -0.2421  0.8423 -1.6782
 4781TIP3    H235759   4.604   3.730   2.558 -1.1661 -0.4468 -0.8946
 4782TIP3   OH235760   1.935   1.378   6.256  0.3337 -0.5331 -0.4039
 4782TIP3    H135761   1.968   1.311   6.314 -0.4426  0.2622  1.0220
 4782TIP3    H235762   1.996   1.452   6.266 -0.8746  0.3357  0.9895
 4783TIP3   OH235763   1.669   0.085  14.580  0.0725 -0.5838  0.3275
 4783TIP3    H135764   1.660   0.130  14.664 -0.0789 -2.2747  1.2642
 4783TIP3    H235765   1.651   0.152  14.514 -0.2638  0.6702  1.6601
 4784TIP3   OH235766   5.081   4.486   0.262 -0.4526 -0.2590 -0.7347
 4784TIP3    H135767   5.053   4.396   0.241 -1.1224 -0.2650  0.1548
 4784TIP3    H235768   5.177   4.480   0.267 -0.5700 -1.4298  1.4597
 4785TIP3   OH235769   6.227   4.958  11.208 -0.3374  0.0012 -0.2728
 4785TIP3    H135770   6.174   4.992  11.281 -0.1047 -1.0368  0.3936
 4785TIP3    H235771   6.316   4.952  11.244  0.4090  2.2623 -1.5437
 4786TIP3   OH235772   0.960   4.949  11.465  0.3868  0.0133 -0.7623
 4786TIP3    H135773   0.907   4.909  11.396 -0.1053 -0.7783  0.0526
 4786TIP3    H235774   0.942   4.896  11.543 -1.6567  2.7439  0.8248
 4787TIP3   OH235775   5.778   4.979   0.501  0.1441 -0.0912 -0.1489
 4787TIP3    H135776   5.699   4.925   0.505  0.2567 -0.1853  2.5353
 4787TIP3    H235777   5.835   4.944   0.569  1.7744  1.1311 -0.8057
 4788TIP3   OH235778   4.881   0.935  16.960 -0.0277 -0.5270 -0.0817
 4788TIP3    H135779   4.876   0.891  16.875 -0.6663 -2.7449  1.0312
 4788TIP3    H235780   4.974   0.931  16.983  0.2835  0.8204 -0.9970
 4789TIP3   OH235781   6.308   5.420   4.264  0.3789 -0.0235  0.2470
 4789TIP3    H135782   6.262   5.495   4.225  1.2629  1.6879  2.2916
 4789TIP3    H235783   6.238   5.364   4.297 -0.4439 -1.6755 -3.6658
 4790TIP3   OH235784   0.568   3.101   2.042  0.6527  0.4122  0.0970
 4790TIP3    H135785   0.481   3.063   2.042  0.4859  0.7947 -0.2094
 4790TIP3    H235786   0.583   3.127   2.133 -0.0254  1.4235 -0.0705
 4791TIP3   OH235787   3.640   1.327   5.106 -0.1393 -0.2498  0.3704
 4791TIP3    H135788   3.710   1.368   5.055  1.2282 -1.4957  1.1682
 4791TIP3    H235789   3.623   1.245   5.061  0.3216 -0.8596  1.2788
 4792TIP3   OH235790   0.248   1.096   5.899  0.1758 -0.1599  0.2542
 4792TIP3    H135791   0.207   1.050   5.826  1.3173  0.1727 -0.6230
 4792TIP3    H235792   0.174   1.126   5.952 -0.6730 -0.5988 -0.6332
 4793TIP3   OH235793   4.829   3.556  13.981 -0.5612  0.2216  0.4723
 4793TIP3    H135794   4.875   3.537  14.063 -1.8634  0.7651  1.3734
 4793TIP3    H235795   4.840   3.650  13.969  0.3182  0.0140 -0.4369
 4794TIP3   OH235796   3.188   4.955  14.600  0.2996  0.1443  0.4802
 4794TIP3    H135797   3.232   5.020  14.545 -0.1202  1.4323  1.5965
 4794TIP3    H235798   3.258   4.896  14.629  0.4848 -0.7464 -1.6036
 4795TIP3   OH235799   3.060   4.055   2.939  0.6376 -0.1163  0.3993
 4795TIP3    H135800   3.151   4.027   2.944  0.7246 -0.0597 -0.5751
 4795TIP3    H235801   3.065   4.150   2.929  0.4566 -0.0653  0.8066
 4796TIP3   OH235802   0.466   6.013  14.091  0.2653  0.2164 -0.5676
 4796TIP3    H135803   0.511   5.933  14.118 -0.1220 -0.6042 -2.2420
 4796TIP3    H235804   0.517   6.083  14.132  2.3857 -0.7219 -1.4212
 4797TIP3   OH235805   2.750   3.189  13.242  0.4315  0.6701 -0.7836
 4797TIP3    H135806   2.755   3.215  13.150  1.9117  1.9951 -0.3792
 4797TIP3    H235807   2.828   3.136  13.256 -0.1368 -0.0959 -0.4313
 4798TIP3   OH235808   3.788   4.061   2.607 -0.2932  0.9022  0.6003
 4798TIP3    H135809   3.857   4.009   2.566 -0.5015  2.3069 -1.6810
 4798TIP3    H235810   3.827   4.094   2.688  1.1264  0.3516  0.1662
 4799TIP3   OH235811   3.866   6.776  16.684  0.4146  0.4894 -0.2831
 4799TIP3    H135812   3.856   6.778  16.779 -0.0515  2.6687 -0.3227
 4799TIP3    H235813   3.961   6.782  16.670  0.4041  1.9408  0.0795
 4800TIP3   OH235814   2.235   3.889  15.384  0.2076 -0.1657  0.4456
 4800TIP3    H135815   2.233   3.806  15.336 -1.2346  0.2831 -0.3267
 4800TIP3    H235816   2.322   3.925  15.365  0.8685 -1.4930  0.8221
 4801TIP3   OH235817   3.832   5.473  11.549  0.6611 -0.4736 -0.2217
 4801TIP3    H135818   3.875   5.554  11.525  0.7523 -0.2240  0.7179
 4801TIP3    H235819   3.904   5.412  11.568  0.6428 -0.0408  1.4014
 4802TIP3   OH235820   5.630   4.102  11.114  0.1491 -0.3725  0.2885
 4802TIP3    H135821   5.596   4.047  11.044  1.7081 -1.3986  0.2992
 4802TIP3    H235822   5.647   4.042  11.186  0.2894  0.3891  0.9081
 4803TIP3   OH235823   2.625   1.623   3.887  0.2260 -0.0957  0.3792
 4803TIP3    H135824   2.599   1.600   3.976 -0.1955  1.8178  0.8052
 4803TIP3    H235825   2.666   1.544   3.853 -0.4287 -1.1654  1.9414
 4804TIP3   OH235826   3.373   5.503  11.697  0.1198 -0.8532  0.1210
 4804TIP3    H135827   3.414   5.589  11.685 -0.1660 -0.5305  1.3055
 4804TIP3    H235828   3.368   5.466  11.609 -1.1837  0.9920 -0.6380
 4805TIP3   OH235829   1.506   5.790   6.249  0.6909  0.2674 -0.0682
 4805TIP3    H135830   1.584   5.798   6.194 -0.5553 -0.7158 -2.0791
 4805TIP3    H235831   1.449   5.862   6.221 -0.0649 -0.3987 -0.2911
 4806TIP3   OH235832   0.948   5.549  15.240 -0.4269  0.7772  0.0666
 4806TIP3    H135833   1.022   5.493  15.266 -0.0209  1.8111  1.2110
 4806TIP3    H235834   0.989   5.626  15.200 -0.9511  0.7102 -0.6233
 4807TIP3   OH235835   5.473   4.321  14.819  0.8452 -0.0377  0.2835
 4807TIP3    H135836   5.523   4.389  14.775  1.0606  0.4656  1.2658
 4807TIP3    H235837   5.508   4.320  14.908 -0.5686 -0.0084  0.8585
 4808TIP3   OH235838   4.557   4.211   0.365 -0.1035  0.1477  0.3294
 4808TIP3    H135839   4.625   4.150   0.392  0.8911  1.0568 -0.0707
 4808TIP3    H235840   4.566   4.285   0.425 -1.8352 -0.4122  1.3545
 4809TIP3   OH235841   5.594   3.466   5.421  0.2622  0.4077 -0.0826
 4809TIP3    H135842   5.554   3.382   5.444  1.4691 -0.1608  0.0040
 4809TIP3    H235843   5.546   3.496   5.344  0.6959 -1.0219 -0.9413
 4810TIP3   OH235844   2.633   2.279   3.804 -0.1097 -0.6756  0.0031
 4810TIP3    H135845   2.587   2.302   3.885 -1.3175 -0.5948 -0.6866
 4810TIP3    H235846   2.622   2.184   3.797  1.4835 -0.9460  0.8075
 4811TIP3   OH235847   3.239   6.114   3.232  0.1787  0.2119 -0.0112
 4811TIP3    H135848   3.188   6.161   3.167  0.5073 -0.2873 -0.6425
 4811TIP3    H235849   3.225   6.021   3.211  1.7718  0.0583 -0.5644
 4812TIP3   OH235850   1.380   6.612  12.510  0.3486 -0.1220  0.1383
 4812TIP3    H135851   1.291   6.612  12.544  0.6799 -0.3697  1.0365
 4812TIP3    H235852   1.387   6.530  12.460  0.5774 -0.9244  1.4543
 4813TIP3   OH235853   6.211   2.913   0.054 -0.3815  0.1964  0.2387
 4813TIP3    H135854   6.232   2.995   0.098  0.5435  0.3564 -0.4693
 4813TIP3    H235855   6.125   2.888   0.089  0.2567  0.3550  2.0443
 4814TIP3   OH235856   5.034   4.744   0.338 -0.1463 -0.6950 -0.0068
 4814TIP3    H135857   5.046   4.656   0.301  1.0746 -0.7761  0.5248
 4814TIP3    H235858   4.992   4.794   0.268  1.2647 -1.0901 -1.1972
 4815TIP3   OH235859   4.755   5.328  16.438  0.3703 -0.1036 -0.1184
 4815TIP3    H135860   4.804   5.359  16.362  1.5573  1.9158  1.3965
 4815TIP3    H235861   4.822   5.310  16.505 -0.8040  1.5622  1.6068
 4816TIP3   OH235862   4.553   5.893   6.100  0.3862  0.3894 -0.2030
 4816TIP3    H135863   4.534   5.911   6.192  0.6955 -1.3949  0.2562
 4816TIP3    H235864   4.647   5.910   6.092  0.7617 -1.1921  0.3284
 4817TIP3   OH235865   4.908   3.081   1.784 -0.2774 -0.4220  0.2116
 4817TIP3    H135866   4.967   3.133   1.839 -0.9901 -2.0904  2.7338
 4817TIP3    H235867   4.885   3.139   1.712 -1.0189  2.7801  2.8186
 4818TIP3   OH235868   1.172   6.582  16.173  0.0121 -0.6021  0.4729
 4818TIP3    H135869   1.085   6.621  16.160  1.2236  2.3720  0.5677
 4818TIP3    H235870   1.212   6.581  16.086 -0.1081 -2.0805  0.4083
 4819TIP3   OH235871   5.335   0.227  16.280 -0.0584 -0.5380  0.0993
 4819TIP3    H135872   5.411   0.285  16.276 -1.2197  1.1466  1.0972
 4819TIP3    H235873   5.327   0.193  16.191 -0.2094  2.0655 -0.9700
 4820TIP3   OH235874   4.672   4.611   5.426 -0.5095  0.8464  0.3214
 4820TIP3    H135875   4.719   4.683   5.469  1.3488 -1.0011  1.5272
 4820TIP3    H235876   4.635   4.560   5.498 -0.8119 -0.0785 -0.4718
 4821TIP3   OH235877   1.587   4.910   2.596  0.1194 -0.0586  0.0322
 4821TIP3    H135878   1.589   5.005   2.605  0.8438 -0.0703  0.0368
 4821TIP3    H235879   1.560   4.878   2.682 -0.4856  0.1499 -0.0730
 4822TIP3   OH235880   6.163   5.996  13.705  0.0582  0.1733  0.1070
 4822TIP3    H135881   6.251   6.032  13.707 -0.1887  0.7863  0.5046
 4822TIP3    H235882   6.152   5.956  13.791 -0.3348  0.8344  0.3763
 4823TIP3   OH235883   1.917   4.516  12.430 -0.2904  0.4172 -0.0390
 4823TIP3    H135884   1.939   4.434  12.475  1.1841 -0.1307 -1.6076
 4823TIP3    H235885   1.978   4.519  12.356 -3.0852  0.7887 -2.5220
 4824TIP3   OH235886   4.578   3.778  15.223  0.7010  0.3189 -0.3245
 4824TIP3    H135887   4.557   3.839  15.152  1.0725 -1.5039 -2.1047
 4824TIP3    H235888   4.591   3.694  15.179  1.1652 -0.8601  1.9116
 4825TIP3   OH235889   4.319   0.418   1.269 -0.3650 -0.3250  0.3129
 4825TIP3    H135890   4.290   0.486   1.330  2.9833 -0.4266  2.2797
 4825TIP3    H235891   4.338   0.465   1.188 -0.6861  0.6050  0.7603
 4826TIP3   OH235892   1.475   5.388  11.419  0.1000  0.0940  0.0589
 4826TIP3    H135893   1.507   5.463  11.368 -0.9741  0.4634 -0.1121
 4826TIP3    H235894   1.491   5.312  11.363 -0.1933  0.3823 -0.4237
 4827TIP3   OH235895   6.151   2.759   1.527  0.5830  0.0965  0.1897
 4827TIP3    H135896   6.060   2.789   1.521  0.4323 -0.2295  0.8009
 4827TIP3    H235897   6.202   2.839   1.527  0.2347  0.3280  0.8281
 4828TIP3   OH235898   0.187   1.585  16.526  0.3473  0.2612  0.1264
 4828TIP3    H135899   0.171   1.610  16.435  2.1858  0.0471 -0.2963
 4828TIP3    H235900   0.112   1.619  16.574 -0.2499  1.1021 -1.3438
 4829TIP3   OH235901   1.425   1.484   4.417  0.5121  0.3230  0.3053
 4829TIP3    H135902   1.515   1.492   4.384  0.9497  0.8968  1.5580
 4829TIP3    H235903   1.416   1.556   4.479 -0.4924 -0.3188  0.9327
 4830TIP3   OH235904   2.635   0.096   0.146 -0.2798 -0.0631  0.5701
 4830TIP3    H135905   2.561   0.157   0.153 -0.6419 -0.2891 -1.0199
 4830TIP3    H235906   2.605   0.028   0.086  1.5323  0.3392 -0.8583
 4831TIP3   OH235907   5.684   1.908  13.280 -0.2788  0.0440  0.0552
 4831TIP3    H135908   5.706   1.999  13.300 -0.6478 -0.3215  2.2788
 4831TIP3    H235909   5.601   1.893  13.325 -1.1372 -0.9161 -1.7405
 4832TIP3   OH235910   1.608   0.718   5.427  0.3312 -0.1567  0.6672
 4832TIP3    H135911   1.599   0.768   5.508 -1.0599 -0.7549  0.9058
 4832TIP3    H235912   1.562   0.770   5.361  2.1843  0.7653  0.0030
 4833TIP3   OH235913   3.398   0.423  12.534  0.2208 -0.2364  0.2256
 4833TIP3    H135914   3.353   0.421  12.619  1.2618  1.8989  0.9058
 4833TIP3    H235915   3.385   0.512  12.502  1.8221 -0.3103 -0.7219
 4834TIP3   OH235916   3.137   4.945  12.886 -0.3946 -0.3164 -0.0405
 4834TIP3    H135917   3.058   4.891  12.895 -0.8167  0.5688  2.1732
 4834TIP3    H235918   3.104   5.034  12.874  0.1607  0.3237  2.6074
 4835TIP3   OH235919   0.778   0.969   2.424 -0.1569 -0.1055 -0.2581
 4835TIP3    H135920   0.756   1.021   2.501 -1.6070  0.8128 -1.2532
 4835TIP3    H235921   0.712   0.900   2.422 -0.7518  0.4766 -1.2220
 4836TIP3   OH235922   3.298   3.133  14.771 -0.1880 -0.2837 -0.2843
 4836TIP3    H135923   3.305   3.118  14.865 -1.0224 -0.0741 -0.1759
 4836TIP3    H235924   3.209   3.165  14.759 -0.7873 -2.2020 -1.4026
 4837TIP3   OH235925   4.580   4.267   3.262  0.3912  0.1993  0.6040
 4837TIP3    H135926   4.598   4.216   3.183  0.2189  1.7608 -0.4648
 4837TIP3    H235927   4.652   4.245   3.321 -0.2482 -2.1319  0.6568
 4838TIP3   OH235928   6.139   6.151  11.921  0.4166 -0.5963 -0.1545
 4838TIP3    H135929   6.235   6.154  11.919  0.3912  0.7522 -0.3669
 4838TIP3    H235930   6.114   6.119  11.834  0.6631  0.2078 -0.5337
 4839TIP3   OH235931   2.949   5.176   0.184 -0.3067  0.5886 -0.3603
 4839TIP3    H135932   2.925   5.260   0.222 -0.4158  0.7400 -0.7572
 4839TIP3    H235933   2.939   5.113   0.255  2.2792  1.2652  0.7341
 4840TIP3   OH235934   0.703   0.657   0.265 -0.1394  0.0276 -0.3645
 4840TIP3    H135935   0.625   0.634   0.214  0.2320 -1.2772 -0.3734
 4840TIP3    H235936   0.764   0.693   0.202 -0.1833 -0.3370 -0.6178
 4841TIP3   OH235937   1.544   5.210   4.410 -0.0707 -0.0441  0.2336
 4841TIP3    H135938   1.506   5.199   4.497  0.4494  0.1657  0.4976
 4841TIP3    H235939   1.502   5.288   4.374  2.7089  2.5370  2.0434
 4842TIP3   OH235940   3.402   4.343   2.932 -0.2277  0.0824 -0.0911
 4842TIP3    H135941   3.459   4.267   2.917 -1.3242 -0.6668 -0.5691
 4842TIP3    H235942   3.463   4.414   2.955  0.9422 -0.5783 -1.0049
 4843TIP3   OH235943   6.383   5.764   5.889  0.2583 -0.1317  0.3140
 4843TIP3    H135944   6.425   5.838   5.844  0.4173 -0.8987 -0.8393
 4843TIP3    H235945   6.456   5.711   5.921  0.4469 -2.8244 -3.8767
 4844TIP3   OH235946   0.518   1.221  11.472 -0.8339 -0.8280 -0.1932
 4844TIP3    H135947   0.535   1.196  11.563  0.1786 -0.3000 -0.2181
 4844TIP3    H235948   0.539   1.143  11.421  0.6444 -0.5168 -0.1259
 4845TIP3   OH235949   5.583   3.256  10.938 -0.3260  0.3441 -0.0927
 4845TIP3    H135950   5.489   3.240  10.936 -0.5209  1.4833 -1.4990
 4845TIP3    H235951   5.609   3.257  10.846  1.2352 -0.7974  0.2911
 4846TIP3   OH235952   4.973   0.380  11.786 -0.4396  0.1300  0.1577
 4846TIP3    H135953   4.967   0.315  11.856  1.2895 -0.4811 -0.2110
 4846TIP3    H235954   4.924   0.455  11.818 -1.2878 -0.8331  1.1952
 4847TIP3   OH235955   1.986   0.182   0.689  0.4641 -0.1530 -0.2653
 4847TIP3    H135956   1.978   0.128   0.610 -2.0816 -1.6572  0.8826
 4847TIP3    H235957   1.960   0.269   0.662 -0.1031 -0.5859 -1.1582
 4848TIP3   OH235958   5.128   3.318  15.312  0.4885 -0.1524 -0.1327
 4848TIP3    H135959   5.204   3.273  15.275  0.0942 -0.3046 -0.7625
 4848TIP3    H235960   5.065   3.322  15.241 -0.7520 -1.4957  0.8343
 4849TIP3   OH235961   1.471   4.924  11.949 -0.2632 -0.3523  0.0558
 4849TIP3    H135962   1.544   4.965  11.904 -0.2378 -0.8850 -0.4046
 4849TIP3    H235963   1.510   4.850  11.996 -0.6582 -1.3676 -1.1523
 4850TIP3   OH235964   5.142   6.126   4.322 -0.1038  0.2815 -0.6477
 4850TIP3    H135965   5.163   6.102   4.412 -0.6054 -1.1489 -0.8849
 4850TIP3    H235966   5.213   6.090   4.269 -0.5918 -0.2351 -0.9639
 4851TIP3   OH235967   4.476   2.401  15.125 -0.2589 -0.2471 -0.3756
 4851TIP3    H135968   4.561   2.375  15.089 -1.6503  0.1385 -4.3569
 4851TIP3    H235969   4.476   2.496  15.118 -0.3221 -0.0692  1.5524
 4852TIP3   OH235970   3.851   3.903   1.399  0.1378  0.0923  0.5221
 4852TIP3    H135971   3.886   3.981   1.356  2.4656 -1.6267 -0.8749
 4852TIP3    H235972   3.835   3.841   1.328  1.2218 -1.7739  1.8289
 4853TIP3   OH235973   5.216   4.879   0.521  0.2095 -0.0610 -0.6893
 4853TIP3    H135974   5.209   4.969   0.489 -2.6966  0.2910  0.5911
 4853TIP3    H235975   5.158   4.829   0.463 -0.2771 -0.5662  0.2169
 4854TIP3   OH235976   0.714   2.999   0.029 -0.5394 -0.0324 -0.0003
 4854TIP3    H135977   0.731   2.978   0.121  0.8743  3.7831  0.7792
 4854TIP3    H235978   0.788   2.961  -0.018 -0.1752 -0.2417  0.7227
 4855TIP3   OH235979   1.080   5.613   2.055 -0.0687 -0.3011 -0.0233
 4855TIP3    H135980   1.124   5.546   2.004 -0.7149 -0.1994 -0.7322
 4855TIP3    H235981   1.004   5.570   2.092  0.5389 -0.4447  1.0989
 4856TIP3   OH235982   0.887   3.897  11.629 -0.0659  0.3707  0.0206
 4856TIP3    H135983   0.837   3.966  11.673 -0.2598  1.1497 -1.3797
 4856TIP3    H235984   0.899   3.830  11.696  1.9509  2.6488  2.1451
 4857TIP3   OH235985   1.105   4.007   0.836 -0.3975 -0.1359  0.1847
 4857TIP3    H135986   1.059   3.933   0.797 -0.7622 -0.2689  0.8519
 4857TIP3    H235987   1.099   3.993   0.931 -1.5485  1.3596  0.3825
 4858TIP3   OH235988   5.357   2.618   4.719  0.2724 -0.3199 -0.0992
 4858TIP3    H135989   5.347   2.523   4.725  1.5348 -0.5747 -1.6393
 4858TIP3    H235990   5.359   2.647   4.811  0.6064 -1.8481  0.4109
 4859TIP3   OH235991   1.215   2.125  11.096 -0.3221  0.0053 -0.3163
 4859TIP3    H135992   1.253   2.068  11.030 -2.4530  0.6239 -2.2428
 4859TIP3    H235993   1.136   2.079  11.126  0.4245 -0.1145  1.6207
 4860TIP3   OH235994   6.761   1.875   3.966  0.3694 -0.2876  0.3570
 4860TIP3    H135995   6.803   1.838   4.044 -0.4281 -1.6071  0.1889
 4860TIP3    H235996   6.667   1.872   3.986  0.2448  3.2731  1.0255
 4861TIP3   OH235997   1.235   6.242  11.940 -0.1822 -0.5797  0.3818
 4861TIP3    H135998   1.148   6.217  11.970 -0.0964 -0.2815  0.8916
 4861TIP3    H235999   1.219   6.299  11.865 -0.3842 -2.0509 -0.7507
 4862TIP3   OH236000   2.814   3.310  11.492  0.0899  0.0753 -0.6128
 4862TIP3    H136001   2.809   3.217  11.511  1.0035 -0.0539 -0.9437
 4862TIP3    H236002   2.845   3.315  11.401  1.6744  0.6756 -0.0867
 4863TIP3   OH236003   4.508   3.462   6.055  0.5744 -0.2620  0.2123
 4863TIP3    H136004   4.584   3.417   6.020 -0.2228  0.3283 -2.4532
 4863TIP3    H236005   4.540   3.549   6.079  0.7740 -0.0468 -0.8109
 4864TIP3   OH236006   6.474   0.324   3.152 -0.0439  0.2433  0.1318
 4864TIP3    H136007   6.499   0.352   3.064  0.5298  0.0897  0.2397
 4864TIP3    H236008   6.524   0.244   3.167 -1.1334 -0.4591  0.1031
 4865TIP3   OH236009   1.872   0.534  16.424  0.0412 -0.1082  0.4114
 4865TIP3    H136010   1.851   0.556  16.333 -0.7474 -1.3996  0.2732
 4865TIP3    H236011   1.904   0.444  16.421 -2.1427 -1.0065  1.6767
 4866TIP3   OH236012   5.806   3.097   0.402 -0.3353 -0.1746 -0.2931
 4866TIP3    H136013   5.760   3.172   0.441 -2.5576 -1.3562 -0.4508
 4866TIP3    H236014   5.895   3.102   0.437 -0.4886  2.3287 -0.0482
 4867TIP3   OH236015   4.724   3.290   5.979 -0.3345 -0.4405  0.1878
 4867TIP3    H136016   4.691   3.201   5.989  1.4892 -0.9623  2.4620
 4867TIP3    H236017   4.759   3.312   6.065  0.1369  2.1401 -0.5765
 4868TIP3   OH236018   4.002   3.867  14.500  0.0369  0.2319  0.0217
 4868TIP3    H136019   4.033   3.786  14.461  0.1573  0.2485  0.0841
 4868TIP3    H236020   3.987   3.845  14.592  2.3827  0.8949  0.6193
 4869TIP3   OH236021   1.076   0.922   0.441  0.7664  0.0847 -0.2621
 4869TIP3    H136022   1.027   1.003   0.456 -0.4983  0.0069 -3.2752
 4869TIP3    H236023   1.156   0.950   0.397  0.8111 -0.2160 -0.3736
 4870TIP3   OH236024   6.237   2.332  11.372  0.0817 -0.3784 -0.0164
 4870TIP3    H136025   6.247   2.254  11.427  2.1375  0.2794  0.6082
 4870TIP3    H236026   6.326   2.361  11.354 -0.6193  1.6417 -0.5283
 4871TIP3   OH236027   1.081   1.273   4.414  0.3587  0.1071 -0.4397
 4871TIP3    H136028   1.176   1.256   4.411  0.7132  1.8204  0.1318
 4871TIP3    H236029   1.073   1.354   4.465 -1.4503 -0.1791 -0.2243
 4872TIP3   OH236030   5.175   2.029  14.364  0.0249 -0.3370  0.4165
 4872TIP3    H136031   5.184   1.939  14.394  0.5522  0.1371  1.7807
 4872TIP3    H236032   5.140   2.076  14.440 -0.2879  0.6049 -0.2890
 4873TIP3   OH236033   2.267   4.423   5.096 -0.3226 -0.1697  0.3082
 4873TIP3    H136034   2.253   4.501   5.150  0.4385  0.7943 -0.8388
 4873TIP3    H236035   2.179   4.392   5.074 -0.6314  0.4807  0.6069
 4874TIP3   OH236036   3.094   1.398  13.162  0.1903  0.1166  0.5090
 4874TIP3    H136037   3.158   1.461  13.195 -0.5510  1.1289  0.0648
 4874TIP3    H236038   3.019   1.451  13.136 -0.0808 -0.8517 -0.8071
 4875TIP3   OH236039   0.316   3.769   4.575  0.0361 -0.1674 -0.6166
 4875TIP3    H136040   0.348   3.716   4.648 -2.5018 -0.2182  0.5603
 4875TIP3    H236041   0.363   3.736   4.498  0.3196 -2.4319  0.4732
 4876TIP3   OH236042   5.369   2.428   2.226 -0.4870  0.5180 -0.7002
 4876TIP3    H136043   5.305   2.487   2.187  0.2049  0.6210 -1.7288
 4876TIP3    H236044   5.364   2.349   2.172  0.6221  0.7315 -1.1398
 4877TIP3   OH236045   0.996   2.615  11.859 -0.2300  0.1516 -0.7475
 4877TIP3    H136046   1.013   2.632  11.766 -0.6034 -3.1374 -1.5225
 4877TIP3    H236047   1.083   2.616  11.900 -0.1261  2.4138 -0.8904
 4878TIP3   OH236048   0.034   1.382  16.007 -0.4453 -0.2263  0.0976
 4878TIP3    H136049   0.008   1.474  15.999  1.3208  0.2851 -0.1101
 4878TIP3    H236050  -0.028   1.346  16.070 -1.2973  1.0515  0.0396
 4879TIP3   OH236051   3.297   6.418   2.890 -0.0650 -0.0283 -0.3175
 4879TIP3    H136052   3.321   6.511   2.895 -2.1693  0.6243 -0.9618
 4879TIP3    H236053   3.325   6.382   2.974  0.1321  1.3827  0.2561
 4880TIP3   OH236054   1.425   2.702   3.455 -0.6762  0.3307  0.4490
 4880TIP3    H136055   1.486   2.772   3.477 -1.1119  0.0994  2.6663
 4880TIP3    H236056   1.435   2.639   3.527 -1.0241 -1.4001 -0.9605
 4881TIP3   OH236057   6.201   1.855  16.558  0.1895 -0.3240  0.0330
 4881TIP3    H136058   6.194   1.806  16.476 -0.1117  0.2610 -0.2940
 4881TIP3    H236059   6.148   1.933  16.544  4.4142  2.6477 -1.3299
 4882TIP3   OH236060   6.245   4.027  12.566  0.2067  0.0498  0.3984
 4882TIP3    H136061   6.341   4.032  12.558  0.1695 -0.8252 -0.9259
 4882TIP3    H236062   6.222   4.100  12.624  1.7491 -0.2399  1.4498
 4883TIP3   OH236063   0.308   2.022  11.830 -0.3717 -0.3343 -0.1789
 4883TIP3    H136064   0.388   2.010  11.882 -0.2149  0.0229 -0.3304
 4883TIP3    H236065   0.284   2.114  11.845 -1.2754 -0.6874  0.5965
 4884TIP3   OH236066   1.064   5.089  14.305  0.1202 -0.7138  0.1780
 4884TIP3    H136067   1.015   5.043  14.237  0.0929 -1.2311  0.5426
 4884TIP3    H236068   0.999   5.111  14.371  0.4254 -1.7062  0.8246
 4885TIP3   OH236069   6.635   5.241   5.128  0.3856  0.2009 -0.0623
 4885TIP3    H136070   6.667   5.235   5.038  0.7967 -1.0528  0.1604
 4885TIP3    H236071   6.563   5.178   5.132  1.2589 -0.7762  0.8444
 4886TIP3   OH236072   1.439   2.505  17.065  0.4941 -0.0059 -0.5198
 4886TIP3    H136073   1.481   2.495  17.151 -1.0377 -1.3064  0.1124
 4886TIP3    H236074   1.382   2.581  17.075 -1.5306 -1.5694  0.4496
 4887TIP3   OH236075   0.235   3.088  14.442  0.5359  0.0295  0.0314
 4887TIP3    H136076   0.155   3.057  14.483 -0.2528  0.1795 -1.3360
 4887TIP3    H236077   0.258   3.167  14.491 -0.2367  0.0626  0.3541
 4888TIP3   OH236078   6.088   5.333   3.853  0.2655 -0.2186 -0.0545
 4888TIP3    H136079   6.138   5.382   3.918 -0.6482  2.0991 -0.9829
 4888TIP3    H236080   6.036   5.272   3.905 -0.9059  1.9703  1.5541
 4889TIP3   OH236081   1.280   0.477  13.314 -0.5291  0.1021 -0.0346
 4889TIP3    H136082   1.266   0.569  13.292 -0.0745  0.3803  0.7790
 4889TIP3    H236083   1.317   0.438  13.235 -0.6487  0.6393 -0.3598
 4890TIP3   OH236084   1.168   5.752  10.991 -0.0428 -0.1209 -0.2171
 4890TIP3    H136085   1.257   5.763  10.958 -0.7034  0.6694 -1.8495
 4890TIP3    H236086   1.114   5.749  10.912 -1.6490  1.0936  0.7943
 4891TIP3   OH236087   5.912   6.080  16.297  0.3602  0.2801  0.1277
 4891TIP3    H136088   5.979   6.088  16.366  1.9762  0.4210 -1.3814
 4891TIP3    H236089   5.944   6.009  16.241 -0.5227  0.6582 -0.8805
 4892TIP3   OH236090   2.222   2.829  13.635  0.2184  0.4487 -0.1086
 4892TIP3    H136091   2.159   2.887  13.679  0.7261  1.6747 -0.9275
 4892TIP3    H236092   2.224   2.860  13.545  0.8471 -0.5804 -0.4664
 4893TIP3   OH236093   5.224   2.785   3.321  0.0401  0.7099 -0.1425
 4893TIP3    H136094   5.266   2.868   3.297  0.3662  0.2568 -1.1582
 4893TIP3    H236095   5.143   2.783   3.270  0.2612  0.1857 -0.4756
 4894TIP3   OH236096   4.978   2.364  14.103  0.2573 -0.5672  0.1543
 4894TIP3    H136097   5.068   2.351  14.131  1.1188  2.2528 -0.9916
 4894TIP3    H236098   4.985   2.400  14.015 -2.1293 -2.8765 -1.1109
 4895TIP3   OH236099   0.204   1.532  15.001  0.0015  0.0301  0.8050
 4895TIP3    H136100   0.176   1.592  14.932 -1.8918 -0.3548  1.1813
 4895TIP3    H236101   0.207   1.447  14.959  0.3278  0.0217  0.8433
 4896TIP3   OH236102   0.405   5.840  16.657 -0.3886 -0.5345  0.0345
 4896TIP3    H136103   0.460   5.917  16.641 -2.5721  0.9715 -0.5896
 4896TIP3    H236104   0.454   5.768  16.617  1.0883  0.7374 -0.5572
 4897TIP3   OH236105   5.680   0.043  10.844  0.4338 -0.0206 -0.0087
 4897TIP3    H136106   5.710  -0.047  10.832 -0.6068 -0.5035  0.8344
 4897TIP3    H236107   5.758   0.096  10.829  0.9763 -1.0217 -0.9176
 4898TIP3   OH236108   0.579   4.819   6.743  0.2181 -0.4130  0.2142
 4898TIP3    H136109   0.587   4.762   6.666 -1.4340  0.6344 -0.7809
 4898TIP3    H236110   0.485   4.835   6.752  0.5436  1.0939  1.2684
 4899TIP3   OH236111   1.201   0.351  10.878  0.1641  0.0672 -0.3815
 4899TIP3    H136112   1.187   0.278  10.938  2.2833 -1.2864 -1.3770
 4899TIP3    H236113   1.250   0.312  10.805 -0.2292  2.1368 -1.8262
 4900TIP3   OH236114   1.877   4.519   1.483  0.0493 -0.1243  0.1867
 4900TIP3    H136115   1.832   4.449   1.532 -0.3105  0.9743  1.4909
 4900TIP3    H236116   1.970   4.504   1.500  0.1340 -1.4869 -1.2523
 4901TIP3   OH236117   1.854   6.708  12.255  0.2645  0.2288 -0.0382
 4901TIP3    H136118   1.936   6.684  12.299 -1.3879  0.2496  3.3755
 4901TIP3    H236119   1.793   6.638  12.278 -1.7319  2.1945  1.0578
 4902TIP3   OH236120   6.307   4.767   3.525 -0.0966  0.0516 -0.2920
 4902TIP3    H136121   6.282   4.729   3.441  2.2462 -0.6050 -0.7610
 4902TIP3    H236122   6.362   4.701   3.566 -1.8292  0.0184  2.1923
 4903TIP3   OH236123   5.405   0.820  11.329  0.0133 -0.6221 -0.0948
 4903TIP3    H136124   5.468   0.890  11.312  0.0977 -0.2359  1.6145
 4903TIP3    H236125   5.368   0.799  11.243 -0.1722  1.6877 -0.6448
 4904TIP3   OH236126   6.178   3.878  11.271 -0.1116 -0.8249 -0.1477
 4904TIP3    H136127   6.241   3.806  11.268 -0.0372 -0.8357  1.1119
 4904TIP3    H236128   6.232   3.957  11.269 -0.1760 -0.7960 -1.1785
 4905TIP3   OH236129   0.780   3.929  14.248  0.4094  0.2086 -0.1115
 4905TIP3    H136130   0.699   3.905  14.294  1.1326 -0.4004  0.8831
 4905TIP3    H236131   0.847   3.871  14.285  0.8523 -1.0665 -2.6732
 4906TIP3   OH236132   1.008   2.270   1.419  0.2861  0.0891 -0.5101
 4906TIP3    H136133   1.087   2.218   1.434  0.3076  0.7525  2.1055
 4906TIP3    H236134   1.040   2.358   1.401  0.1582  0.4436  0.9435
 4907TIP3   OH236135   2.028   1.374  14.155  0.0502 -0.2680  0.7786
 4907TIP3    H136136   1.986   1.400  14.237  0.6792 -0.4002  1.1527
 4907TIP3    H236137   2.122   1.381  14.173  0.2196  1.6022 -0.5348
 4908TIP3   OH236138   5.423   1.158  14.720 -0.3381  0.2628  0.5167
 4908TIP3    H136139   5.429   1.171  14.625  0.8979 -0.5647  0.4593
 4908TIP3    H236140   5.352   1.216  14.747  0.7751  2.2695 -0.5873
 4909TIP3   OH236141   1.469   5.868  13.904  0.3415 -0.1861  0.0248
 4909TIP3    H136142   1.419   5.853  13.984 -0.3220  2.6926  0.2631
 4909TIP3    H236143   1.403   5.874  13.835  0.6555  0.1312 -0.2549
 4910TIP3   OH236144   1.528   6.727  16.968 -0.1186  0.0508 -0.5015
 4910TIP3    H136145   1.493   6.638  16.966 -0.5595  0.2235 -0.8248
 4910TIP3    H236146   1.593   6.727  17.038 -1.7393  0.0550  1.0782
 4911TIP3   OH236147   4.087   1.301   1.083 -0.4376 -0.2220  0.0312
 4911TIP3    H136148   4.165   1.248   1.070  0.6411  1.1779  0.4653
 4911TIP3    H236149   4.087   1.362   1.009 -0.0894  0.9482  0.9521
 4912TIP3   OH236150   5.276   2.335   4.822 -0.4288  0.2237  0.1024
 4912TIP3    H136151   5.275   2.290   4.738  1.2515  0.5560 -0.1204
 4912TIP3    H236152   5.202   2.297   4.871  0.6530 -2.4820 -0.2104
 4913TIP3   OH236153   1.708   1.850  15.313 -0.2817 -0.2457 -0.2963
 4913TIP3    H136154   1.718   1.942  15.290 -1.3700  0.0595  0.3667
 4913TIP3    H236155   1.621   1.827  15.283 -0.2864 -0.8644  0.1594
 4914TIP3   OH236156   4.185   1.856  14.302 -0.2855 -0.5187  0.7442
 4914TIP3    H136157   4.265   1.804  14.303 -0.6349 -1.0565  1.2975
 4914TIP3    H236158   4.146   1.840  14.216  0.8484  0.7614 -0.0342
 4915TIP3   OH236159   6.551   1.472  11.323  0.0072 -0.1254  0.0555
 4915TIP3    H136160   6.635   1.519  11.318 -0.1420  0.0004 -2.0800
 4915TIP3    H236161   6.489   1.538  11.355  0.8597 -0.5209  2.8057
 4916TIP3   OH236162   5.815   2.985   3.932  0.0496  0.1853 -0.0751
 4916TIP3    H136163   5.754   3.058   3.919  0.6888  0.6647 -0.4712
 4916TIP3    H236164   5.869   2.985   3.853  0.7772 -0.0091  0.4068
 4917TIP3   OH236165   0.797   3.697   5.572  0.6207 -0.7524  0.3319
 4917TIP3    H136166   0.703   3.679   5.575  0.0340  1.9121  1.8172
 4917TIP3    H236167   0.835   3.636   5.635 -0.0506 -1.9845 -0.4162
 4918TIP3   OH236168   1.062   1.029  14.935  0.1041 -0.0199 -0.1901
 4918TIP3    H136169   1.038   0.952  14.987  0.2175  2.3594  3.7786
 4918TIP3    H236170   1.156   1.039  14.951  0.0381  1.0728 -0.4263
 4919TIP3   OH236171   2.873   6.631  12.911  0.1406  0.6131 -0.0537
 4919TIP3    H136172   2.856   6.550  12.960 -0.7487  0.5391 -0.4579
 4919TIP3    H236173   2.871   6.604  12.819 -1.3557  1.2672 -0.2494
 4920TIP3   OH236174   0.579   6.370   1.537  0.4863 -0.5267  0.0841
 4920TIP3    H136175   0.506   6.308   1.539  0.6349 -0.6983  1.5359
 4920TIP3    H236176   0.537   6.456   1.529  0.2772 -0.7802 -1.7974
 4921TIP3   OH236177   6.055   0.269  13.704 -0.2282  0.6977  0.3136
 4921TIP3    H136178   6.040   0.175  13.710  0.5931  0.4685 -0.7724
 4921TIP3    H236179   6.052   0.300  13.795  0.6866 -0.5787  0.8121
 4922TIP3   OH236180   4.737   5.912   5.120  0.5273 -0.0372  0.0301
 4922TIP3    H136181   4.792   5.850   5.169  0.6638  0.8114  0.9893
 4922TIP3    H236182   4.670   5.940   5.183 -0.9184 -0.9149 -1.0712
 4923TIP3   OH236183   5.845   4.431   3.958 -0.0710  0.7222  0.9372
 4923TIP3    H136184   5.790   4.370   3.908  0.4747  0.3830  0.7338
 4923TIP3    H236185   5.830   4.516   3.917 -1.5130  0.8984  1.7834
 4924TIP3   OH236186   1.906   6.062   2.830 -0.3282  0.6937  0.0882
 4924TIP3    H136187   1.897   5.984   2.774 -3.0131  0.3446  0.8623
 4924TIP3    H236188   1.968   6.036   2.898  1.0050  0.2576 -1.2418
 4925TIP3   OH236189   3.750   4.316   1.736  0.1334  0.1162 -0.1415
 4925TIP3    H136190   3.778   4.306   1.827 -1.7062 -0.8828  0.3731
 4925TIP3    H236191   3.815   4.267   1.686  0.2561 -0.7355  0.8118
 4926TIP3   OH236192   4.452   2.951  12.104 -0.1519 -0.0243 -0.9506
 4926TIP3    H136193   4.428   3.031  12.151  0.0218 -1.3220  1.5159
 4926TIP3    H236194   4.371   2.901  12.099  0.5915 -1.8796  2.2511
 4927TIP3   OH236195   4.396   6.493  13.605  0.2843 -0.0238  0.1715
 4927TIP3    H136196   4.470   6.432  13.613  0.1968 -0.1505  0.0265
 4927TIP3    H236197   4.320   6.443  13.636  0.2470  0.0805  0.2474
 4928TIP3   OH236198   4.030   4.510  16.645  0.2102 -0.3191 -0.0620
 4928TIP3    H136199   4.045   4.603  16.627 -1.5854  0.7603  3.1830
 4928TIP3    H236200   4.118   4.472  16.649  1.0443  1.4825 -0.3059
 4929TIP3   OH236201   0.109   0.384   1.286 -0.3431  0.3753 -0.1226
 4929TIP3    H136202   0.058   0.444   1.341 -1.1178 -0.5555  0.2051
 4929TIP3    H236203   0.050   0.363   1.214 -0.5970 -1.0205  0.4677
 4930TIP3   OH236204   4.261   5.295  15.721  0.1203  0.3995 -0.3259
 4930TIP3    H136205   4.243   5.271  15.812  0.2934  1.3532 -0.0239
 4930TIP3    H236206   4.211   5.232  15.669  1.1240 -1.0517  0.3859
 4931TIP3   OH236207   5.170   6.306  17.167 -0.3612 -0.5837 -0.5301
 4931TIP3    H136208   5.189   6.331  17.076  3.2351  0.6167  0.4057
 4931TIP3    H236209   5.116   6.378  17.201  1.8747  1.2271 -0.5923
 4932TIP3   OH236210   0.335   6.194  11.971  0.1614 -0.7941 -0.6902
 4932TIP3    H136211   0.254   6.232  11.936  0.6582 -0.4277 -1.4538
 4932TIP3    H236212   0.405   6.238  11.924  0.8995  0.2172  1.2556
 4933TIP3   OH236213   0.280   4.151  15.485  0.6831  0.0502 -0.1014
 4933TIP3    H136214   0.313   4.232  15.446 -1.4319  0.7287 -0.5766
 4933TIP3    H236215   0.275   4.170  15.578  0.5857  0.3083 -0.1590
 4934TIP3   OH236216   2.149   0.225   3.504 -0.3101  0.3193  0.1128
 4934TIP3    H136217   2.073   0.167   3.511 -1.0133  1.0566 -0.9703
 4934TIP3    H236218   2.223   0.171   3.530 -1.4677  0.4731  4.4778
 4935TIP3   OH236219   3.918   5.669   2.083  0.0843  0.0739 -0.0618
 4935TIP3    H136220   3.925   5.763   2.066 -0.8494  0.1297 -0.2115
 4935TIP3    H236221   3.905   5.663   2.178  2.9807 -0.0970  0.3862
 4936TIP3   OH236222   3.904   5.900  12.410  0.0468 -0.0999  0.0604
 4936TIP3    H136223   3.979   5.931  12.359 -1.6948  1.2147 -1.8596
 4936TIP3    H236224   3.889   5.969  12.475  0.8714 -0.6867  0.8975
 4937TIP3   OH236225   1.188   2.393   0.346 -0.0300 -0.1040  0.2572
 4937TIP3    H136226   1.228   2.479   0.337 -0.2775 -0.0395 -0.2410
 4937TIP3    H236227   1.135   2.383   0.267 -0.7437 -0.3240  0.7626
 4938TIP3   OH236228   0.987   2.354  12.440  0.1458  0.1364 -0.2126
 4938TIP3    H136229   1.066   2.300  12.446  0.0127 -0.1981 -1.2127
 4938TIP3    H236230   1.016   2.442  12.465  0.7914 -0.0164 -0.3982
 4939TIP3   OH236231   4.857   4.816   0.578 -0.5454  0.3502  0.6759
 4939TIP3    H136232   4.885   4.838   0.489 -2.4187 -0.4773 -0.1578
 4939TIP3    H236233   4.763   4.804   0.572 -0.9526  1.7033  3.1046
 4940TIP3   OH236234   3.906   0.077   2.384 -0.0833  0.2174 -0.0654
 4940TIP3    H136235   3.932   0.108   2.297 -1.1227 -0.2909 -0.5663
 4940TIP3    H236236   3.859  -0.005   2.368 -3.3646  1.8150  0.6309
 4941TIP3   OH236237   0.260   5.118   1.718 -0.0069 -0.5437 -0.5883
 4941TIP3    H136238   0.282   5.152   1.631 -1.0215 -3.0248 -1.9418
 4941TIP3    H236239   0.287   5.026   1.715 -1.9909 -1.2612  0.9375
 4942TIP3   OH236240   4.291   0.060   2.229 -0.1517  0.6513 -0.3385
 4942TIP3    H136241   4.274   0.014   2.147 -1.2693 -0.2132  0.3537
 4942TIP3    H236242   4.384   0.082   2.225  0.5637 -2.0225 -0.5389
 4943TIP3   OH236243   0.446   5.583  14.100 -0.0936  0.2173  0.0881
 4943TIP3    H136244   0.384   5.650  14.127 -0.2956  0.0763 -0.0269
 4943TIP3    H236245   0.475   5.543  14.182  0.6533  1.0004  0.2134
 4944TIP3   OH236246   5.323   4.013  11.153  0.0751  0.3172  0.3696
 4944TIP3    H136247   5.372   4.092  11.134 -0.5872  0.7021  0.2344
 4944TIP3    H236248   5.295   3.980  11.068  1.4791 -0.8272  0.3022
 4945TIP3   OH236249   2.523   6.198   3.572  0.4024  0.6192  0.3576
 4945TIP3    H136250   2.501   6.281   3.615  0.1710  0.5711  0.3310
 4945TIP3    H236251   2.439   6.156   3.556  0.5124  0.4428  0.2410
 4946TIP3   OH236252   5.215   0.542  11.294 -0.0467  0.1064 -0.3655
 4946TIP3    H136253   5.268   0.606  11.247  0.3595  0.1621  0.1575
 4946TIP3    H236254   5.272   0.465  11.302  0.3751  0.5549  1.1810
 4947TIP3   OH236255   1.997   5.966  13.131 -0.5949  0.0228  0.0422
 4947TIP3    H136256   1.931   6.027  13.099 -0.1772  0.7352  0.4961
 4947TIP3    H236257   2.028   6.006  13.213  0.3945 -0.2823 -0.1711
 4948TIP3   OH236258   2.493   5.513  15.210  0.1174 -0.5748  0.0640
 4948TIP3    H136259   2.550   5.447  15.249  0.1865 -0.2464  0.5225
 4948TIP3    H236260   2.548   5.590  15.199  0.3477 -0.9460 -1.5491
 4949TIP3   OH236261   5.638   3.999   2.135  0.6063  0.4852  0.3203
 4949TIP3    H136262   5.674   4.011   2.223  1.8563 -1.7033  0.1758
 4949TIP3    H236263   5.559   3.947   2.149 -0.3947  1.9432  0.2886
 4950TIP3   OH236264   4.756   4.005  17.135 -0.1356  0.4251  0.4815
 4950TIP3    H136265   4.803   4.012  17.218 -1.2584  0.7331  1.1131
 4950TIP3    H236266   4.818   4.035  17.069  0.8072  0.0846  1.1998
 4951TIP3   OH236267   1.078   6.620  12.142  0.6857 -0.0963  0.1355
 4951TIP3    H136268   1.020   6.683  12.099 -1.1734 -2.2808 -0.7771
 4951TIP3    H236269   1.073   6.642  12.235 -1.7985 -0.2761  0.1116
 4952TIP3   OH236270   4.272   0.732  12.884  0.1343  0.3774 -0.1215
 4952TIP3    H136271   4.336   0.803  12.878  0.4564  0.2652  1.4987
 4952TIP3    H236272   4.195   0.772  12.924 -0.1923  0.1362 -0.5088
 4953TIP3   OH236273   4.448   6.409  16.911  0.3863 -0.4269  0.3289
 4953TIP3    H136274   4.386   6.479  16.932  0.1915 -0.3797 -0.3786
 4953TIP3    H236275   4.394   6.330  16.905  0.7512 -0.8903  2.2714
 4954TIP3   OH236276   6.170   4.533  16.047  0.6228 -0.0470  0.2626
 4954TIP3    H136277   6.157   4.622  16.081 -0.5194 -0.1492  0.1390
 4954TIP3    H236278   6.239   4.542  15.982  1.1752  0.5776  0.9287
 4955TIP3   OH236279   5.302   1.344   4.592 -0.4994 -0.1104  0.0704
 4955TIP3    H136280   5.361   1.415   4.565  1.3568 -1.5703  0.1393
 4955TIP3    H236281   5.214   1.380   4.576  0.3908  1.6590 -1.2864
 4956TIP3   OH236282   3.150   0.484   1.769  0.2592 -0.3377  0.1839
 4956TIP3    H136283   3.152   0.564   1.716 -0.4103 -0.1903  0.3779
 4956TIP3    H236284   3.140   0.515   1.859  0.6785 -0.6182  0.3318
 4957TIP3   OH236285   2.050   2.806   5.091 -0.5967  0.4621 -0.0867
 4957TIP3    H136286   2.001   2.805   5.008  0.8094 -0.7874 -0.9370
 4957TIP3    H236287   2.116   2.738   5.081 -1.2861 -0.7425  2.6543
 4958TIP3   OH236288   4.676   0.439   3.176 -0.2548  0.2834 -0.3574
 4958TIP3    H136289   4.677   0.422   3.081  2.0341 -1.6165 -0.1019
 4958TIP3    H236290   4.665   0.352   3.215 -0.1376  0.9043  1.1193
 4959TIP3   OH236291   6.154   6.006   3.927 -0.3792  0.0478  0.0791
 4959TIP3    H136292   6.169   5.985   3.835  0.8154  2.5542 -0.3885
 4959TIP3    H236293   6.074   5.959   3.950  0.4834 -2.3861 -1.5760
 4960TIP3   OH236294   0.913   4.353  11.938 -0.3288 -0.0776 -0.3725
 4960TIP3    H136295   0.890   4.395  11.855 -0.9585  2.4889  1.0097
 4960TIP3    H236296   0.859   4.397  12.003  3.3416  1.3663  2.0697
 4961TIP3   OH236297   4.158   0.208  14.649  0.1308  0.5032 -0.4828
 4961TIP3    H136298   4.210   0.129  14.665 -0.9700  0.0626  1.1495
 4961TIP3    H236299   4.198   0.274  14.705 -0.6740  0.3122  0.3443
 4962TIP3   OH236300   3.989   4.722  13.374  0.1895 -0.7999  0.1777
 4962TIP3    H136301   4.083   4.735  13.365  0.2193 -2.0232 -2.5509
 4962TIP3    H236302   3.979   4.628  13.393 -0.4645 -0.6755  0.4764
 4963TIP3   OH236303   1.600   2.909  14.079  0.3891  0.2683  0.0645
 4963TIP3    H136304   1.535   2.979  14.081 -0.5596 -0.5912  0.3589
 4963TIP3    H236305   1.659   2.934  14.009 -1.0351  0.4133 -1.1389
 4964TIP3   OH236306   3.863   5.082   3.283  0.1730 -0.0516  0.7220
 4964TIP3    H136307   3.796   5.124   3.337 -1.6105 -0.2606 -1.2258
 4964TIP3    H236308   3.868   5.136   3.204  2.8673  0.3669  1.0841
 4965TIP3   OH236309   6.731   1.229  13.616  0.1751 -0.2975 -0.5316
 4965TIP3    H136310   6.731   1.146  13.568  0.6660 -0.5458 -0.1120
 4965TIP3    H236311   6.772   1.291  13.556 -1.4453 -0.0074 -1.4029
 4966TIP3   OH236312   4.255   1.899  10.938  0.1996  0.2738 -0.4210
 4966TIP3    H136313   4.189   1.934  10.879  0.1525  2.2474  0.7104
 4966TIP3    H236314   4.339   1.923  10.898  0.1731  0.7048 -0.2306
 4967TIP3   OH236315   0.497   5.872  14.970  0.1920  0.6256 -0.3403
 4967TIP3    H136316   0.486   5.967  14.966 -1.6623  0.5520  1.5362
 4967TIP3    H236317   0.583   5.860  15.010 -0.7800  1.6273  2.2365
 4968TIP3   OH236318   2.331   4.697  11.861  0.2965  0.2581  0.4204
 4968TIP3    H136319   2.388   4.648  11.803  1.5465  2.1289 -0.0283
 4968TIP3    H236320   2.349   4.662  11.948  0.9245 -0.2698  0.0840
 4969TIP3   OH236321   4.203   2.786  15.088  0.7023 -0.1238  0.3500
 4969TIP3    H136322   4.156   2.787  15.005 -0.6717  3.3829  0.9657
 4969TIP3    H236323   4.294   2.773  15.064  0.1125 -1.1874 -1.4770
 4970TIP3   OH236324   2.392   2.963  15.119  0.4365  0.0589 -0.3337
 4970TIP3    H136325   2.357   2.912  15.046  0.2951 -1.9695  1.0766
 4970TIP3    H236326   2.318   2.975  15.178  1.0572 -0.3518  0.5558
 4971TIP3   OH236327   2.771   6.204  16.965 -0.2232 -0.8203 -0.5316
 4971TIP3    H136328   2.794   6.111  16.966  0.3849 -0.6822 -0.9618
 4971TIP3    H236329   2.844   6.246  17.011 -1.8660 -0.8264  2.3058
 4972TIP3   OH236330   4.399   3.720  16.402 -0.1003  0.3117 -0.6179
 4972TIP3    H136331   4.326   3.710  16.340  0.3524 -0.5539 -1.0258
 4972TIP3    H236332   4.357   3.752  16.482 -0.5464  2.6561 -1.6872
 4973TIP3   OH236333   3.692   5.124  16.722 -0.3676  0.1650 -0.0647
 4973TIP3    H136334   3.664   5.208  16.759 -1.1659 -0.4027  0.6598
 4973TIP3    H236335   3.616   5.093  16.672 -0.5305 -0.6958  0.6899
 4974TIP3   OH236336   4.672   1.992  16.954 -0.0455  0.7343 -0.1643
 4974TIP3    H136337   4.738   2.017  16.889  0.0600  1.1406  0.1004
 4974TIP3    H236338   4.697   1.903  16.979  1.0936  1.2968  0.7867
 4975TIP3   OH236339   5.655   6.140  12.756  0.0480  0.1304  0.1049
 4975TIP3    H136340   5.594   6.215  12.754 -0.6938 -0.4699 -0.6599
 4975TIP3    H236341   5.641   6.101  12.842  0.0289  0.5493  0.2952
 4976TIP3   OH236342   1.735   2.283   4.959 -0.1576 -0.3335  0.3790
 4976TIP3    H136343   1.770   2.282   5.048  0.1138 -0.2609  0.2741
 4976TIP3    H236344   1.797   2.229   4.909  0.6758  1.0517 -0.1334
 4977TIP3   OH236345   5.871   1.215   2.220 -0.0839 -0.3366  0.1427
 4977TIP3    H136346   5.827   1.221   2.136 -1.3264  0.0768  0.8008
 4977TIP3    H236347   5.855   1.299   2.263 -1.4034 -1.3091  1.6843
 4978TIP3   OH236348   3.930   6.286   1.539  0.6579 -0.0934 -0.2673
 4978TIP3    H136349   3.915   6.238   1.458 -0.5838  1.5567 -1.0859
 4978TIP3    H236350   3.844   6.323   1.561  1.3347  0.8895  0.8511
 4979TIP3   OH236351   5.057   1.845  13.014  0.4542  0.1213  0.3865
 4979TIP3    H136352   4.971   1.804  13.026 -0.3201  1.0856 -1.4190
 4979TIP3    H236353   5.037   1.935  12.986  2.0431  0.4103  0.0646
 4980TIP3   OH236354   3.609   2.511  15.457  0.3461  0.1782 -0.3121
 4980TIP3    H136355   3.549   2.575  15.496 -0.0914  0.0196 -0.7025
 4980TIP3    H236356   3.655   2.472  15.531 -1.1372 -0.8009  0.1531
 4981TIP3   OH236357   5.032   2.385  10.847  0.2885 -0.9397 -0.4525
 4981TIP3    H136358   5.088   2.312  10.876 -0.1860 -0.2531  2.5526
 4981TIP3    H236359   5.068   2.461  10.892 -1.9990 -0.1777  0.2269
 4982TIP3   OH236360   0.550   1.186  13.668  0.3669  0.8273 -0.7146
 4982TIP3    H136361   0.610   1.174  13.741 -0.7774 -1.1633 -0.0231
 4982TIP3    H236362   0.495   1.260  13.695 -0.3364 -0.1635  0.6884
 4983TIP3   OH236363   5.529   4.700  13.116 -0.1866  0.3823 -0.2040
 4983TIP3    H136364   5.453   4.684  13.172  0.1515  3.0700  1.1826
 4983TIP3    H236365   5.585   4.624  13.129 -1.0432  0.0189  1.5917
 4984TIP3   OH236366   5.418   6.715   0.415 -0.2740  0.1756 -0.5416
 4984TIP3    H136367   5.358   6.641   0.411  0.2302 -0.4348  1.5402
 4984TIP3    H236368   5.377   6.783   0.362 -1.8143 -0.8704 -0.7536
 4985TIP3   OH236369   0.909   4.688   1.560 -0.6089 -0.5916 -0.6770
 4985TIP3    H136370   0.845   4.673   1.630 -0.3826 -1.1247 -0.5734
 4985TIP3    H236371   0.856   4.701   1.481 -0.9051  1.2236 -0.2074
 4986TIP3   OH236372   4.716   3.504  13.737  0.1903 -0.0165  0.1379
 4986TIP3    H136373   4.638   3.454  13.713  0.6793 -0.4006 -0.6826
 4986TIP3    H236374   4.702   3.528  13.829 -0.4506 -0.9226  0.2889
 4987TIP3   OH236375   6.643   0.543  16.515  0.4729  0.1210 -0.6139
 4987TIP3    H136376   6.612   0.455  16.489  2.2661 -1.1877  1.3986
 4987TIP3    H236377   6.715   0.526  16.575  0.3762  3.0171  0.4476
 4988TIP3   OH236378   0.314   6.178  16.520 -0.5523  0.5525 -0.2003
 4988TIP3    H136379   0.395   6.135  16.495 -1.1598 -1.1963  0.6930
 4988TIP3    H236380   0.339   6.234  16.594 -0.0088  0.6686 -0.4692
 4989TIP3   OH236381   6.191   5.043   1.239 -0.0408 -0.0038  0.0577
 4989TIP3    H136382   6.144   5.101   1.298 -0.0892 -0.5318  0.5479
 4989TIP3    H236383   6.248   4.991   1.296  1.4779  0.9123 -0.5701
 4990TIP3   OH236384   0.980   1.493   6.652  0.0105  0.4473  0.5514
 4990TIP3    H136385   0.908   1.496   6.589 -0.5249 -0.5020  1.0950
 4990TIP3    H236386   1.037   1.423   6.621 -0.1079  0.1624  0.9677
 4991TIP3   OH236387   2.837   2.688   1.922  0.0670  0.3062  0.0051
 4991TIP3    H136388   2.862   2.700   2.013 -1.2517  2.0791  0.1685
 4991TIP3    H236389   2.744   2.669   1.925  0.4553 -2.0916 -0.8616
 4992TIP3   OH236390   1.999   4.133  16.722 -1.0140 -0.0544  0.0147
 4992TIP3    H136391   1.934   4.115  16.791 -0.4564  0.9287  0.8334
 4992TIP3    H236392   2.083   4.117  16.765 -0.6451  1.0389 -0.2849
 4993TIP3   OH236393   4.279   6.277  10.652 -0.3701  0.2291 -0.1523
 4993TIP3    H136394   4.192   6.314  10.639 -0.4675  0.3493  0.7455
 4993TIP3    H236395   4.276   6.239  10.740  0.8332  1.2997  0.3875
 4994TIP3   OH236396   1.760   1.328  13.504  0.4252  0.3255  0.4437
 4994TIP3    H136397   1.768   1.320  13.599  0.4715 -0.2995  0.3877
 4994TIP3    H236398   1.684   1.274  13.482  2.0577 -1.8415 -0.1927
 4995TIP3   OH236399   2.546   4.541   1.552 -0.2648  0.4655 -0.0991
 4995TIP3    H136400   2.500   4.466   1.588  0.1167  1.2855  2.2968
 4995TIP3    H236401   2.636   4.511   1.541  0.1154  0.7726  1.7875
 4996TIP3   OH236402   6.652   2.464   1.433  0.0255 -0.4990 -0.4240
 4996TIP3    H136403   6.667   2.519   1.510 -2.4990  0.4048 -0.4961
 4996TIP3    H236404   6.727   2.482   1.376  1.8829 -1.0711  1.6762
 4997TIP3   OH236405   0.970   3.350  13.644  0.5940  0.4515  0.0619
 4997TIP3    H136406   1.032   3.343  13.572  1.3500  1.5065  0.5917
 4997TIP3    H236407   1.024   3.349  13.723 -0.1555  0.2215  0.5847
 4998TIP3   OH236408   2.441   1.223  14.025  0.4060  0.2136  0.3176
 4998TIP3    H136409   2.428   1.295  13.963  1.7280 -0.4978 -0.8398
 4998TIP3    H236410   2.526   1.241  14.065 -0.1167  0.2820  1.4163
 4999TIP3   OH236411   1.506   6.598   4.342 -0.6329 -0.0612 -0.3249
 4999TIP3    H136412   1.550   6.559   4.418  0.1822 -1.0877 -1.2878
 4999TIP3    H236413   1.505   6.692   4.360  1.2411 -0.0951  0.1217
 5000TIP3   OH236414   6.455   5.936   5.204  0.6291  0.2339  0.4469
 5000TIP3    H136415   6.433   5.865   5.263  0.7768 -0.7796 -0.6852
 5000TIP3    H236416   6.534   5.906   5.159  1.4176  1.6410  0.8089
 5001TIP3   OH236417   1.237   1.202   1.770  0.0643  0.3100  0.2326
 5001TIP3    H136418   1.234   1.281   1.823  0.5699 -0.3981  1.3492
 5001TIP3    H236419   1.312   1.153   1.804  0.7431  0.0661 -1.4913
 5002TIP3   OH236420   3.944   2.341  17.148  0.0986  0.0541 -0.3891
 5002TIP3    H136421   3.953   2.246  17.155  1.8596  0.1200 -1.2608
 5002TIP3    H236422   4.017   2.368  17.093  0.8773  2.1486  1.5164
 5003TIP3   OH236423   2.615   5.741  16.890  0.5339 -0.0028 -0.0455
 5003TIP3    H136424   2.623   5.674  16.822  0.9676 -0.6959  0.6728
 5003TIP3    H236425   2.542   5.795  16.861 -0.5968 -1.4723 -0.0605
 5004TIP3   OH236426   3.144   0.394   1.361  0.2831  0.4172  0.4101
 5004TIP3    H136427   3.236   0.366   1.369  0.0414 -1.8865 -2.8447
 5004TIP3    H236428   3.096   0.333   1.418  0.5873  0.2272  0.4678
 5005TIP3   OH236429   1.541   1.693   0.914 -0.0772  0.0713 -0.1185
 5005TIP3    H136430   1.561   1.621   0.974 -1.1319 -0.2221 -0.1123
 5005TIP3    H236431   1.498   1.759   0.969  1.5186  1.0547  0.0361
 5006TIP3   OH236432   4.263   0.012   1.483  0.1269 -0.0168  0.2098
 5006TIP3    H136433   4.336   0.067   1.510  0.4168 -0.1513 -0.2951
 5006TIP3    H236434   4.199   0.073   1.446 -0.2034  0.1497  1.0238
 5007TIP3   OH236435   2.101   4.222  13.804  0.2369 -0.0646 -0.0966
 5007TIP3    H136436   2.008   4.239  13.790  0.0605 -0.8594  0.0223
 5007TIP3    H236437   2.145   4.261  13.728 -0.1368  0.7593  0.1012
 5008TIP3   OH236438   6.279   5.002   4.285 -0.7018 -0.2575  0.1654
 5008TIP3    H136439   6.327   4.939   4.338 -1.5879  0.2683  1.6654
 5008TIP3    H236440   6.226   4.949   4.226  1.0256 -0.8517 -0.9519
 5009TIP3   OH236441   4.611   2.257   1.633  0.6211 -0.6012  0.7469
 5009TIP3    H136442   4.603   2.300   1.718 -3.4680  1.6096 -0.4859
 5009TIP3    H236443   4.604   2.328   1.569 -2.7214 -2.5711 -1.3881
 5010TIP3   OH236444   2.967   4.661   1.742  0.3388 -0.2276 -0.0049
 5010TIP3    H136445   3.001   4.717   1.672 -0.5511 -0.9976 -1.0851
 5010TIP3    H236446   3.039   4.601   1.763  0.5926 -0.0220 -0.2855
 5011TIP3   OH236447   3.206   3.654  12.996 -0.0464 -0.1139  0.1560
 5011TIP3    H136448   3.207   3.693  12.909  1.1237  0.7908  0.5437
 5011TIP3    H236449   3.231   3.726  13.055 -1.6380 -0.4803  1.3531
 5012TIP3   OH236450   3.969   6.280  11.770 -0.0105 -0.9695  0.4353
 5012TIP3    H136451   4.003   6.359  11.728 -2.1990 -0.1569  0.0327
 5012TIP3    H236452   4.012   6.208  11.724  0.2383 -0.0434 -0.8397
 5013TIP3   OH236453   0.696   4.438   1.051  0.2001  0.1890 -0.3885
 5013TIP3    H136454   0.766   4.436   1.116  0.5121 -1.3187 -0.7365
 5013TIP3    H236455   0.738   4.409   0.970 -0.9596 -1.3572 -0.4673
 5014TIP3   OH236456   4.117   1.023   5.997 -0.0975 -0.2465 -0.0916
 5014TIP3    H136457   4.071   0.998   6.078 -1.4574 -0.5474 -0.9346
 5014TIP3    H236458   4.060   1.088   5.956  0.3890 -0.3812 -1.0001
 5015TIP3   OH236459   3.512   3.250  12.260 -0.1861 -0.4944 -0.2264
 5015TIP3    H136460   3.481   3.335  12.292  2.4614  0.8776 -1.0436
 5015TIP3    H236461   3.432   3.200  12.246 -1.7994  1.3843  1.4790
 5016TIP3   OH236462   6.439   0.491   4.187  0.0520 -0.2004  0.2016
 5016TIP3    H136463   6.370   0.547   4.223 -0.2673 -0.6666  0.3139
 5016TIP3    H236464   6.504   0.553   4.153  0.4659  0.2728  1.7566
 5017TIP3   OH236465   1.577   5.597  11.199 -0.4412  0.0425  0.1041
 5017TIP3    H136466   1.587   5.501  11.192 -0.8423  0.0071  0.0107
 5017TIP3    H236467   1.547   5.623  11.112  1.7436  0.5236 -0.5820
 5018TIP3   OH236468   6.699   2.886  15.156  0.0917  0.1571 -0.3736
 5018TIP3    H136469   6.757   2.912  15.227 -2.5282  0.8251  1.7125
 5018TIP3    H236470   6.705   2.790  15.155 -0.2503  0.0749  1.2362
 5019TIP3   OH236471   1.221   6.179  15.280  1.0134 -0.0460 -0.6554
 5019TIP3    H136472   1.251   6.124  15.208  1.9283 -1.4743  0.7492
 5019TIP3    H236473   1.243   6.268  15.253  0.1841 -0.4071 -2.6600
 5020TIP3   OH236474   4.800   4.873   5.524 -0.2090 -0.1677  0.4206
 5020TIP3    H136475   4.766   4.837   5.606 -1.1994  0.9116  0.5156
 5020TIP3    H236476   4.832   4.960   5.549 -3.5988  1.6155 -0.8789
 5021TIP3   OH236477   3.870   0.331   1.478  0.5124  0.4440 -0.5612
 5021TIP3    H136478   3.844   0.339   1.386 -0.2070  0.9109 -0.3325
 5021TIP3    H236479   3.888   0.421   1.506 -1.5117  0.6342  0.3514
 5022TIP3   OH236480   5.880   5.009  11.699 -0.2431  0.4369 -0.6983
 5022TIP3    H136481   5.899   4.933  11.643 -0.5517 -0.7060  0.6979
 5022TIP3    H236482   5.885   4.975  11.788  1.7126  2.5385  0.0832
 5023TIP3   OH236483   6.123   3.432   6.605  0.1123  0.2488 -0.3674
 5023TIP3    H136484   6.104   3.339   6.601  1.3409  0.0306 -2.5527
 5023TIP3    H236485   6.041   3.475   6.580  0.0998 -0.3198 -1.3028
 5024TIP3   OH236486   0.184   4.036   5.730  0.2837  0.5125  0.2324
 5024TIP3    H136487   0.253   3.991   5.778  0.2992  1.7913  1.4583
 5024TIP3    H236488   0.117   4.056   5.796 -2.2419 -2.3094 -1.1762
 5025TIP3   OH236489   0.178   0.443   4.284  0.3357  0.2901 -0.1756
 5025TIP3    H136490   0.199   0.360   4.242  0.4243  0.4098 -0.3727
 5025TIP3    H236491   0.190   0.508   4.214 -0.8791  0.3471 -0.3703
 5026TIP3   OH236492   5.899   1.814  12.575  0.0160  0.1563  0.0985
 5026TIP3    H136493   5.972   1.760  12.544  1.5501  1.8518  0.5724
 5026TIP3    H236494   5.832   1.751  12.602  1.4990 -1.4786  0.1328
 5027TIP3   OH236495   4.343   3.969   5.367 -0.5757  0.3252  0.1766
 5027TIP3    H136496   4.384   4.055   5.356 -2.2545  1.1157 -0.1536
 5027TIP3    H236497   4.399   3.924   5.431  0.0209  1.8726  0.7947
 5028TIP3   OH236498   0.950   0.992  13.806 -0.0975  0.5798 -0.3327
 5028TIP3    H136499   0.996   0.921  13.852 -0.1208  1.3772  0.9830
 5028TIP3    H236500   0.877   0.948  13.762 -0.2088 -0.2057  0.5881
 5029TIP3   OH236501   0.396   0.321   6.039 -0.6257 -0.0043  0.3619
 5029TIP3    H136502   0.436   0.357   5.960  0.2678 -1.4568  0.1053
 5029TIP3    H236503   0.343   0.248   6.007 -1.8842  0.6435  0.9181
 5030TIP3   OH236504   0.140   0.479   4.775 -0.0645  0.6984 -0.3795
 5030TIP3    H136505   0.049   0.476   4.746 -0.1017 -2.5753 -0.3587
 5030TIP3    H236506   0.188   0.427   4.709  1.6656  1.6970  0.0194
 5031TIP3   OH236507   2.458   5.209   6.189 -0.3119  0.1633 -0.0474
 5031TIP3    H136508   2.386   5.214   6.253 -0.3951 -0.3279 -0.0962
 5031TIP3    H236509   2.531   5.255   6.231 -0.0711 -0.9566  0.8095
 5032TIP3   OH236510   2.786   1.434   3.128  0.3858  0.0301 -0.4021
 5032TIP3    H136511   2.815   1.381   3.054  0.5590 -1.2825  0.5647
 5032TIP3    H236512   2.848   1.413   3.198  1.2155  2.4549 -0.3131
 5033TIP3   OH236513   4.227   6.476   4.647  0.2416  0.3799  0.1208
 5033TIP3    H136514   4.184   6.498   4.564  0.1894  2.4552  0.6620
 5033TIP3    H236515   4.320   6.483   4.628  0.2871 -0.6563 -0.1257
 5034TIP3   OH236516   6.496   0.924   5.291  0.3084 -0.0499 -0.6534
 5034TIP3    H136517   6.526   0.995   5.234 -0.3916 -0.5356 -1.6512
 5034TIP3    H236518   6.549   0.849   5.265  1.6800  0.2705  1.0038
 5035TIP3   OH236519   2.723   3.545  15.978  0.5695  0.3355 -0.1967
 5035TIP3    H136520   2.692   3.532  16.068  0.1092 -0.0978 -0.4129
 5035TIP3    H236521   2.769   3.464  15.956  1.6001  0.8564  0.0112
 5036TIP3   OH236522   4.750   2.121  14.445 -0.2895  0.3842 -0.0619
 5036TIP3    H136523   4.684   2.187  14.426 -0.6879  0.5379  1.6493
 5036TIP3    H236524   4.730   2.093  14.535 -0.2696 -2.2020 -0.7699
 5037TIP3   OH236525   5.106   0.119  13.957  0.4754  0.2470 -0.0519
 5037TIP3    H136526   5.049   0.063  13.904  0.7318 -1.9551  1.8721
 5037TIP3    H236527   5.195   0.097  13.929  0.5728 -0.2895  0.6467
 5038TIP3   OH236528   5.856   1.735   5.939  0.5318  0.2491 -0.8624
 5038TIP3    H136529   5.889   1.818   5.974 -0.0652  0.0269  0.2443
 5038TIP3    H236530   5.902   1.668   5.989 -0.2141 -0.0753 -0.6052
 5039TIP3   OH236531   2.369   0.935  12.826  0.2959  0.2330 -0.2290
 5039TIP3    H136532   2.289   0.941  12.775  1.2878  0.4442 -1.8417
 5039TIP3    H236533   2.409   1.022  12.818  1.6850 -0.4542 -1.2247
 5040TIP3   OH236534   3.138   0.520   2.052  0.1642 -0.6053 -0.8158
 5040TIP3    H136535   3.177   0.565   2.127 -0.6952  1.0868 -1.3272
 5040TIP3    H236536   3.067   0.468   2.089  0.0124 -0.1112 -0.4024
 5041TIP3   OH236537   5.508   4.637   5.372 -0.1178  0.1624  0.2545
 5041TIP3    H136538   5.578   4.572   5.378  0.6118  0.8694 -0.3901
 5041TIP3    H236539   5.511   4.683   5.456 -0.0046  0.0050  0.3384
 5042TIP3   OH236540   0.749   1.890   3.974  0.6919  0.5477  0.3208
 5042TIP3    H136541   0.708   1.810   4.008  1.1654  0.5783  1.0000
 5042TIP3    H236542   0.832   1.860   3.936  1.3065  0.8189  1.4120
 5043TIP3   OH236543   5.497   2.172   1.327  0.0856 -0.2148  1.5828
 5043TIP3    H136544   5.561   2.204   1.390  0.9141 -0.2422  0.7767
 5043TIP3    H236545   5.531   2.086   1.300  0.4549  0.3539  0.1404
 5044TIP3   OH236546   5.883   0.753   4.208 -0.2620  0.0966 -0.3741
 5044TIP3    H136547   5.961   0.761   4.265  0.0930  1.5030 -1.0282
 5044TIP3    H236548   5.810   0.781   4.264 -0.2939 -0.9695  0.1577
 5045TIP3   OH236549   6.452   5.745  14.770  0.5328  0.4867 -0.5304
 5045TIP3    H136550   6.461   5.652  14.750  0.4221  0.5247 -0.7624
 5045TIP3    H236551   6.425   5.785  14.687 -1.4714  0.4148  0.0160
 5046TIP3   OH236552   3.563   5.442   0.788 -0.4358  0.2960 -0.0733
 5046TIP3    H136553   3.497   5.467   0.852  0.9527  2.5709  0.6063
 5046TIP3    H236554   3.641   5.421   0.840 -0.1672 -0.9242 -0.9102
 5047TIP3   OH236555   6.113   2.213   3.784  0.1551  0.1529 -0.2372
 5047TIP3    H136556   6.051   2.214   3.712  0.8519  0.3528 -0.8489
 5047TIP3    H236557   6.068   2.256   3.856 -0.3874  0.3464 -0.6916
 5048TIP3   OH236558   3.066   4.042   5.770 -0.2611  0.0888  0.0336
 5048TIP3    H136559   3.045   4.090   5.850 -1.3315 -1.0560  0.4672
 5048TIP3    H236560   3.007   3.967   5.771  0.7002 -0.7123 -1.1155
 5049TIP3   OH236561   1.987   2.178  11.961 -0.2079  0.0044 -0.5028
 5049TIP3    H136562   1.958   2.088  11.945 -3.9013  1.0800 -0.7847
 5049TIP3    H236563   2.001   2.182  12.056 -3.0075 -0.2264  0.0066
 5050TIP3   OH236564   1.568   2.695   0.555 -0.2652  0.0462 -0.2723
 5050TIP3    H136565   1.552   2.753   0.481  1.6562  0.5092 -0.3774
 5050TIP3    H236566   1.659   2.712   0.580 -0.2820 -1.4680  0.9936
 5051TIP3   OH236567   6.047   5.058  16.115  0.2793 -0.1492 -0.0789
 5051TIP3    H136568   6.077   5.119  16.048 -0.2395 -0.1518 -0.3149
 5051TIP3    H236569   6.051   4.972  16.074 -1.3177 -0.0079 -0.5634
 5052TIP3   OH236570   1.052   1.110   2.811  0.4285 -0.1325  0.0386
 5052TIP3    H136571   0.997   1.044   2.769 -1.2945  0.7062  0.8807
 5052TIP3    H236572   1.110   1.059   2.868  0.5393 -1.0362 -0.8355
 5053TIP3   OH236573   4.349   5.086   1.329 -0.2942 -0.8552 -0.0496
 5053TIP3    H136574   4.358   5.070   1.235  0.1687 -1.8340  0.1422
 5053TIP3    H236575   4.437   5.112   1.358 -0.7058  0.6849 -0.0827
 5054TIP3   OH236576   1.244   5.275  12.890  0.6043  0.4015  0.3744
 5054TIP3    H136577   1.204   5.360  12.871 -2.2798 -0.6559  1.2627
 5054TIP3    H236578   1.321   5.296  12.942 -0.9195  2.4419  1.9691
 5055TIP3   OH236579   4.941   1.075  14.135  0.2285  0.7824 -0.3767
 5055TIP3    H136580   4.930   0.992  14.089 -0.6209  0.7769 -0.1747
 5055TIP3    H236581   4.926   1.054  14.227 -0.7437  1.2884 -0.4030
 5056TIP3   OH236582   4.078   0.337  15.973 -0.2572 -0.2203 -0.2274
 5056TIP3    H136583   4.005   0.276  15.985 -0.5934  0.1028 -0.6340
 5056TIP3    H236584   4.066   0.372  15.885  0.6001 -0.4405 -0.4370
 5057TIP3   OH236585   3.420   3.209   4.287  0.0256  0.0976 -0.2513
 5057TIP3    H136586   3.399   3.119   4.263  2.7817 -1.1040  1.4767
 5057TIP3    H236587   3.337   3.256   4.278 -2.3155 -3.2585  1.8967
 5058TIP3   OH236588   3.369   5.327  16.837  0.6057 -0.2308  0.1401
 5058TIP3    H136589   3.465   5.329  16.839  0.6183 -0.7243  0.1508
 5058TIP3    H236590   3.343   5.414  16.868  1.0501 -0.0055 -0.1109
 5059TIP3   OH236591   2.981   2.328  13.428 -0.0093  0.5688 -0.6231
 5059TIP3    H136592   3.017   2.247  13.463 -0.2495  0.7578  0.0835
 5059TIP3    H236593   2.886   2.314  13.427 -0.0186  0.6490 -0.9891
 5060TIP3   OH236594   5.979   5.797  13.558 -0.5605  0.0418 -0.3804
 5060TIP3    H136595   5.916   5.869  13.568  0.4274  1.2202 -2.1914
 5060TIP3    H236596   6.056   5.826  13.605 -0.1966  0.1204 -1.0198
 5061TIP3   OH236597   3.698   3.161  10.826 -0.2851 -0.4689 -0.2794
 5061TIP3    H136598   3.768   3.096  10.835 -1.2206 -1.9760 -2.9266
 5061TIP3    H236599   3.745   3.243  10.811  0.9407 -1.1315 -0.2348
 5062TIP3   OH236600   2.600   5.858   5.914 -0.4822  0.0983 -0.3921
 5062TIP3    H136601   2.684   5.899   5.933 -0.4295  0.1312 -0.6954
 5062TIP3    H236602   2.535   5.922   5.943 -0.4231 -0.3895  0.9021
 5063TIP3   OH236603   3.158   3.484  15.219  0.0901 -0.2907  0.0767
 5063TIP3    H136604   3.099   3.488  15.144  0.7684  1.4597 -0.4148
 5063TIP3    H236605   3.202   3.400  15.210 -1.7423 -1.2986  0.0390
 5064TIP3   OH236606   5.463   2.483   0.806  0.6019 -0.0891 -0.5986
 5064TIP3    H136607   5.384   2.526   0.837 -0.6371 -1.9419 -0.9784
 5064TIP3    H236608   5.493   2.537   0.733  0.2912  1.1993  0.2047
 5065TIP3   OH236609   0.697   1.121   4.971  0.6597  0.6021  0.3921
 5065TIP3    H136610   0.602   1.130   4.978  0.5367  0.2408 -0.6259
 5065TIP3    H236611   0.727   1.116   5.061 -0.2599  1.0069  0.7391
 5066TIP3   OH236612   6.458   4.757  11.762 -0.1115  0.4810 -0.5917
 5066TIP3    H136613   6.548   4.790  11.769  1.2786 -2.0920 -3.7014
 5066TIP3    H236614   6.431   4.743  11.853  3.3682 -0.3076  0.4980
 5067TIP3   OH236615   4.346   0.465   5.071 -0.3108 -0.6125  0.1320
 5067TIP3    H136616   4.406   0.539   5.059  0.1744 -1.0008  0.1475
 5067TIP3    H236617   4.261   0.498   5.043 -0.2784  0.2493  0.9993
 5068TIP3   OH236618   3.123   0.581  14.556 -0.1410 -0.0113 -0.3974
 5068TIP3    H136619   3.033   0.603  14.578 -0.0337 -0.3168  0.3968
 5068TIP3    H236620   3.132   0.489  14.582  0.5773  0.1983  0.1319
 5069TIP3   OH236621   3.582   0.138  16.994  0.3834  0.2983 -0.1706
 5069TIP3    H136622   3.672   0.160  17.018  0.5293 -1.3771  0.9938
 5069TIP3    H236623   3.539   0.119  17.078 -0.2214 -1.7937 -0.9048
 5070TIP3   OH236624   1.738   3.521   5.210 -0.1416  0.0519  0.6330
 5070TIP3    H136625   1.679   3.586   5.249  0.1263  1.0512 -0.5506
 5070TIP3    H236626   1.770   3.564   5.130 -0.1857 -1.6656 -0.3441
 5071TIP3   OH236627   4.611   6.654  12.687  0.3134  0.1580 -0.3083
 5071TIP3    H136628   4.696   6.654  12.644  0.1200 -1.9211 -0.7905
 5071TIP3    H236629   4.548   6.673  12.617  0.1425 -1.4992 -0.6313
 5072TIP3   OH236630   0.099   4.761   3.042 -0.2290 -0.3358 -0.6991
 5072TIP3    H136631   0.194   4.772   3.037  0.5404 -3.6175  2.3012
 5072TIP3    H236632   0.069   4.772   2.952  3.2234 -0.6704 -2.0554
 5073TIP3   OH236633   6.527   5.573   5.434  0.0639 -0.4609  0.0248
 5073TIP3    H136634   6.448   5.620   5.406  0.3958 -0.4527 -0.9195
 5073TIP3    H236635   6.552   5.520   5.358 -0.0669 -1.8741  0.9299
 5074TIP3   OH236636   1.546   4.736  13.263  0.1001  0.2331 -0.2521
 5074TIP3    H136637   1.600   4.802  13.220  0.8611 -0.0495  0.2463
 5074TIP3    H236638   1.551   4.659  13.206  2.3934 -0.6819  1.0112
 5075TIP3   OH236639   0.473   2.584   0.549 -0.4574  0.1614 -0.2511
 5075TIP3    H136640   0.494   2.586   0.642  1.0289  1.2312 -0.5692
 5075TIP3    H236641   0.388   2.629   0.543  0.2854  1.7283  0.4101
 5076TIP3   OH236642   5.777   2.203   3.800 -0.5010 -0.9688  0.2604
 5076TIP3    H136643   5.796   2.113   3.776 -0.4792 -0.8419 -0.2025
 5076TIP3    H236644   5.750   2.245   3.718  1.0017 -0.1572  0.1395
 5077TIP3   OH236645   5.804   3.027   5.228 -0.2312  0.1440  0.1217
 5077TIP3    H136646   5.840   2.943   5.257  0.0933 -0.4832 -1.9756
 5077TIP3    H236647   5.731   3.003   5.171 -1.2922  1.3441  0.9318
 5078TIP3   OH236648   2.233   1.851  12.803  0.3150  0.2798  0.1415
 5078TIP3    H136649   2.320   1.812  12.803 -0.3787 -1.4271  1.5215
 5078TIP3    H236650   2.212   1.862  12.896 -0.2676  2.3043 -0.1851
 5079TIP3   OH236651   3.852   5.739  12.919 -0.1983  0.6396  0.8682
 5079TIP3    H136652   3.932   5.741  12.973 -0.6787  2.2669  1.6154
 5079TIP3    H236653   3.782   5.721  12.981 -0.3836 -1.4626  0.1062
 5080TIP3   OH236654   5.077   0.785   4.949  0.1226  0.3934 -0.0737
 5080TIP3    H136655   5.053   0.874   4.922 -0.6389 -0.2139 -1.5551
 5080TIP3    H236656   4.993   0.740   4.956  0.5377 -0.3474  0.1292
 5081TIP3   OH236657   3.899   4.158  15.657 -0.6031  0.1806 -0.4179
 5081TIP3    H136658   3.970   4.097  15.674 -0.7076  0.5310  1.4587
 5081TIP3    H236659   3.868   4.135  15.569  0.3034 -1.4981 -0.3350
 5082TIP3   OH236660   0.271   2.414   4.670  0.0431  0.4722  0.4191
 5082TIP3    H136661   0.304   2.326   4.688  0.1314  0.7826  1.9315
 5082TIP3    H236662   0.210   2.403   4.597  2.2228 -0.3702 -1.3977
 5083TIP3   OH236663   3.164   0.240  15.947 -0.1844  0.2289 -0.1095
 5083TIP3    H136664   3.165   0.329  15.912 -1.4841  0.0629 -0.6311
 5083TIP3    H236665   3.091   0.197  15.901  1.2655 -1.5346 -0.9068
 5084TIP3   OH236666   4.272   0.164   0.799  0.5350  0.0611 -0.3822
 5084TIP3    H136667   4.242   0.081   0.835  0.5832  0.6239  1.0306
 5084TIP3    H236668   4.207   0.185   0.731  0.0398 -0.7037 -0.1648
 5085TIP3   OH236669   6.776   0.892   4.033 -0.0660  1.1697  0.2777
 5085TIP3    H136670   6.870   0.874   4.023 -0.1306  0.8554  0.2333
 5085TIP3    H236671   6.745   0.904   3.943 -0.2358  0.4168  0.2286
 5086TIP3   OH236672   4.495   5.260  11.832  0.0379  0.1507 -0.6120
 5086TIP3    H136673   4.485   5.172  11.868 -0.4715 -0.1431 -1.4385
 5086TIP3    H236674   4.578   5.257  11.785 -0.2763 -0.0893 -1.1652
 5087TIP3   OH236675   1.774   6.573  12.805  0.6176  0.2174 -0.2020
 5087TIP3    H136676   1.686   6.537  12.802  0.4284  0.5987  0.5218
 5087TIP3    H236677   1.823   6.523  12.740  0.7201 -2.2594  1.6477
 5088TIP3   OH236678   1.037   3.109   2.629  0.1864 -0.5624  0.0346
 5088TIP3    H136679   1.092   3.038   2.594  0.8184 -0.3491  0.5923
 5088TIP3    H236680   1.031   3.092   2.723 -0.9318 -0.7315 -0.0481
 5089TIP3   OH236681   3.343   0.993  14.407 -0.3684 -0.4863 -0.1084
 5089TIP3    H136682   3.414   1.011  14.345  1.3102  0.5410  1.9681
 5089TIP3    H236683   3.330   0.898  14.401  0.8599 -0.6315 -0.8679
 5090TIP3   OH236684   1.243   1.762   5.482 -0.4288  0.3175  0.5368
 5090TIP3    H136685   1.162   1.749   5.531  0.3368 -0.6006  1.6228
 5090TIP3    H236686   1.221   1.826   5.415 -1.6378  1.3093  1.8176
 5091TIP3   OH236687   1.380   1.292  10.776 -0.0139  0.5206 -0.8575
 5091TIP3    H136688   1.448   1.344  10.732 -0.7943  1.8461 -0.5537
 5091TIP3    H236689   1.422   1.264  10.858 -0.0500  2.0081 -0.2915
 5092TIP3   OH236690   6.755   3.391   5.740  0.1502 -0.2508 -0.0584
 5092TIP3    H136691   6.770   3.467   5.684  0.5440 -0.1109  0.2288
 5092TIP3    H236692   6.696   3.335   5.691  0.4033 -0.0764 -0.5641
 5093TIP3   OH236693   6.795   5.672   4.908  0.7715 -0.2403 -0.7687
 5093TIP3    H136694   6.851   5.614   4.960 -2.0871 -2.9267 -0.4005
 5093TIP3    H236695   6.810   5.645   4.818  1.5627  0.5562 -0.9015
 5094TIP3   OH236696   2.356   6.085   0.835  0.1325  0.5004 -0.0541
 5094TIP3    H136697   2.280   6.074   0.892  1.6563  0.1772  2.0283
 5094TIP3    H236698   2.350   6.176   0.803  0.0411  1.2222  1.9072
 5095TIP3   OH236699   0.469   6.314  15.626  0.2361 -0.7411  0.1229
 5095TIP3    H136700   0.515   6.232  15.610  0.7289 -0.1927 -1.3463
 5095TIP3    H236701   0.426   6.301  15.711  0.2113 -2.5477 -0.1397
 5096TIP3   OH236702   6.375   3.418  13.538  0.4232  0.0635  0.2654
 5096TIP3    H136703   6.414   3.339  13.576  0.5753 -0.8959 -1.7329
 5096TIP3    H236704   6.356   3.394  13.447 -0.7412  1.9327 -0.0437
 5097TIP3   OH236705   1.511   3.284   6.053 -0.2120  0.1661 -0.4200
 5097TIP3    H136706   1.451   3.212   6.033  2.0105 -1.0296 -3.4490
 5097TIP3    H236707   1.577   3.246   6.110 -0.8754  0.8270  0.8494
 5098TIP3   OH236708   0.101   2.970  11.405  0.3509  0.5215  0.2615
 5098TIP3    H136709   0.138   2.953  11.318  0.3690  1.7984  0.0012
 5098TIP3    H236710   0.055   3.053  11.395  0.2857  0.6351  1.4607
 5099TIP3   OH236711   5.741   1.431   4.512  0.2344  0.1740  0.4325
 5099TIP3    H136712   5.779   1.373   4.446  1.2850  0.7913  0.4688
 5099TIP3    H236713   5.768   1.393   4.595  3.1125  2.0056  0.4673
 5100TIP3   OH236714   5.504   4.957   0.698  0.1691 -0.2308  0.2149
 5100TIP3    H136715   5.452   4.891   0.650  0.0186 -0.1033  0.2008
 5100TIP3    H236716   5.447   5.034   0.702  0.5139  0.0451 -0.1474
 5101TIP3   OH236717   4.465   4.746   3.320 -0.4909 -0.5670 -0.7425
 5101TIP3    H136718   4.375   4.776   3.313 -0.5423  0.4347  2.3268
 5101TIP3    H236719   4.474   4.719   3.412  2.3438 -0.4740 -0.8924
 5102TIP3   OH236720   6.480   5.241  12.571  0.2943 -0.3605 -0.0353
 5102TIP3    H136721   6.545   5.309  12.587 -0.4339  0.3243  0.1090
 5102TIP3    H236722   6.485   5.224  12.477 -1.8970  2.4854 -0.8354
 5103TIP3   OH236723   0.661   5.468   2.846  0.4304 -0.1525 -0.1954
 5103TIP3    H136724   0.674   5.384   2.890 -0.0370 -1.3787 -2.2861
 5103TIP3    H236725   0.673   5.533   2.916  1.4160 -1.8938  1.3551
 5104TIP3   OH236726   1.362   0.536  14.370 -0.1057  0.0506  0.1725
 5104TIP3    H136727   1.285   0.525  14.426  0.5189 -0.7013  0.9003
 5104TIP3    H236728   1.399   0.448  14.363  0.8679  0.4622  0.0784
 5105TIP3   OH236729   1.676   2.117  11.636 -0.3274  0.2695  0.1769
 5105TIP3    H136730   1.697   2.154  11.551 -0.4910 -1.3954 -0.6265
 5105TIP3    H236731   1.596   2.162  11.663 -0.4689  0.5625 -0.7098
 5106TIP3   OH236732   5.858   4.500  10.473  0.3942 -0.6175 -0.3736
 5106TIP3    H136733   5.916   4.428  10.495  2.6496  1.3037  0.4010
 5106TIP3    H236734   5.916   4.567  10.436 -1.8327  0.2117 -2.6913
 5107TIP3   OH236735   6.504   0.009  14.332  0.0998  0.0374  0.2096
 5107TIP3    H136736   6.443   0.074  14.298 -0.2142  0.0395  0.7773
 5107TIP3    H236737   6.493  -0.067  14.274  0.6623  0.5657 -0.6251
 5108TIP3   OH236738   2.376   3.194  12.134 -0.4595 -0.0804  0.2299
 5108TIP3    H136739   2.398   3.260  12.068 -0.0701 -0.3395  0.0928
 5108TIP3    H236740   2.340   3.121  12.083  0.5128 -0.5707  0.2165
 5109TIP3   OH236741   1.951   4.568   1.797  0.3757  0.3041  0.2237
 5109TIP3    H136742   1.932   4.476   1.783 -0.4437  0.2118  1.6913
 5109TIP3    H236743   1.865   4.610   1.806  0.7418  0.9184  1.1108
 5110TIP3   OH236744   2.308   4.422  15.699 -0.4696  0.1491  0.0175
 5110TIP3    H136745   2.258   4.454  15.774 -0.4030  1.0376 -0.3101
 5110TIP3    H236746   2.324   4.499  15.646 -1.1828 -0.5907 -1.3218
 5111TIP3   OH236747   5.992   5.774  14.230  1.0230 -0.1395  0.4624
 5111TIP3    H136748   5.954   5.789  14.316 -1.3555 -0.4981 -0.4515
 5111TIP3    H236749   6.083   5.750  14.247  0.9478  1.0205  2.7635
 5112TIP3   OH236750   2.939   0.306  15.326 -0.0813  0.1051  0.1471
 5112TIP3    H136751   3.011   0.318  15.387  0.9259 -0.6027 -0.8416
 5112TIP3    H236752   2.982   0.292  15.241 -1.3950  0.0529 -0.5376
 5113TIP3   OH236753   5.769   2.728  16.751  0.0476  0.0084  0.0526
 5113TIP3    H136754   5.782   2.810  16.799  2.0890  0.8668 -1.7888
 5113TIP3    H236755   5.743   2.757  16.663  2.3737 -1.1842 -1.1155
 5114TIP3   OH236756   4.987   4.233   0.262  0.1183 -0.4401 -0.7695
 5114TIP3    H136757   4.963   4.180   0.338  1.3723  0.9246  0.6538
 5114TIP3    H236758   5.060   4.187   0.223  0.4553 -0.3708 -0.2293
 5115TIP3   OH236759   4.222   5.302  10.762 -0.0260 -0.1378 -0.8774
 5115TIP3    H136760   4.207   5.394  10.786 -0.4040 -0.6159  0.7974
 5115TIP3    H236761   4.253   5.306  10.671  3.4098  1.9322  0.1894
 5116TIP3   OH236762   0.185   5.318  13.968 -1.0012  0.3393  0.2084
 5116TIP3    H136763   0.240   5.364  13.904  0.3768 -2.1694 -0.5094
 5116TIP3    H236764   0.239   5.311  14.046 -1.1477 -0.1646  0.2701
 5117TIP3   OH236765   0.656   1.607  16.663  0.1173  0.4924 -0.4407
 5117TIP3    H136766   0.722   1.576  16.602 -2.5741  0.8564 -3.8713
 5117TIP3    H236767   0.597   1.532  16.674 -1.8678  1.7196 -2.0571
 5118TIP3   OH236768   2.434   3.653   0.733 -0.2723  0.5178  0.2556
 5118TIP3    H136769   2.468   3.587   0.672 -0.4018 -0.0313  0.7755
 5118TIP3    H236770   2.375   3.707   0.679  0.6310  0.8619 -0.4157
 5119TIP3   OH236771   5.178   2.549  12.060 -0.2811 -0.2755  0.3251
 5119TIP3    H136772   5.258   2.561  12.113  0.2379 -0.0037 -0.4971
 5119TIP3    H236773   5.196   2.470  12.008  0.2089  0.7610 -1.1514
 5120TIP3   OH236774   0.077   4.521  13.774  0.1180 -0.4135  0.8376
 5120TIP3    H136775   0.008   4.482  13.721  0.1904 -1.9806  1.8473
 5120TIP3    H236776   0.076   4.614  13.750 -2.1006 -0.4560  0.5623
 5121TIP3   OH236777   2.786   2.838   4.033  0.1748  0.3011 -0.3733
 5121TIP3    H136778   2.753   2.795   3.953  0.3118 -2.0873  0.7666
 5121TIP3    H236779   2.878   2.854   4.015  0.3276 -0.6898 -0.5345
 5122TIP3   OH236780   1.581   4.077  15.367 -0.7431  0.3757 -0.8226
 5122TIP3    H136781   1.599   4.034  15.284 -1.4830 -1.6870 -0.0010
 5122TIP3    H236782   1.485   4.087  15.368 -0.7566  0.2291 -0.1767
 5123TIP3   OH236783   0.944   1.842  15.546 -0.5984 -0.3027  0.7876
 5123TIP3    H136784   1.017   1.873  15.600 -1.4991 -0.2391  2.0259
 5123TIP3    H236785   0.869   1.844  15.605 -1.7965  0.4636 -0.6839
 5124TIP3   OH236786   5.443   2.891   6.174 -0.0971  0.0642 -0.0176
 5124TIP3    H136787   5.454   2.858   6.264  2.1440  0.3181 -0.1357
 5124TIP3    H236788   5.525   2.936   6.156 -1.3422  1.8639 -1.4731
 5125TIP3   OH236789   5.825   0.622   1.810 -0.3130  0.9978  0.2643
 5125TIP3    H136790   5.887   0.693   1.797  0.0175  0.8482  0.9650
 5125TIP3    H236791   5.740   0.661   1.792 -0.0035  1.1454 -0.9201
 5126TIP3   OH236792   2.819   0.715  11.391 -0.1056 -0.4409  0.3407
 5126TIP3    H136793   2.860   0.793  11.429 -1.0254  0.1753  0.1188
 5126TIP3    H236794   2.850   0.643  11.445  1.4529 -0.0515  0.0386
 5127TIP3   OH236795   0.969   2.810   2.475 -0.0954  0.3285  0.4652
 5127TIP3    H136796   0.916   2.868   2.420  0.3952 -0.5869 -1.0234
 5127TIP3    H236797   1.059   2.841   2.463 -0.1037  1.0746  1.9944
 5128TIP3   OH236798   2.143   6.031   4.345  0.2607  0.1260 -0.0864
 5128TIP3    H136799   2.072   5.969   4.363 -3.1097  2.7636 -3.0418
 5128TIP3    H236800   2.193   5.989   4.275  0.0855 -0.6710  0.2488
 5129TIP3   OH236801   2.486   2.262   5.675 -0.7524 -0.3341  0.6365
 5129TIP3    H136802   2.486   2.301   5.588  1.1014 -2.5102 -0.4505
 5129TIP3    H236803   2.547   2.315   5.726  1.6470 -1.5758 -0.7786
 5130TIP3   OH236804   3.743   1.689   4.289  0.2002 -0.2263 -0.9382
 5130TIP3    H136805   3.687   1.710   4.214 -1.0340  1.6568  0.4283
 5130TIP3    H236806   3.791   1.611   4.262 -1.1530 -0.3619 -3.1777
 5131TIP3   OH236807   6.092   1.961  15.173 -0.0657  0.5230  0.3044
 5131TIP3    H136808   6.034   1.952  15.097  1.4959 -1.1770 -0.7977
 5131TIP3    H236809   6.136   2.045  15.159 -2.2704  1.9068  1.2389
 5132TIP3   OH236810   5.234   1.739  12.415  0.4041  0.0648 -0.3617
 5132TIP3    H136811   5.271   1.665  12.365  0.9408 -0.3275  0.5897
 5132TIP3    H236812   5.140   1.729  12.406  0.4105 -1.5285  0.8189
 5133TIP3   OH236813   6.003   6.134  13.506  0.6276 -0.1755  0.2057
 5133TIP3    H136814   6.044   6.220  13.494 -1.2578  0.7138 -0.2905
 5133TIP3    H236815   6.037   6.102  13.590  3.3908 -0.1851 -0.8089
 5134TIP3   OH236816   0.272   6.452   2.017  0.3085  0.0638  1.5031
 5134TIP3    H136817   0.292   6.376   1.963  0.3607  0.5877  0.7651
 5134TIP3    H236818   0.355   6.499   2.025  0.2087  0.2132  1.6843
 5135TIP3   OH236819   1.614   0.528  11.538 -0.0726  0.6535  0.0336
 5135TIP3    H136820   1.593   0.475  11.615 -0.8066  1.6432  0.5357
 5135TIP3    H236821   1.664   0.602  11.572  0.0251  0.8444 -0.5059
 5136TIP3   OH236822   3.380   5.088   3.339  0.2940  0.5292  0.3617
 5136TIP3    H136823   3.374   5.072   3.245 -2.5664  0.5988  0.4295
 5136TIP3    H236824   3.393   5.001   3.378 -0.2085  0.2751 -0.0309
 5137TIP3   OH236825   3.550   6.011   6.598 -0.0956 -0.2422 -0.0544
 5137TIP3    H136826   3.547   6.048   6.686  0.8963 -1.6626  0.6352
 5137TIP3    H236827   3.642   5.990   6.585 -0.4932 -1.7296 -0.6723
 5138TIP3   OH236828   4.137   1.672  12.201  0.3675  0.3372  0.0114
 5138TIP3    H136829   4.187   1.746  12.235  0.9378  0.5265 -1.1937
 5138TIP3    H236830   4.199   1.624  12.146  0.2276 -1.4928  1.3532
 5139TIP3   OH236831   6.558   1.010   1.143 -0.1503  0.0407 -0.4875
 5139TIP3    H136832   6.580   1.091   1.190 -0.2632  0.4971 -1.2020
 5139TIP3    H236833   6.484   1.034   1.087 -0.1167 -0.5323 -0.7830
 5140TIP3   OH236834   6.129   5.473  15.407  0.1659 -0.9248 -0.0721
 5140TIP3    H136835   6.107   5.389  15.367  1.4769 -0.3876 -2.0801
 5140TIP3    H236836   6.225   5.477  15.403  0.1096  0.7609 -0.2401
 5141TIP3   OH236837   4.520   6.708   0.854 -0.4996  0.1799  0.7520
 5141TIP3    H136838   4.549   6.680   0.767  1.1138  0.9700  1.0076
 5141TIP3    H236839   4.474   6.632   0.889 -0.7329 -0.3257 -0.5814
 5142TIP3   OH236840   1.380   4.237  14.453  0.2247  0.1269 -0.3408
 5142TIP3    H136841   1.408   4.150  14.482 -1.1134 -0.7889 -1.6482
 5142TIP3    H236842   1.381   4.290  14.532 -1.5076 -1.7600  1.0485
 5143TIP3   OH236843   3.005   6.353   0.669  0.1438 -0.3049  0.2304
 5143TIP3    H136844   2.963   6.310   0.744  0.3862 -0.8054  0.0856
 5143TIP3    H236845   3.054   6.426   0.707  0.9313 -1.0428  0.6692
 5144TIP3   OH236846   0.970   5.401   6.002 -0.8173  0.3686 -0.4036
 5144TIP3    H136847   1.021   5.457   6.060  0.0379 -0.3741 -0.4067
 5144TIP3    H236848   0.880   5.413   6.030 -0.4140 -0.0641  1.1899
 5145TIP3   OH236849   2.530   2.805   4.430  0.4812 -0.6351  0.4806
 5145TIP3    H136850   2.509   2.856   4.508  0.3660  0.8726 -0.5066
 5145TIP3    H236851   2.610   2.844   4.396 -2.0095  2.1862 -2.9220
 5146TIP3   OH236852   1.143   2.108  13.568  0.0927 -0.2261  0.7645
 5146TIP3    H136853   1.214   2.128  13.629 -0.4698  0.7166  1.1326
 5146TIP3    H236854   1.079   2.178  13.581 -0.2734 -0.2753 -0.5578
 5147TIP3   OH236855   6.585   5.794   3.658  0.0514 -0.7930  0.4159
 5147TIP3    H136856   6.658   5.733   3.655 -0.1318 -0.9820 -0.4426
 5147TIP3    H236857   6.619   5.875   3.621 -0.3877 -1.1384 -0.8142
 5148TIP3   OH236858   5.397   0.465  15.150  0.3184 -0.2387  0.5715
 5148TIP3    H136859   5.360   0.433  15.232  0.0271 -0.1672  0.4694
 5148TIP3    H236860   5.492   0.456  15.161  0.2250 -2.0352  0.1674
 5149TIP3   OH236861   1.945   1.198   0.701  0.0441 -0.3901  0.4228
 5149TIP3    H136862   2.037   1.178   0.715  0.8015  2.8101  0.8049
 5149TIP3    H236863   1.937   1.210   0.606  0.0140 -0.7251  0.3836
 5150TIP3   OH236864   3.945   5.263  16.914 -0.3331  0.3376 -0.1495
 5150TIP3    H136865   3.854   5.264  16.941  0.2856  0.1180  2.1192
 5150TIP3    H236866   3.956   5.342  16.860 -1.7630  0.5122 -0.2108
 5151TIP3   OH236867   1.585   2.538  11.386  0.1741 -0.5287 -0.0109
 5151TIP3    H136868   1.555   2.488  11.309 -0.7944  0.3907 -0.2503
 5151TIP3    H236869   1.652   2.597  11.351  0.7538 -1.0957  0.1261
 5152TIP3   OH236870   3.963   5.394  13.686 -0.1172 -0.0512  0.2999
 5152TIP3    H136871   3.938   5.451  13.613 -2.1303  0.8679  1.6065
 5152TIP3    H236872   3.881   5.352  13.713  0.4632 -0.0204  2.2838
 5153TIP3   OH236873   1.412   0.609  10.886  0.6272 -0.0952  0.2573
 5153TIP3    H136874   1.410   0.682  10.948  0.5708 -0.8653  1.1912
 5153TIP3    H236875   1.392   0.532  10.940  0.8986 -0.8239 -0.6671
 5154TIP3   OH236876   2.479   2.379   3.611 -0.6450 -0.5352 -0.7900
 5154TIP3    H136877   2.518   2.409   3.529 -1.3432 -0.5786 -1.1425
 5154TIP3    H236878   2.554   2.360   3.667 -0.1527  1.2005 -0.7817
 5155TIP3   OH236879   4.003   0.993  14.717 -0.3412 -1.0002  0.0630
 5155TIP3    H136880   4.041   0.941  14.788 -0.7094 -0.0451  0.9825
 5155TIP3    H236881   4.057   0.971  14.641  1.0683 -0.8855  0.9793
 5156TIP3   OH236882   4.956   2.270  12.500 -0.0014  0.3789  0.2829
 5156TIP3    H136883   4.861   2.283  12.500 -0.0338  0.4208 -1.6398
 5156TIP3    H236884   4.991   2.359  12.499  0.0535  0.3602  0.5044
 5157TIP3   OH236885   2.162   0.769   5.630  0.1872 -0.8739  0.1749
 5157TIP3    H136886   2.151   0.862   5.610  1.3083 -0.7654  0.0178
 5157TIP3    H236887   2.154   0.765   5.725 -0.1544 -0.6650  0.1595
 5158TIP3   OH236888   0.391   3.028  16.724 -0.6101 -0.8868 -0.2346
 5158TIP3    H136889   0.314   2.992  16.680 -0.2746  0.2421 -1.8487
 5158TIP3    H236890   0.399   3.117  16.690  1.3447 -0.9401 -0.0526
 5159TIP3   OH236891   6.448   1.664   6.460 -0.6903  0.2291  0.0497
 5159TIP3    H136892   6.514   1.597   6.448 -0.1018  1.0923 -1.9362
 5159TIP3    H236893   6.368   1.616   6.482  0.0208 -1.0049 -0.0043
 5160TIP3   OH236894   0.304   5.991   1.107  0.1368  0.1549  0.1123
 5160TIP3    H136895   0.399   5.982   1.115  0.1172  0.0914  0.2727
 5160TIP3    H236896   0.286   6.081   1.134  0.2103  0.3392 -0.4363
 5161TIP3   OH236897   3.354   3.423  13.804  0.1975  0.2523 -0.3707
 5161TIP3    H136898   3.390   3.335  13.791  1.8549  0.4888  2.1322
 5161TIP3    H236899   3.260   3.411  13.791  0.4338 -1.7482 -0.6889
 5162TIP3   OH236900   0.139   1.351  15.273  0.3051  0.0020  0.2857
 5162TIP3    H136901   0.147   1.440  15.305  1.2272 -0.2885  0.9065
 5162TIP3    H236902   0.183   1.352  15.188 -1.0551  0.4859 -0.4340
 5163TIP3   OH236903   5.540   1.171  15.482 -0.0122 -0.7380 -0.0035
 5163TIP3    H136904   5.548   1.266  15.489 -0.5445 -0.8268  3.4051
 5163TIP3    H236905   5.453   1.158  15.442 -0.4386  0.2278  0.5652
 5164TIP3   OH236906   4.757   3.550   4.514 -0.7260 -0.3346  0.5039
 5164TIP3    H136907   4.703   3.629   4.520  0.6627  0.6516  0.7220
 5164TIP3    H236908   4.731   3.509   4.432  0.6764  2.0820 -1.2888
 5165TIP3   OH236909   2.197   0.966  17.116  0.3583 -0.6202 -0.6512
 5165TIP3    H136910   2.190   0.894  17.179  0.3316 -0.8415 -0.9090
 5165TIP3    H236911   2.229   0.925  17.035 -3.0021 -1.0017 -1.9229
 5166TIP3   OH236912   3.118   0.447   4.628 -0.0685  0.3181 -0.1949
 5166TIP3    H136913   3.140   0.540   4.619 -0.3944  0.6078  1.6143
 5166TIP3    H236914   3.175   0.415   4.698 -1.2597 -0.3580  0.5155
 5167TIP3   OH236915   6.577   2.923  16.638 -0.4976  0.7265  0.1881
 5167TIP3    H136916   6.518   2.961  16.703 -0.9928  0.7840 -0.2903
 5167TIP3    H236917   6.549   2.832  16.630  2.2105 -0.5630  3.1282
 5168TIP3   OH236918   0.174   6.044   4.656  0.5012  0.1831  0.0130
 5168TIP3    H136919   0.256   5.997   4.670  0.4788  0.8027  3.0185
 5168TIP3    H236920   0.195   6.135   4.675 -0.2732  0.8861 -2.1905
 5169TIP3   OH236921   6.452   2.312   5.017  0.4451 -0.0400  0.2386
 5169TIP3    H136922   6.486   2.400   5.004  0.5456 -0.2130 -0.7383
 5169TIP3    H236923   6.493   2.260   4.948  0.0071 -0.7450  0.5030
 5170TIP3   OH236924   2.635   6.345   3.888  0.7658 -0.4894  0.1888
 5170TIP3    H136925   2.639   6.418   3.950  0.7400  1.6778 -2.1748
 5170TIP3    H236926   2.726   6.315   3.881  0.8318 -0.4886  0.9566
 5171TIP3   OH236927   0.312   2.165  12.993  0.4231  0.0640  0.3625
 5171TIP3    H136928   0.313   2.231  13.062 -1.6352  0.4952  0.0509
 5171TIP3    H236929   0.330   2.213  12.912  0.7544 -0.0770  0.3516
 5172TIP3   OH236930   5.363   2.657  15.009 -0.0559 -0.1143 -0.1356
 5172TIP3    H136931   5.316   2.673  15.091 -1.7961 -2.3146 -0.6101
 5172TIP3    H236932   5.455   2.655  15.034 -0.5119 -0.1974  1.6683
 5173TIP3   OH236933   0.832   5.773  13.635  0.2414  0.4926 -0.2383
 5173TIP3    H136934   0.851   5.867  13.643 -0.3917  0.5803  0.3463
 5173TIP3    H236935   0.883   5.732  13.704  0.5910  0.3960 -0.5553
 5174TIP3   OH236936   5.103   6.507  11.091 -0.3262  0.7361  0.0781
 5174TIP3    H136937   5.106   6.521  11.185 -2.2055 -0.4472  0.3765
 5174TIP3    H236938   5.031   6.562  11.060  1.1421  2.1990 -0.9529
 5175TIP3   OH236939   3.879   6.774  11.530  0.3963 -0.5991  0.1967
 5175TIP3    H136940   3.907   6.838  11.596 -0.4680 -0.1954  0.1910
 5175TIP3    H236941   3.952   6.768  11.470  0.7215 -0.0474  0.5219
 5176TIP3   OH236942   1.272   5.995  15.063 -0.0042 -0.3712  0.4564
 5176TIP3    H136943   1.207   5.998  14.992 -1.4216  0.7998  1.7467
 5176TIP3    H236944   1.329   5.922  15.039 -0.7242 -0.3247 -1.6350
 5177TIP3   OH236945   2.608   6.315  13.005  0.1303 -0.1091  0.0124
 5177TIP3    H136946   2.541   6.254  12.977 -2.1213  0.7677  3.0225
 5177TIP3    H236947   2.613   6.379  12.933 -0.1770 -1.6640 -1.4725
 5178TIP3   OH236948   4.465   4.237   3.539 -0.3785  0.1010  0.5920
 5178TIP3    H136949   4.399   4.187   3.588 -0.3350  0.1092  0.6594
 5178TIP3    H236950   4.417   4.312   3.505 -0.6368 -0.4174 -0.2214
 5179TIP3   OH236951   1.181   0.401  12.113  0.1423  0.1892 -0.2708
 5179TIP3    H136952   1.243   0.473  12.102  0.8107 -0.6238 -2.3468
 5179TIP3    H236953   1.177   0.359  12.026 -0.4757 -2.0551  0.7565
 5180TIP3   OH236954   1.862   2.872   5.553 -0.7006 -0.0190  0.1164
 5180TIP3    H136955   1.883   2.954   5.507  1.7528 -0.4822  0.3122
 5180TIP3    H236956   1.779   2.891   5.597 -1.5126  1.4980 -1.8901
 5181TIP3   OH236957   1.955   6.015   1.266  0.4963  0.3975  0.4875
 5181TIP3    H136958   1.903   6.012   1.186  0.5080 -1.5406  0.4998
 5181TIP3    H236959   2.043   5.990   1.239  0.5016 -0.2649  1.0835
 5182TIP3   OH236960   1.671   2.128  16.216  0.1789 -0.4197 -0.2738
 5182TIP3    H136961   1.610   2.098  16.149 -0.5172  1.4587 -0.5472
 5182TIP3    H236962   1.756   2.130  16.171  0.3280 -2.2420 -0.1313
 5183TIP3   OH236963   4.844   6.279   0.257  0.2996 -0.0687 -0.5353
 5183TIP3    H136964   4.921   6.327   0.289  1.4493 -1.9830 -0.2913
 5183TIP3    H236965   4.796   6.256   0.337 -0.6375  1.2261 -0.6941
 5184TIP3   OH236966   4.322   5.411   2.766 -0.6391  0.2564  0.1890
 5184TIP3    H136967   4.344   5.504   2.763  0.5187  0.0415  1.3201
 5184TIP3    H236968   4.249   5.402   2.705 -0.7891  1.9077  0.0798
 5185TIP3   OH236969   6.351   4.980   2.122  0.1130 -0.5224 -0.0800
 5185TIP3    H136970   6.386   5.067   2.107 -0.6427 -0.5732 -2.5034
 5185TIP3    H236971   6.405   4.922   2.068 -0.6312 -1.2786 -0.0401
 5186TIP3   OH236972   0.147   0.067  15.363 -0.5094 -0.3291 -0.0568
 5186TIP3    H136973   0.107   0.116  15.435 -0.6743 -0.8095  0.1839
 5186TIP3    H236974   0.144   0.127  15.289 -2.8248 -0.7416 -0.3866
 5187TIP3   OH236975   5.211   3.279  16.772 -0.1106 -0.4189 -0.2972
 5187TIP3    H136976   5.299   3.248  16.793  0.6483  1.4202 -0.6344
 5187TIP3    H236977   5.223   3.341  16.700 -1.2567  2.2341  1.6433
 5188TIP3   OH236978   4.091   3.105  11.527 -0.0311 -0.3399  0.2440
 5188TIP3    H136979   4.174   3.057  11.519 -1.0725 -2.1380 -0.4839
 5188TIP3    H236980   4.060   3.084  11.615  0.3785  0.5335  0.6082
 5189TIP3   OH236981   3.569   1.948   0.028  0.3285  0.3022  0.3142
 5189TIP3    H136982   3.564   1.984   0.117 -1.5373 -0.4801  0.5556
 5189TIP3    H236983   3.509   1.874   0.029  1.1986 -0.4524 -1.2804
 5190TIP3   OH236984   3.719   3.298   1.652 -0.4566 -0.0107 -0.0601
 5190TIP3    H136985   3.655   3.245   1.604  0.5096 -2.3224  1.0719
 5190TIP3    H236986   3.705   3.276   1.744 -0.1460  1.9249  0.4977
 5191TIP3   OH236987   1.275   5.155   2.499  0.7758  0.2239 -0.2650
 5191TIP3    H136988   1.228   5.086   2.546 -0.3249  1.0514 -0.0962
 5191TIP3    H236989   1.225   5.166   2.418 -0.4719  2.3438  0.6984
 5192TIP3   OH236990   6.459   0.885  16.980 -0.3146  0.3242 -0.0191
 5192TIP3    H136991   6.390   0.951  16.974  0.2443  0.9944  0.8072
 5192TIP3    H236992   6.505   0.905  17.062  0.8745 -0.1097 -0.5649
 5193TIP3   OH236993   1.399   5.793   2.757 -0.7039  0.1289 -0.5379
 5193TIP3    H136994   1.437   5.868   2.711 -0.2252  1.0027  1.1941
 5193TIP3    H236995   1.364   5.829   2.838 -0.2757 -1.5271  0.4575
 5194TIP3   OH236996   3.142   5.807   2.297 -0.3588  0.5121  0.0846
 5194TIP3    H136997   3.231   5.786   2.270 -0.7453  0.1571 -0.9690
 5194TIP3    H236998   3.087   5.773   2.226 -1.4404 -0.6538  1.4423
 5195TIP3   OH236999   3.148   0.305  14.724  0.2537 -0.1859 -0.5324
 5195TIP3    H137000   3.187   0.273  14.643 -0.0859 -1.5542 -0.1816
 5195TIP3    H237001   3.200   0.265  14.794 -0.5651 -0.4755 -0.0761
 5196TIP3   OH237002   2.780   6.270  12.687  0.4674 -0.2663 -0.1444
 5196TIP3    H137003   2.703   6.215  12.703  0.3935 -0.8531 -2.2408
 5196TIP3    H237004   2.843   6.211  12.644  1.2954  0.7125 -0.3043
 5197TIP3   OH237005   0.087   2.843   3.556  0.5927  0.0872 -0.0012
 5197TIP3    H137006   0.062   2.825   3.646 -0.1159 -1.9601 -0.5400
 5197TIP3    H237007   0.028   2.913   3.528 -0.6953 -0.7451  0.5079
 5198TIP3   OH237008   3.178   3.255  16.912 -0.0950 -0.0484 -0.3477
 5198TIP3    H137009   3.193   3.191  16.843 -0.7153 -0.0683 -0.4744
 5198TIP3    H237010   3.105   3.308  16.880 -0.6784 -0.3373  0.4772
 5199TIP3   OH237011   5.739   3.286  12.484 -0.1884  0.0425 -0.0130
 5199TIP3    H137012   5.823   3.297  12.528 -0.0340 -0.4156 -0.1883
 5199TIP3    H237013   5.734   3.358  12.422 -0.7197  1.1134  1.2274
 5200TIP3   OH237014   3.341   0.802  16.335 -0.2323  0.3666 -0.5355
 5200TIP3    H137015   3.393   0.787  16.415  2.0537  0.6849 -1.8667
 5200TIP3    H237016   3.320   0.714  16.304 -1.3218  0.2386  0.4879
 5201TIP3   OH237017   4.372   2.643  16.366  0.5133  0.2309  0.4074
 5201TIP3    H137018   4.437   2.657  16.297  0.4767 -0.4431  0.2341
 5201TIP3    H237019   4.304   2.708  16.349  0.3365 -0.1539 -0.3917
 5202TIP3   OH237020   1.694   5.818  17.100 -0.4334 -0.3099  0.2972
 5202TIP3    H137021   1.683   5.786  17.189  3.0800 -0.0790  0.9754
 5202TIP3    H237022   1.607   5.813  17.061 -2.0666 -0.6111  3.6432
 5203TIP3   OH237023   6.529   4.529   0.969 -0.6209  0.2046 -0.3294
 5203TIP3    H137024   6.512   4.619   0.996 -0.2843  0.6678 -1.6193
 5203TIP3    H237025   6.624   4.518   0.979 -0.4398  0.4905 -1.5880
 5204TIP3   OH237026   0.549   5.440  13.103  0.1749  0.2726  0.2073
 5204TIP3    H137027   0.559   5.432  13.008  1.2347  1.4009  0.2011
 5204TIP3    H237028   0.566   5.352  13.136 -0.1663 -0.1231 -0.6323
 5205TIP3   OH237029   0.899   2.607   3.113 -0.0953 -0.0537 -0.2762
 5205TIP3    H137030   0.888   2.555   3.193 -0.5275 -1.1914 -1.0440
 5205TIP3    H237031   0.814   2.649   3.100  0.3067  1.0185  0.4392
 5206TIP3   OH237032   3.504   1.678  11.238 -0.1995 -0.3235 -0.0926
 5206TIP3    H137033   3.531   1.697  11.328 -0.3269 -0.9530  0.0832
 5206TIP3    H237034   3.579   1.631  11.200  0.6766  1.6792 -0.9537
 5207TIP3   OH237035   3.111   2.134   0.840  0.3081  0.0838  0.0045
 5207TIP3    H137036   3.144   2.221   0.862 -1.4182  1.0507 -0.9969
 5207TIP3    H237037   3.066   2.105   0.920  0.0763  0.5195  0.0349
 5208TIP3   OH237038   0.763   2.813  13.881 -0.1500  0.4330 -0.5402
 5208TIP3    H137039   0.826   2.808  13.953 -1.5197  0.1681  0.6951
 5208TIP3    H237040   0.749   2.722  13.856  0.6212  0.5488 -1.4437
 5209TIP3   OH237041   0.181   0.154  16.727 -0.3746  0.2619  0.0586
 5209TIP3    H137042   0.131   0.106  16.793 -1.1085 -1.0530 -1.3798
 5209TIP3    H237043   0.268   0.113  16.728  0.8816  2.6449  2.6624
 5210TIP3   OH237044   4.765   1.188   0.870  0.0450 -0.3967 -0.1343
 5210TIP3    H137045   4.840   1.237   0.837  0.4680 -1.0948 -0.2414
 5210TIP3    H237046   4.793   1.156   0.956  0.0537 -1.0486 -0.3702
 5211TIP3   OH237047   5.716   5.100   0.834 -0.1402  0.8859 -0.1451
 5211TIP3    H137048   5.662   5.054   0.770  0.0653 -0.0410  0.3171
 5211TIP3    H237049   5.695   5.057   0.917  0.3121  1.4151  0.2456
 5212TIP3   OH237050   2.699   1.191   1.478  0.3498  0.2080  0.5166
 5212TIP3    H137051   2.626   1.147   1.433  1.2355  0.5286 -1.3679
 5212TIP3    H237052   2.670   1.199   1.568 -1.7677 -0.0682 -0.0683
 5213TIP3   OH237053   4.974   4.999   1.797  0.0564 -0.2542 -0.1093
 5213TIP3    H137054   4.884   5.001   1.764  0.3414  0.8358 -0.8722
 5213TIP3    H237055   5.029   5.006   1.719  0.7942 -0.2526  0.3972
 5214TIP3   OH237056   1.594   4.381  13.444 -0.2787 -0.1008 -0.3081
 5214TIP3    H137057   1.565   4.290  13.444  0.2596 -0.2780 -0.2276
 5214TIP3    H237058   1.572   4.413  13.357  0.0357 -0.4748 -0.5290
 5215TIP3   OH237059   0.524   6.132   2.457 -0.4840  0.1285 -0.3762
 5215TIP3    H137060   0.556   6.123   2.367  2.1749 -0.5999  0.5667
 5215TIP3    H237061   0.530   6.226   2.475  0.7449  0.0685 -0.3895
 5216TIP3   OH237062   0.657   5.157  13.146 -0.3338  0.0287 -0.0016
 5216TIP3    H137063   0.745   5.134  13.177 -0.9301  0.0991  1.8905
 5216TIP3    H237064   0.629   5.081  13.095 -0.0973 -1.0941  1.4707
 5217TIP3   OH237065   6.406   5.059  13.774 -0.2504 -0.0113  0.2748
 5217TIP3    H137066   6.419   5.067  13.680  1.0159  0.8051  0.5049
 5217TIP3    H237067   6.382   5.147  13.803  0.2445 -0.0549  0.8429
 5218TIP3   OH237068   5.428   6.031  14.522  0.4198 -0.1595  0.1577
 5218TIP3    H137069   5.384   6.113  14.547  3.0764  0.9244  1.8318
 5218TIP3    H237070   5.505   6.060  14.473  0.7335 -1.7421 -0.3135
 5219TIP3   OH237071   4.779   2.366  12.217 -0.1044  0.1055 -0.4424
 5219TIP3    H137072   4.868   2.335  12.234 -0.1827 -0.0047 -0.2380
 5219TIP3    H237073   4.787   2.415  12.135  0.6556  2.2524  0.8485
 5220TIP3   OH237074   4.733   0.046   5.265  0.2925  0.5411  0.0715
 5220TIP3    H137075   4.651   0.067   5.309  0.6868  1.0023  0.6031
 5220TIP3    H237076   4.799   0.047   5.335  0.2402 -3.4868  0.3949
 5221TIP3   OH237077   5.761   4.127   5.959  0.3854 -0.1970  0.2732
 5221TIP3    H137078   5.805   4.098   6.039  0.7578  0.6662  0.3884
 5221TIP3    H237079   5.673   4.151   5.988  0.2632 -0.6407  0.2792
 5222TIP3   OH237080   4.619   0.197  16.577 -0.3735  0.0720  0.2826
 5222TIP3    H137081   4.542   0.211  16.522  0.0085  0.1756 -0.2384
 5222TIP3    H237082   4.673   0.275  16.562 -0.3897  0.2262  1.0212
 5223TIP3   OH237083   6.438   2.849  12.048 -0.4108 -0.0179 -0.3083
 5223TIP3    H137084   6.509   2.808  12.098 -2.1410 -2.9587 -0.0187
 5223TIP3    H237085   6.452   2.819  11.958 -1.4876 -1.0309 -0.1622
 5224TIP3   OH237086   5.227   3.482   4.630  0.1341  0.2013  0.5146
 5224TIP3    H137087   5.144   3.528   4.641 -1.7172 -2.5620 -0.6961
 5224TIP3    H237088   5.240   3.477   4.535  0.5469 -1.1889  0.6120
 5225TIP3   OH237089   3.982   6.365  12.060 -0.3789  0.1757 -0.1222
 5225TIP3    H137090   3.976   6.292  12.123 -0.0536  0.3398  0.1036
 5225TIP3    H237091   3.986   6.322  11.975 -1.4008 -0.0350 -0.0772
 5226TIP3   OH237092   3.754   2.415  11.916 -0.0857 -0.5830 -0.3126
 5226TIP3    H137093   3.772   2.503  11.883 -0.7251 -0.9473 -1.6803
 5226TIP3    H237094   3.717   2.368  11.842 -1.6774 -1.4235  0.9578
 5227TIP3   OH237095   1.955   4.508   2.502  0.3991 -0.6552 -0.0309
 5227TIP3    H137096   2.051   4.507   2.492  0.4681  0.5281  0.4138
 5227TIP3    H237097   1.939   4.464   2.586  0.6428  0.2735  0.5077
 5228TIP3   OH237098   4.432   4.299  14.706 -0.3614  0.1514  0.1925
 5228TIP3    H137099   4.487   4.233  14.748  0.5000  1.6576  1.5520
 5228TIP3    H237100   4.493   4.369  14.683 -1.2606  0.5192 -1.1769
 5229TIP3   OH237101   4.580   2.890  12.369 -0.1096 -0.1141 -0.1667
 5229TIP3    H137102   4.522   2.861  12.298 -0.3739  1.5171 -0.6637
 5229TIP3    H237103   4.546   2.976  12.393  1.3982  0.3636  0.3427
 5230TIP3   OH237104   2.720   3.775  16.232 -0.1287  0.0791  0.3986
 5230TIP3    H137105   2.702   3.717  16.307 -0.1814  1.0536  1.1610
 5230TIP3    H237106   2.637   3.778  16.184 -0.1883 -0.3019  0.4669
 5231TIP3   OH237107   2.345   6.101   3.197  0.0425 -0.7087  0.7060
 5231TIP3    H137108   2.387   6.136   3.118  0.2145 -0.8580  0.7293
 5231TIP3    H237109   2.333   6.177   3.253 -0.3220 -0.5606  0.4286
 5232TIP3   OH237110   1.080   4.614   2.156  0.1279  0.0712 -0.2641
 5232TIP3    H137111   0.995   4.571   2.170  0.0184  0.1409 -0.7114
 5232TIP3    H237112   1.084   4.631   2.062 -0.6545  2.7368  0.1054
 5233TIP3   OH237113   1.043   1.296  15.056  0.1177 -0.6207 -0.8847
 5233TIP3    H137114   1.070   1.221  15.003 -0.8872  0.1197 -2.5208
 5233TIP3    H237115   0.947   1.288  15.061  0.1774 -0.6157  0.7843
 5234TIP3   OH237116   4.140   5.262  14.376 -0.5280 -0.3673  0.5792
 5234TIP3    H137117   4.152   5.188  14.315 -0.3690  0.2824 -0.1919
 5234TIP3    H237118   4.210   5.322  14.354 -1.0317  0.3007  0.7807
 5235TIP3   OH237119   2.693   0.284  12.299 -0.1984  0.0242 -0.3646
 5235TIP3    H137120   2.766   0.222  12.303  0.3108  0.6827  1.9968
 5235TIP3    H237121   2.619   0.238  12.338 -0.6551 -0.0887 -1.3219
 5236TIP3   OH237122   6.386   1.734   2.072  0.0374 -0.4347 -0.1299
 5236TIP3    H137123   6.394   1.828   2.057 -2.8237 -0.2313 -0.9990
 5236TIP3    H237124   6.462   1.696   2.027  1.2658  1.4212  0.2819
 5237TIP3   OH237125   4.693   1.303   1.351 -0.2000 -0.6029 -0.7387
 5237TIP3    H137126   4.696   1.345   1.265  3.1074  0.5704 -0.1911
 5237TIP3    H237127   4.658   1.370   1.410  1.1847 -0.0071 -0.5635
 5238TIP3   OH237128   4.479   1.126  15.013 -0.1540  0.3912  0.1456
 5238TIP3    H137129   4.558   1.179  15.001 -1.1297  1.5638 -1.6627
 5238TIP3    H237130   4.510   1.036  15.004  1.0704  0.7981  0.0054
 5239TIP3   OH237131   2.463   1.412   1.026 -0.3589 -0.1755 -0.4909
 5239TIP3    H137132   2.515   1.388   0.949  1.5088 -0.9859  0.9499
 5239TIP3    H237133   2.379   1.367   1.013  0.0905 -0.6750 -1.8170
 5240TIP3   OH237134   4.649   1.490  11.424 -0.7838  0.5868 -0.2312
 5240TIP3    H137135   4.627   1.492  11.331  1.7940 -1.7939 -1.0708
 5240TIP3    H237136   4.740   1.457  11.425 -0.6471  0.7922  3.1156
 5241TIP3   OH237137   3.046   3.603   0.872 -0.0947  0.2270 -0.3767
 5241TIP3    H137138   3.111   3.665   0.839  0.1571  0.0142 -0.2899
 5241TIP3    H237139   3.089   3.562   0.947 -0.5201  0.4403 -0.0110
 5242TIP3   OH237140   1.352   0.969   5.521 -0.1194 -0.7905  0.4047
 5242TIP3    H137141   1.338   0.924   5.604 -1.1912 -1.4392 -0.1100
 5242TIP3    H237142   1.306   1.053   5.532 -1.4817 -1.4593 -0.0172
 5243TIP3   OH237143   0.913   6.288   5.669 -0.0115 -0.2411 -0.0429
 5243TIP3    H137144   0.929   6.343   5.746  1.7584  0.9588 -1.1901
 5243TIP3    H237145   0.925   6.199   5.701  1.8024  0.2809  0.8835
 5244TIP3   OH237146   0.119   3.521  12.986 -0.0443 -0.2321 -0.1087
 5244TIP3    H137147   0.208   3.516  12.949 -0.4947  1.4419 -1.5533
 5244TIP3    H237148   0.127   3.579  13.061 -0.1901  1.4924 -1.3617
 5245TIP3   OH237149   3.306   0.940   0.707  0.1865  0.4020 -0.1765
 5245TIP3    H137150   3.360   0.947   0.786  0.9557 -0.5069 -0.5987
 5245TIP3    H237151   3.329   0.855   0.670  0.4608  1.1593 -1.8273
 5246TIP3   OH237152   0.394   3.766  12.277 -0.2843 -0.4437 -0.0699
 5246TIP3    H137153   0.414   3.805  12.362  0.1941  2.7877 -1.5359
 5246TIP3    H237154   0.298   3.762  12.274 -0.2964 -1.3688  0.8894
 5247TIP3   OH237155   1.782   6.096  14.675 -0.7935 -0.2189  0.2493
 5247TIP3    H137156   1.791   6.182  14.716  1.1240 -0.2355 -0.0248
 5247TIP3    H237157   1.814   6.034  14.741  0.6536 -0.4051 -0.5817
 5248TIP3   OH237158   4.028   3.658  14.086 -0.1000 -0.2874  0.3243
 5248TIP3    H137159   4.104   3.661  14.029 -0.1278  0.6109  0.3120
 5248TIP3    H237160   3.964   3.605  14.039  1.0487 -2.4049  1.0348
 5249TIP3   OH237161   5.108   6.263  14.553  0.5748  0.3394 -0.0584
 5249TIP3    H137162   5.146   6.271  14.640 -0.0415 -1.1007  0.3661
 5249TIP3    H237163   5.057   6.344  14.542  0.6126  0.5087  0.9411
 5250TIP3   OH237164   2.733   6.651   5.973  0.0201  0.3993  0.2835
 5250TIP3    H137165   2.822   6.623   5.950  1.1190  0.0658  4.1965
 5250TIP3    H237166   2.744   6.702   6.053 -3.1780  2.1700 -0.2301
 5251TIP3   OH237167   2.668   5.192  15.077  0.2660  0.1678  0.3344
 5251TIP3    H137168   2.612   5.123  15.043  1.2443 -1.3046  1.5635
 5251TIP3    H237169   2.631   5.214  15.163  0.9842 -0.1511  0.7423
 5252TIP3   OH237170   3.013   1.623   5.118  0.0843  0.2060  0.2410
 5252TIP3    H137171   2.979   1.544   5.076  1.1849 -0.3397  0.3584
 5252TIP3    H237172   2.949   1.691   5.097 -1.5507 -0.9679  1.1765
 5253TIP3   OH237173   5.519   1.015   1.688  0.4199 -0.6785  0.1524
 5253TIP3    H137174   5.426   1.011   1.663  0.3732  0.3090  0.1332
 5253TIP3    H237175   5.544   1.106   1.673  1.6445 -1.1273 -0.6863
 5254TIP3   OH237176   0.065   1.116  11.879 -0.3251  0.0893  0.0346
 5254TIP3    H137177   0.053   1.040  11.823  2.9022 -0.0854 -0.5949
 5254TIP3    H237178   0.035   1.190  11.825  1.3020 -0.2354 -1.3984
 5255TIP3   OH237179   5.641   4.301   0.281 -0.0834  0.1990  0.0312
 5255TIP3    H137180   5.651   4.395   0.263 -0.3977  0.1345 -0.4852
 5255TIP3    H237181   5.596   4.266   0.204 -0.5419 -0.2638  0.5027
 5256TIP3   OH237182   5.594   2.019   4.532  0.0461 -0.0223  0.4315
 5256TIP3    H137183   5.675   2.068   4.530 -0.2087  0.3849 -0.8305
 5256TIP3    H237184   5.620   1.928   4.516  0.3778 -0.1296  1.4723
 5257TIP3   OH237185   5.814   2.029  16.786  0.5647 -0.0572 -0.3273
 5257TIP3    H137186   5.811   1.942  16.824 -0.3258  0.5720  1.1527
 5257TIP3    H237187   5.886   2.073  16.831 -0.9951  0.9493  1.3385
 5258TIP3   OH237188   0.615   5.588   1.330  0.1493 -0.2797  0.2597
 5258TIP3    H137189   0.706   5.559   1.330 -0.0536 -0.9497 -0.1588
 5258TIP3    H237190   0.609   5.649   1.256  0.7660  1.5054  1.6266
 5259TIP3   OH237191   4.112   2.644  16.075 -0.3044  0.7960  0.1786
 5259TIP3    H137192   4.099   2.714  16.139 -0.2920  0.2514  0.7792
 5259TIP3    H237193   4.107   2.563  16.125  1.1611  0.4039 -0.2500
 5260TIP3   OH237194   1.054   2.105  15.575  0.0609  0.1031  0.0631
 5260TIP3    H137195   1.025   2.078  15.663 -0.1863  0.6814  0.1636
 5260TIP3    H237196   0.996   2.057  15.516 -0.8457  0.9404  0.2559
 5261TIP3   OH237197   3.685   4.845   1.395  0.5333 -0.0094 -0.5730
 5261TIP3    H137198   3.723   4.780   1.455 -0.6025 -0.9540 -0.8439
 5261TIP3    H237199   3.606   4.874   1.439  0.7298  0.7672 -0.7283
 5262TIP3   OH237200   2.782   3.771   4.732  0.0454 -0.5574 -0.6904
 5262TIP3    H137201   2.692   3.747   4.753 -1.0736  2.7437 -1.1476
 5262TIP3    H237202   2.780   3.794   4.639  1.0991  0.4669 -0.4944
 5263TIP3   OH237203   0.832   4.860  11.231 -0.1006  0.1525  0.4216
 5263TIP3    H137204   0.782   4.909  11.166 -0.5478 -2.1498 -1.0976
 5263TIP3    H237205   0.910   4.830  11.184 -1.1116 -2.7637  0.4386
 5264TIP3   OH237206   5.051   4.628  15.333  0.0470 -0.5670 -0.1604
 5264TIP3    H137207   5.124   4.644  15.394  1.0774 -0.6116 -1.3487
 5264TIP3    H237208   5.021   4.715  15.309 -1.0501 -0.5400  1.1588
 5265TIP3   OH237209   4.192   4.916   5.808 -0.4539 -0.3293  0.0784
 5265TIP3    H137210   4.260   4.944   5.870 -0.4479 -1.0025  0.3895
 5265TIP3    H237211   4.224   4.832   5.775 -0.5940 -0.1070 -0.6362
 5266TIP3   OH237212   4.377   3.953  12.968  0.1742 -0.4288  0.0509
 5266TIP3    H137213   4.329   3.880  12.929  0.3049  0.4181 -1.7826
 5266TIP3    H237214   4.315   4.026  12.966  1.3136  0.5558 -1.9248
 5267TIP3   OH237215   1.591   2.867  12.450 -0.2857  0.0114 -0.5269
 5267TIP3    H137216   1.534   2.943  12.440  2.5265  2.1373 -1.6817
 5267TIP3    H237217   1.568   2.810  12.376 -1.3479  0.4709 -0.5716
 5268TIP3   OH237218   3.043   3.225  12.323 -0.1958  0.7961  0.1651
 5268TIP3    H137219   3.028   3.194  12.413 -1.0052 -1.2105 -0.6045
 5268TIP3    H237220   3.124   3.182  12.296 -1.0496 -0.3185 -0.7349
 5269TIP3   OH237221   0.387   0.200   5.189  0.2325 -0.6262 -0.0798
 5269TIP3    H137222   0.330   0.151   5.130 -0.4399 -0.5729  0.5154
 5269TIP3    H237223   0.357   0.290   5.183  0.9170 -0.4266 -0.5318
 5270TIP3   OH237224   2.528   3.687   4.724 -0.0173  0.4733  0.3554
 5270TIP3    H137225   2.471   3.629   4.776  0.5705 -0.5882 -0.1399
 5270TIP3    H237226   2.471   3.757   4.695 -1.7734 -1.8239 -2.2256
 5271TIP3   OH237227   6.543   2.235   0.149 -0.0730 -0.5791 -0.2528
 5271TIP3    H137228   6.454   2.250   0.180  0.4361 -1.5727  1.9254
 5271TIP3    H237229   6.563   2.311   0.094 -1.6171  0.6121  0.7462
 5272TIP3   OH237230   0.802   4.185  14.908  0.3351  0.1200  0.7934
 5272TIP3    H137231   0.715   4.207  14.940 -0.6525 -1.3215 -0.7472
 5272TIP3    H237232   0.846   4.269  14.897 -1.2017  0.9347  0.6822
 5273TIP3   OH237233   4.341   2.645   4.914  0.8332 -0.0859  0.1341
 5273TIP3    H137234   4.340   2.648   4.818  0.9856  0.2218  0.1413
 5273TIP3    H237235   4.285   2.717   4.942  0.9878 -0.0195  0.2776
 5274TIP3   OH237236   5.818   1.652   2.980  0.2306  0.2276  0.8323
 5274TIP3    H137237   5.898   1.702   2.998  0.8964 -0.3227 -0.4921
 5274TIP3    H237238   5.749   1.701   3.026  1.0868  1.5503  0.7716
 5275TIP3   OH237239   1.297   2.457   4.427 -0.8560 -0.1509  0.2565
 5275TIP3    H137240   1.227   2.489   4.371 -0.8129 -1.7132 -0.7543
 5275TIP3    H237241   1.282   2.363   4.433  0.7361 -0.4219  0.5813
 5276TIP3   OH237242   5.813   6.012   6.271  0.0174  0.0516  0.4507
 5276TIP3    H137243   5.735   6.065   6.256 -0.4545 -1.1284 -1.8032
 5276TIP3    H237244   5.779   5.926   6.297  0.3333 -1.0066 -2.2310
 5277TIP3   OH237245   0.008   6.396   4.061  0.5841 -0.3098 -0.2015
 5277TIP3    H137246  -0.068   6.436   4.104  1.0946 -0.7384  1.1720
 5277TIP3    H237247  -0.029   6.326   4.007  0.0270 -1.1710  1.2175
 5278TIP3   OH237248   4.620   6.101   4.962 -0.0428  0.6184  0.2988
 5278TIP3    H137249   4.681   6.040   5.004  1.5605  0.8712 -1.4698
 5278TIP3    H237250   4.584   6.051   4.888 -2.8391  0.1536  1.8476
 5279TIP3   OH237251   4.339   3.955  14.513 -0.3362  0.4267 -0.1315
 5279TIP3    H137252   4.310   3.864  14.513 -0.7760  0.5541 -0.7970
 5279TIP3    H237253   4.308   3.989  14.428  0.0207  1.1259  0.0162
 5280TIP3   OH237254   0.359   4.086   3.844 -1.0698  0.2286  0.6187
 5280TIP3    H137255   0.318   4.074   3.929 -0.1766 -0.5194  0.9636
 5280TIP3    H237256   0.420   4.012   3.836 -0.3306  0.8977 -0.1840
 5281TIP3   OH237257   0.872   4.862  14.469  0.1243  0.1789  0.1551
 5281TIP3    H137258   0.799   4.861  14.406  0.6720 -1.7082 -0.5069
 5281TIP3    H237259   0.947   4.832  14.419  0.9687  0.3324  1.2985
 5282TIP3   OH237260   4.794   0.437  16.132 -0.6849 -0.0816  0.5847
 5282TIP3    H137261   4.748   0.512  16.094  0.5353  1.4667  2.0295
 5282TIP3    H237262   4.724   0.375  16.153 -1.8841  1.1889  0.5144
 5283TIP3   OH237263   5.100   3.641  11.918  0.3860  0.0602 -0.6460
 5283TIP3    H137264   5.053   3.651  12.001 -1.6203  2.6731 -1.9306
 5283TIP3    H237265   5.034   3.662  11.851  2.3604 -0.2901 -2.8002
 5284TIP3   OH237266   6.758   5.416   4.554 -0.7404  0.4607  0.6280
 5284TIP3    H137267   6.803   5.391   4.635 -0.5969 -0.0323  0.3962
 5284TIP3    H237268   6.699   5.343   4.536  1.3371 -0.8625 -1.3114
 5285TIP3   OH237269   6.630   4.720  15.146 -0.4918  0.2927  0.3349
 5285TIP3    H137270   6.621   4.788  15.212  0.0593  0.5320  0.1732
 5285TIP3    H237271   6.667   4.765  15.069  1.3390 -0.4341  0.7171
 5286TIP3   OH237272   2.855   5.628  12.544  0.0652 -0.0702 -0.6995
 5286TIP3    H137273   2.850   5.715  12.583  1.7564 -0.5686  0.7745
 5286TIP3    H237274   2.832   5.641  12.452 -3.7174  1.2445  0.2263
 5287TIP3   OH237275   6.025   5.274   5.480 -0.0624 -0.3577  0.6244
 5287TIP3    H137276   5.961   5.314   5.540  0.6837 -0.2127  1.3470
 5287TIP3    H237277   5.984   5.192   5.452 -0.3701 -0.5027  1.4610
 5288TIP3   OH237278   0.833   6.671   3.326 -0.3085  0.1632  0.5290
 5288TIP3    H137279   0.866   6.685   3.415  0.9407 -0.1888  0.1402
 5288TIP3    H237280   0.910   6.645   3.276 -0.8470  1.1188 -0.8422
 5289TIP3   OH237281   2.816   1.492   0.025 -0.0938 -0.1141  0.0646
 5289TIP3    H137282   2.868   1.466  -0.051  0.3441 -0.3788  0.4469
 5289TIP3    H237283   2.755   1.420   0.039  0.7986 -0.7531  0.8329
 5290TIP3   OH237284   2.870   1.690   0.207 -0.2744 -0.3843  0.4329
 5290TIP3    H137285   2.871   1.660   0.298 -3.2084 -1.2880  0.2842
 5290TIP3    H237286   2.841   1.613   0.158  0.6308  0.2843 -1.2151
 5291TIP3   OH237287   0.388   1.110   4.294  0.0449 -0.4526  0.2881
 5291TIP3    H137288   0.419   1.020   4.283 -1.1354 -0.7534 -1.0060
 5291TIP3    H237289   0.457   1.154   4.343  2.0852 -1.2676 -1.6866
 5292TIP3   OH237290   6.183   1.648  13.243 -0.1703  0.1522  0.3257
 5292TIP3    H137291   6.096   1.649  13.283 -0.0357  0.1942  0.6192
 5292TIP3    H237292   6.199   1.740  13.221 -0.0000  0.2183  0.7133
 5293TIP3   OH237293   5.912   3.534   0.272 -0.7877 -0.3508 -0.2282
 5293TIP3    H137294   5.936   3.486   0.192 -1.5647 -0.6854 -0.2645
 5293TIP3    H237295   5.964   3.614   0.268  1.5461 -1.7182  0.4739
 5294TIP3   OH237296   4.109   2.594   0.964  0.3515  0.1193  0.0796
 5294TIP3    H137297   4.174   2.639   1.017  0.4492 -0.5068  0.5023
 5294TIP3    H237298   4.098   2.650   0.887  0.5610  0.7942  0.5287
 5295TIP3   OH237299   0.776   5.924  15.754 -0.1030 -0.1938  0.3726
 5295TIP3    H137300   0.849   5.986  15.757 -0.5190  0.3252 -0.0244
 5295TIP3    H237301   0.787   5.878  15.671 -0.0717 -0.3162  0.4430
 5296TIP3   OH237302   4.868   6.421   2.882 -0.8266 -0.1166  0.3705
 5296TIP3    H137303   4.919   6.416   2.963 -0.8124  0.8093  0.4369
 5296TIP3    H237304   4.902   6.499   2.838 -0.5313 -0.8577 -0.7461
 5297TIP3   OH237305   3.127   0.154   4.692  0.0986 -0.0553  0.1387
 5297TIP3    H137306   3.081   0.149   4.776  1.1142  0.7165  0.7608
 5297TIP3    H237307   3.216   0.182   4.715  1.3191 -2.7807 -0.8935
 5298TIP3   OH237308   5.489   0.280  14.065  0.4744  0.2364  0.0267
 5298TIP3    H137309   5.408   0.320  14.097  0.6905  0.3931  0.3861
 5298TIP3    H237310   5.553   0.351  14.069  0.5193  0.2492 -0.7137
 5299TIP3   OH237311   2.067   2.544   5.230  0.2232 -0.0786 -0.1367
 5299TIP3    H137312   2.041   2.603   5.160  1.9731 -0.1646 -0.9095
 5299TIP3    H237313   2.138   2.493   5.193 -0.7213 -2.1717  0.7645
 5300TIP3   OH237314   2.391   4.925   3.921 -0.1066 -0.2579 -0.5689
 5300TIP3    H137315   2.317   4.979   3.949  1.5912  1.6982  0.3627
 5300TIP3    H237316   2.429   4.891   4.003  1.3476  0.6180 -0.8463
 5301TIP3   OH237317   2.621   2.203   1.574  0.4331  0.1542 -0.4527
 5301TIP3    H137318   2.631   2.294   1.546  1.2768  0.8143  1.7437
 5301TIP3    H237319   2.539   2.201   1.624  0.2870 -0.3534 -0.7037
 5302TIP3   OH237320   1.211   6.004  15.522 -0.2428 -0.2498  0.5702
 5302TIP3    H137321   1.244   6.055  15.596  1.2902  0.3437 -0.4720
 5302TIP3    H237322   1.188   6.070  15.456  2.5361 -0.7903 -1.1214
 5303TIP3   OH237323   4.611   1.688   3.651  0.0518  0.0669 -0.0608
 5303TIP3    H137324   4.676   1.711   3.717  0.0242 -0.5471  0.1846
 5303TIP3    H237325   4.605   1.765   3.595  0.0687  0.6024  0.6647
 5304TIP3   OH237326   1.472   0.618  16.905  0.1626 -0.1984 -0.4227
 5304TIP3    H137327   1.550   0.590  16.954  0.3558  0.6374 -0.2384
 5304TIP3    H237328   1.458   0.709  16.932 -1.1482 -0.4730 -0.1069
 5305TIP3   OH237329   5.066   4.349  15.187 -0.0981 -0.2177 -0.1597
 5305TIP3    H137330   5.060   4.387  15.274 -0.4974 -0.1252 -0.2247
 5305TIP3    H237331   5.122   4.410  15.138  0.3073 -0.3878  0.0934
 5306TIP3   OH237332   1.701   0.543  17.048  0.2998 -0.1295 -0.3496
 5306TIP3    H137333   1.661   0.537  17.135  0.4206  0.2420 -0.2652
 5306TIP3    H237334   1.793   0.520  17.061  0.9634  2.4534  0.1273
 5307TIP3   OH237335   3.859   2.896   4.085  0.0579  0.1543 -0.1990
 5307TIP3    H137336   3.901   2.826   4.136 -0.1876  0.1733  0.0347
 5307TIP3    H237337   3.882   2.976   4.132 -1.6070  0.0403  0.9305
 5308TIP3   OH237338   1.507   3.164   4.920  0.2192 -0.3466 -0.2224
 5308TIP3    H137339   1.482   3.073   4.908 -2.8926  0.1639  1.2953
 5308TIP3    H237340   1.473   3.187   5.006 -1.5670  2.9449 -1.6393
 5309TIP3   OH237341   2.596   2.180  15.619 -0.2022  0.5285 -0.4537
 5309TIP3    H137342   2.611   2.230  15.538  1.3481 -0.4330 -0.8108
 5309TIP3    H237343   2.577   2.091  15.590  0.7910  0.0715  0.2230
 5310TIP3   OH237344   1.665   4.722  11.587  0.0265  0.6140  0.1055
 5310TIP3    H137345   1.757   4.698  11.582  0.3269  1.0406  2.5016
 5310TIP3    H237346   1.618   4.639  11.580  0.6494  0.2624  0.0243
 5311TIP3   OH237347   2.496   0.142   4.493  0.2269  0.3016 -0.3044
 5311TIP3    H137348   2.569   0.108   4.441  1.2367  1.4818  0.2907
 5311TIP3    H237349   2.477   0.227   4.455  0.3645  0.7809  0.6824
 5312TIP3   OH237350   1.508   3.898  16.507 -0.5829  0.2242  0.4167
 5312TIP3    H137351   1.501   3.852  16.424  1.1641 -0.9551  0.8638
 5312TIP3    H237352   1.537   3.987  16.484 -0.9339  0.1631 -0.2640
 5313TIP3   OH237353   5.841   0.285  11.134  0.5107 -0.3736  0.0340
 5313TIP3    H137354   5.926   0.284  11.091  0.4272  0.0970 -0.1462
 5313TIP3    H237355   5.785   0.338  11.077 -0.0165 -1.0214 -0.0599
 5314TIP3   OH237356   0.114   0.994  10.817 -0.2179 -0.5636 -0.0411
 5314TIP3    H137357   0.123   1.035  10.731 -1.4262 -0.4996 -0.1514
 5314TIP3    H237358   0.038   1.036  10.856 -0.2449 -1.2559  0.6792
 5315TIP3   OH237359   2.930   0.063   0.292 -0.0304 -0.4648  0.0302
 5315TIP3    H137360   2.931   0.110   0.209 -0.5395 -2.4337 -1.1354
 5315TIP3    H237361   2.909  -0.027   0.269 -2.4280 -0.6752  2.5014
 5316TIP3   OH237362   2.458   2.417  10.769 -0.2471 -0.7688  0.2538
 5316TIP3    H137363   2.392   2.482  10.791  0.4105 -0.0042 -0.0067
 5316TIP3    H237364   2.531   2.435  10.828  0.4768 -0.3871 -0.7306
 5317TIP3   OH237365   1.131   6.364  14.527 -0.4512  0.7776 -0.4540
 5317TIP3    H137366   1.104   6.342  14.616 -0.8583  0.9027 -0.5468
 5317TIP3    H237367   1.193   6.295  14.503 -2.8579 -1.2376 -1.3195
 5318TIP3   OH237368   2.391   5.067   4.559  0.0764 -0.2399 -0.6497
 5318TIP3    H137369   2.411   5.145   4.506  0.0882 -0.7817 -1.4671
 5318TIP3    H237370   2.471   5.015   4.555  0.5332  0.2639  0.9560
 5319TIP3   OH237371   4.925   4.222  11.180 -0.0571 -0.4213  0.4597
 5319TIP3    H137372   4.849   4.272  11.151  1.0190  0.3306 -1.2574
 5319TIP3    H237373   4.994   4.246  11.118  1.5138 -1.2622  1.8031
 5320TIP3   OH237374   1.535   5.147   1.182  0.1215  0.8455  0.3075
 5320TIP3    H137375   1.604   5.110   1.237 -0.8508  0.0119  0.9978
 5320TIP3    H237376   1.547   5.105   1.097 -0.9970 -1.1707  1.0919
 5321TIP3   OH237377   3.599   0.915  12.459  0.3688  0.3261 -0.2990
 5321TIP3    H137378   3.639   1.002  12.453  1.6531 -0.1805  0.3353
 5321TIP3    H237379   3.645   0.874  12.533 -1.2071 -0.3891  0.3096
 5322TIP3   OH237380   1.067   5.281   4.829 -0.1174  0.6241 -0.4624
 5322TIP3    H137381   0.979   5.252   4.805  0.0642 -2.4660  1.9090
 5322TIP3    H237382   1.055   5.322   4.915  0.8545 -1.4645  0.7511
 5323TIP3   OH237383   5.901   1.304  10.496  0.0052 -0.3842  0.0940
 5323TIP3    H137384   5.891   1.209  10.494  0.1132 -0.3835 -1.2668
 5323TIP3    H237385   5.988   1.318  10.534  0.0498 -0.8394  0.1604
 5324TIP3   OH237386   6.787   4.769  16.575  0.2695 -0.6192  0.4737
 5324TIP3    H137387   6.826   4.819  16.647  0.6936 -1.1334  0.6146
 5324TIP3    H237388   6.859   4.756  16.513  0.1629 -1.0219  0.4293
 5325TIP3   OH237389   2.680   0.864   4.049  0.1071 -0.0416 -0.5758
 5325TIP3    H137390   2.750   0.929   4.060  0.1479 -0.0967 -0.5082
 5325TIP3    H237391   2.599   0.912   4.068  0.3021 -0.6293  2.1667
 5326TIP3   OH237392   0.278   1.565   2.964  0.9376 -0.0210 -0.6988
 5326TIP3    H137393   0.193   1.524   2.952  1.9473 -1.8968 -2.0160
 5326TIP3    H237394   0.306   1.537   3.052 -0.0431  1.1287 -0.0036
 5327TIP3   OH237395   4.395   5.660   2.426 -0.0247 -0.1629 -0.4452
 5327TIP3    H137396   4.417   5.570   2.401  0.7113 -0.2156  0.3447
 5327TIP3    H237397   4.480   5.701   2.442 -0.4048 -0.2274  2.2362
 5328TIP3   OH237398   2.309   2.682  13.985  0.4081  0.5707  0.6055
 5328TIP3    H137399   2.385   2.655  14.038 -1.4940  1.3373  4.0293
 5328TIP3    H237400   2.326   2.773  13.963  0.8832  0.4630  0.5043
 5329TIP3   OH237401   5.479   4.015  11.528  0.1843 -0.2141  0.0104
 5329TIP3    H137402   5.564   3.971  11.523  1.0574  1.1964  1.5108
 5329TIP3    H237403   5.443   3.987  11.612 -0.3147  0.1027 -0.0945
 5330TIP3   OH237404   4.017   3.247   5.641  0.3473 -0.6221 -0.1127
 5330TIP3    H137405   4.070   3.168   5.640  0.1915 -0.7259 -0.8687
 5330TIP3    H237406   3.949   3.231   5.576  1.2977  0.7755 -1.5346
 5331TIP3   OH237407   3.541   2.763  12.147 -0.0371 -0.2518 -0.2237
 5331TIP3    H137408   3.565   2.760  12.054 -1.3242  0.5140 -0.6265
 5331TIP3    H237409   3.614   2.723  12.193  0.8341 -0.2373 -1.5379
 5332TIP3   OH237410   2.101   3.924  12.320  0.2737 -0.4092  0.0817
 5332TIP3    H137411   2.114   3.980  12.243 -1.1586  0.6082  0.5409
 5332TIP3    H237412   2.130   3.838  12.292 -2.8606 -0.7852 -2.6261
 5333TIP3   OH237413   1.915   2.365  14.897  0.0443 -0.2488  0.8746
 5333TIP3    H137414   1.907   2.461  14.896  2.2774  0.0115 -0.2449
 5333TIP3    H237415   1.853   2.335  14.832  0.5662  0.6287 -0.0686
 5334TIP3   OH237416   5.837   4.089   1.505 -0.0358 -0.2190 -0.0274
 5334TIP3    H137417   5.790   4.012   1.537 -0.8017  0.1850 -0.1454
 5334TIP3    H237418   5.769   4.155   1.492  0.6904  0.7685  0.9132
 5335TIP3   OH237419   5.811   3.735   1.596 -0.2281  0.1046 -0.0069
 5335TIP3    H137420   5.818   3.778   1.681 -2.2468 -1.4145  1.0256
 5335TIP3    H237421   5.747   3.787   1.548  1.3364  1.2955 -0.8716
 5336TIP3   OH237422   0.823   3.474  15.587 -0.5695  0.4566 -0.5786
 5336TIP3    H137423   0.767   3.399  15.608  1.1983 -0.9081 -0.5768
 5336TIP3    H237424   0.888   3.475  15.657  1.4193 -0.0680 -2.3396
 5337TIP3   OH237425   5.012   5.283  12.150  0.2368  0.3630  0.2961
 5337TIP3    H137426   5.048   5.254  12.067 -1.9442  0.8808 -0.9168
 5337TIP3    H237427   4.928   5.323  12.127  0.2796  1.9694  2.5817
 5338TIP3   OH237428   3.604   4.290   1.166  0.0916 -0.1553 -0.8032
 5338TIP3    H137429   3.512   4.309   1.183  0.7004  2.7483 -0.2237
 5338TIP3    H237430   3.607   4.271   1.072 -1.2711 -1.9148 -0.5394
 5339TIP3   OH237431   5.624   1.590  12.156  0.4295  0.3379 -0.2114
 5339TIP3    H137432   5.568   1.658  12.117  0.0395 -0.9661 -2.0254
 5339TIP3    H237433   5.658   1.541  12.082 -2.1482 -3.7492  1.0054
 5340TIP3   OH237434   2.140   5.689   6.798  0.3100  0.2291 -0.0822
 5340TIP3    H137435   2.095   5.695   6.883 -0.8014 -0.3711 -0.6197
 5340TIP3    H237436   2.070   5.693   6.733  1.0907 -0.0590 -0.9590
 5341TIP3   OH237437   6.693   5.776  15.783 -0.0208 -0.3027  0.3010
 5341TIP3    H137438   6.784   5.792  15.808 -0.0248  1.1032 -0.4449
 5341TIP3    H237439   6.642   5.814  15.854 -0.0091  0.6212 -0.1607
 5342TIP3   OH237440   4.160   3.083  13.637  0.2967  0.7918  0.0177
 5342TIP3    H137441   4.142   3.007  13.583 -0.5027  0.8968  0.1236
 5342TIP3    H237442   4.164   3.156  13.575 -1.7129  1.0866  0.1719
 5343TIP3   OH237443   2.233   4.253   3.297 -0.2928  0.5349 -0.0615
 5343TIP3    H137444   2.280   4.268   3.215  0.4956 -2.1884 -0.2020
 5343TIP3    H237445   2.271   4.315   3.359  1.7629  0.0958 -0.8325
 5344TIP3   OH237446   1.124   6.257   3.062 -0.2508 -0.3338  0.1216
 5344TIP3    H137447   1.206   6.210   3.046 -1.3481 -2.7649  1.1402
 5344TIP3    H237448   1.075   6.248   2.980  0.1647  0.4237 -0.2159
 5345TIP3   OH237449   3.429   4.603   2.177  0.1927  0.1947 -0.3121
 5345TIP3    H137450   3.394   4.632   2.092  0.2416 -0.6703 -0.6384
 5345TIP3    H237451   3.383   4.521   2.194  1.0285 -0.2202 -0.0472
 5346TIP3   OH237452   6.366   5.363  11.181  0.2370  0.0902 -0.1512
 5346TIP3    H137453   6.453   5.399  11.161  0.3414 -0.2398 -0.2977
 5346TIP3    H237454   6.369   5.342  11.274 -0.0141  0.9799  0.0666
 5347TIP3   OH237455   2.584   0.613   6.182 -0.1086  0.1539  0.3575
 5347TIP3    H137456   2.494   0.582   6.196  0.1449 -1.0064 -0.4532
 5347TIP3    H237457   2.609   0.652   6.266 -0.6327 -1.4146  1.2911
 5348TIP3   OH237458   1.156   4.986   5.985 -0.2961 -0.0552 -0.3392
 5348TIP3    H137459   1.147   5.013   5.894 -1.4364 -0.6798 -0.4339
 5348TIP3    H237460   1.097   5.044   6.034 -0.0560 -0.0377 -0.0653
 5349TIP3   OH237461   0.468   0.036  11.781  0.1533  0.0890 -0.1416
 5349TIP3    H137462   0.471  -0.057  11.761  0.0821 -0.2383  1.2544
 5349TIP3    H237463   0.394   0.069  11.730 -0.4927 -0.8403  0.1659
 5350TIP3   OH237464   3.788   1.408   2.542 -0.9663  0.1725 -0.0529
 5350TIP3    H137465   3.827   1.479   2.594  0.7186 -0.0825 -0.8876
 5350TIP3    H237466   3.830   1.328   2.576 -2.3713 -0.3904  0.4496
 5351TIP3   OH237467   3.303   3.404   5.462 -0.0588 -0.4776 -0.0953
 5351TIP3    H137468   3.308   3.419   5.556 -0.5017 -0.2103 -0.1143
 5351TIP3    H237469   3.226   3.350   5.450 -0.8472  0.6861 -0.4422
 5352TIP3   OH237470   0.436   3.676   1.327  0.0002  0.0480  0.4265
 5352TIP3    H137471   0.345   3.704   1.330 -0.0156  0.2174 -1.1107
 5352TIP3    H237472   0.460   3.663   1.419 -1.9504 -1.2497  0.8047
 5353TIP3   OH237473   6.229   5.230   3.640 -0.6516  0.3703  0.2128
 5353TIP3    H137474   6.180   5.223   3.722  0.3389 -1.8479  0.6897
 5353TIP3    H237475   6.186   5.300   3.592 -2.1002  0.8162  2.0613
 5354TIP3   OH237476   4.912   6.297  12.746 -0.3115 -0.0179 -0.0007
 5354TIP3    H137477   5.002   6.303  12.713 -0.4672  2.0546 -0.1823
 5354TIP3    H237478   4.915   6.227  12.812  1.0118 -1.1686 -1.2217
 5355TIP3   OH237479   6.161   1.418   0.894  0.1026  0.6716 -0.1525
 5355TIP3    H137480   6.105   1.494   0.882  0.8463  1.9054  3.0474
 5355TIP3    H237481   6.104   1.353   0.935 -0.4247 -0.4552 -2.5031
 5356TIP3   OH237482   5.474   0.552  12.223  0.0963 -0.2528 -0.5669
 5356TIP3    H137483   5.565   0.543  12.251  0.2802  1.3953 -0.5755
 5356TIP3    H237484   5.424   0.516  12.296  0.7316 -0.5536 -0.2663
 5357TIP3   OH237485   1.024   1.698  14.024 -0.3093 -0.5738  0.2416
 5357TIP3    H137486   1.100   1.650  14.057  0.4398  0.1720 -0.3350
 5357TIP3    H237487   0.997   1.650  13.946  0.6619  0.1117 -0.5410
 5358TIP3   OH237488   2.350   2.229  13.259 -0.3829 -1.0321 -0.0737
 5358TIP3    H137489   2.264   2.252  13.224 -0.2704  0.3778  0.5073
 5358TIP3    H237490   2.332   2.184  13.341 -0.6112  1.7865  1.5466
 5359TIP3   OH237491   1.582   0.311  16.861  0.2858  0.3686 -0.3282
 5359TIP3    H137492   1.656   0.327  16.802  0.1333  0.0686 -0.6014
 5359TIP3    H237493   1.615   0.334  16.948  1.0559 -0.8121 -0.2855
 5360TIP3   OH237494   6.335   2.310   3.472  0.6109  0.2413 -0.2244
 5360TIP3    H137495   6.315   2.398   3.502 -0.0990 -0.3831  1.2717
 5360TIP3    H237496   6.351   2.319   3.378 -1.9120  1.5822 -0.6059
 5361TIP3   OH237497   6.482   0.107   1.371  0.6519 -0.2500 -0.3359
 5361TIP3    H137498   6.502   0.199   1.386  1.3331 -0.5040  0.3457
 5361TIP3    H237499   6.456   0.074   1.457  0.3802 -0.6931 -0.5848
 5362TIP3   OH237500   5.085   2.330   0.559  0.4376  0.2449 -0.0755
 5362TIP3    H137501   5.180   2.327   0.570  0.4063 -3.6025  0.4656
 5362TIP3    H237502   5.057   2.238   0.564 -3.2826  1.1753 -0.6866
 5363TIP3   OH237503   3.533   3.377  12.832 -0.1337  0.6985  0.5211
 5363TIP3    H137504   3.464   3.410  12.890 -1.2994 -0.2896 -0.2473
 5363TIP3    H237505   3.491   3.371  12.746  0.1447 -2.1369  0.4691
 5364TIP3   OH237506   2.921   1.912  14.185 -0.1817  0.0556  0.4781
 5364TIP3    H137507   2.881   1.869  14.110 -0.1397  1.6320 -0.5083
 5364TIP3    H237508   2.847   1.934  14.242 -0.7552  2.1990 -0.9376
 5365TIP3   OH237509   1.108   6.306   3.322 -0.1261  0.1225 -0.0703
 5365TIP3    H137510   1.196   6.312   3.361 -0.9169 -2.2429  2.3870
 5365TIP3    H237511   1.124   6.284   3.231  1.9298 -2.6310  0.8354
 5366TIP3   OH237512   3.574   6.683  11.535  0.0543 -0.0127  0.7776
 5366TIP3    H137513   3.660   6.644  11.520  0.9212  1.5072  1.5484
 5366TIP3    H237514   3.592   6.762  11.586 -1.7882  0.4508  0.7814
 5367TIP3   OH237515   3.554   1.601   0.944  0.1940  0.6784 -0.1736
 5367TIP3    H137516   3.624   1.546   0.908 -0.7528 -0.1357 -0.8134
 5367TIP3    H237517   3.505   1.542   1.001  0.5618  1.4849  1.0210
 5368TIP3   OH237518   3.405   6.175   2.768 -0.3680 -0.1340 -0.3137
 5368TIP3    H137519   3.366   6.255   2.803  1.4433  0.4015  0.6064
 5368TIP3    H237520   3.331   6.115   2.758 -1.3790  0.6042  1.9292
 5369TIP3   OH237521   4.342   4.422   3.936 -0.2059 -0.2620  0.0199
 5369TIP3    H137522   4.254   4.411   3.970 -0.4942  1.0735 -0.2457
 5369TIP3    H237523   4.331   4.469   3.853  0.7176 -0.5269 -0.2692
 5370TIP3   OH237524   1.055   2.368  16.770 -0.5420 -0.1299  0.0935
 5370TIP3    H137525   0.961   2.352  16.754 -0.5423 -0.8864  0.8254
 5370TIP3    H237526   1.087   2.287  16.810  0.4396  0.1113 -0.1776
 5371TIP3   OH237527   2.708   4.340   4.629 -0.1512  0.0800  0.0156
 5371TIP3    H137528   2.661   4.409   4.677 -0.0410  0.0510  0.1655
 5371TIP3    H237529   2.773   4.308   4.691 -0.3210 -0.2836  0.0067
 5372TIP3   OH237530   0.302   4.454   1.570 -0.3064  0.2142  0.1467
 5372TIP3    H137531   0.343   4.536   1.597  1.0718 -0.8331  1.3487
 5372TIP3    H237532   0.214   4.458   1.606  0.0753  0.7406  1.0376
 5373TIP3   OH237533   5.011   5.340   6.013 -0.2048 -0.2474 -0.2099
 5373TIP3    H137534   5.038   5.397   6.085  1.3583 -2.8267  1.4276
 5373TIP3    H237535   4.955   5.274   6.054  0.3630 -1.5329 -1.3877
 5374TIP3   OH237536   0.421   5.216   5.025 -0.0757  0.1355 -0.4999
 5374TIP3    H137537   0.338   5.183   4.990 -0.2677  1.7763 -1.7449
 5374TIP3    H237538   0.409   5.217   5.120 -1.6276  0.6200 -0.6696
 5375TIP3   OH237539   0.312   4.394  14.614  0.4813 -0.4848 -0.2443
 5375TIP3    H137540   0.305   4.483  14.649  1.7113 -0.2434 -0.5573
 5375TIP3    H237541   0.225   4.356  14.628 -0.2039  0.9140 -0.5317
 5376TIP3   OH237542   5.963   1.755   5.679  0.5445 -0.3723  0.0875
 5376TIP3    H137543   5.909   1.722   5.751  0.4445 -1.0956 -0.3079
 5376TIP3    H237544   5.950   1.850   5.680  0.8466 -0.3263  1.2673
 5377TIP3   OH237545   4.633   3.035   0.418  0.3229  0.4100 -0.5654
 5377TIP3    H137546   4.690   2.992   0.354 -0.4467  1.2238 -1.8504
 5377TIP3    H237547   4.676   3.119   0.435 -0.0604  0.6875 -0.9318
 5378TIP3   OH237548   1.776   0.545  13.191  0.2243 -0.0241  0.4174
 5378TIP3    H137549   1.793   0.520  13.282  1.5259  0.7456  0.4198
 5378TIP3    H237550   1.759   0.462  13.147 -0.6968 -0.3884  1.3933
 5379TIP3   OH237551   1.756   5.887   0.803  0.0464  0.3111 -0.0223
 5379TIP3    H137552   1.773   5.908   0.711 -0.7632 -0.1871 -0.3028
 5379TIP3    H237553   1.795   5.801   0.815 -0.3729  0.1082 -0.0772
 5380TIP3   OH237554   3.309   6.344  13.530 -0.4880  0.4538 -0.6235
 5380TIP3    H137555   3.279   6.300  13.609  0.6247  0.2664 -0.2871
 5380TIP3    H237556   3.349   6.425  13.561  1.1988 -0.2516 -0.8148
 5381TIP3   OH237557   2.378   0.233  11.400 -0.6066 -0.3387  0.1779
 5381TIP3    H137558   2.348   0.310  11.351  2.2575  0.3468 -0.7358
 5381TIP3    H237559   2.450   0.266  11.454  0.2089 -2.2316  0.3290
 5382TIP3   OH237560   4.934   6.054  14.459 -0.5016  0.1601 -0.1021
 5382TIP3    H137561   4.985   6.124  14.499 -0.7353  1.0922 -1.4023
 5382TIP3    H237562   4.921   5.991  14.530  0.2756  1.1084  0.9132
 5383TIP3   OH237563   1.036   5.315   1.294  0.4645 -0.1996  0.3200
 5383TIP3    H137564   1.131   5.309   1.301  0.5076  1.3538  1.6710
 5383TIP3    H237565   1.018   5.327   1.201  1.6059 -0.0850  0.1097
 5384TIP3   OH237566   5.300   4.983  13.583 -0.2472 -0.4009 -0.2266
 5384TIP3    H137567   5.302   5.028  13.499  0.7863 -2.5391 -1.4118
 5384TIP3    H237568   5.220   4.930  13.580 -0.0072 -0.7759 -0.0251
 5385TIP3   OH237569   5.010   5.420  16.574  1.2222  0.4843  0.1024
 5385TIP3    H137570   5.096   5.459  16.554  2.1023 -1.1588  0.4478
 5385TIP3    H237571   5.029   5.327  16.583 -1.1796 -0.5675 -3.4820
 5386TIP3   OH237572   0.490   3.257  14.999  0.5354  0.0517  0.1008
 5386TIP3    H137573   0.501   3.165  15.024  2.1328 -0.0542 -0.8404
 5386TIP3    H237574   0.580   3.289  14.987 -0.0410  1.0788 -1.8632
 5387TIP3   OH237575   0.334   5.541   6.523 -0.4139 -0.1079  0.3693
 5387TIP3    H137576   0.290   5.457   6.514  0.0595 -0.2938 -0.3299
 5387TIP3    H237577   0.402   5.540   6.455  1.1940 -0.1581  1.8944
 5388TIP3   OH237578   2.569   2.029   4.139  0.5007 -0.8632  0.7297
 5388TIP3    H137579   2.485   2.020   4.184 -0.3334  2.1784  0.0367
 5388TIP3    H237580   2.619   1.952   4.164 -1.0926 -0.9117  4.2193
 5389TIP3   OH237581   0.834   1.097  12.683 -0.3916  1.2929 -0.0180
 5389TIP3    H137582   0.772   1.025  12.668 -0.1626  1.1800 -0.4344
 5389TIP3    H237583   0.918   1.062  12.654 -0.3396  1.8483 -0.5587
 5390TIP3   OH237584   4.746   2.550   2.473  0.3760  0.0599  0.1816
 5390TIP3    H137585   4.658   2.518   2.491  1.1040 -1.8078  0.6566
 5390TIP3    H237586   4.747   2.639   2.506 -1.2606  0.0321  0.3586
 5391TIP3   OH237587   1.042   2.915   3.806 -0.0464  0.3620  0.1513
 5391TIP3    H137588   0.958   2.869   3.797  0.2422 -0.1642  0.1340
 5391TIP3    H237589   1.096   2.856   3.859  0.4434  0.5260 -0.1678
 5392TIP3   OH237590   5.983   5.876   0.885  0.5775 -0.0511 -0.0142
 5392TIP3    H137591   5.985   5.947   0.949  0.3806 -1.4424  1.5831
 5392TIP3    H237592   6.060   5.823   0.904  1.8151  0.7109 -2.4372
 5393TIP3   OH237593   4.990   0.912   4.396 -0.1276 -0.4809 -0.0196
 5393TIP3    H137594   5.005   0.853   4.470 -0.9703  0.3547  0.8465
 5393TIP3    H237595   5.049   0.881   4.327  0.9533 -1.0424  1.1348
 5394TIP3   OH237596   3.828   4.994   1.704 -0.0239 -0.2948 -0.0991
 5394TIP3    H137597   3.734   4.995   1.721  0.3956  0.6640  2.7116
 5394TIP3    H237598   3.857   4.908   1.735  0.3521  0.4473  1.7781
 5395TIP3   OH237599   5.769   3.923   1.789  0.1539  0.4067  0.5700
 5395TIP3    H137600   5.729   4.007   1.814  0.8492  0.4629  1.5609
 5395TIP3    H237601   5.824   3.900   1.864  0.4216 -0.6542  0.0616
 5396TIP3   OH237602   4.395   1.152  12.401 -0.0282 -0.0111 -0.2260
 5396TIP3    H137603   4.454   1.077  12.390  2.9169  2.2217 -0.7796
 5396TIP3    H237604   4.339   1.149  12.324  0.7399 -1.0304 -0.7784
 5397TIP3   OH237605   6.550   0.763  15.131 -0.3961  0.0301  0.1778
 5397TIP3    H137606   6.547   0.841  15.076 -0.2234 -2.0254 -3.0322
 5397TIP3    H237607   6.632   0.772  15.180  0.9675  0.7370 -2.0527
 5398TIP3   OH237608   5.593   4.119  12.367 -0.0674 -0.0414 -0.2214
 5398TIP3    H137609   5.611   4.097  12.276 -0.4767 -1.0224 -0.0794
 5398TIP3    H237610   5.631   4.046  12.417 -0.0709  0.3560  0.3754
 5399TIP3   OH237611   3.778   3.159  15.283 -0.0842  0.0879 -0.7127
 5399TIP3    H137612   3.833   3.198  15.351  0.5290  0.9954 -1.6917
 5399TIP3    H237613   3.831   3.086  15.249  0.2454  0.5562 -1.2135
 5400TIP3   OH237614   3.975   2.763  12.535  0.2075 -0.3920 -0.3025
 5400TIP3    H137615   4.034   2.742  12.607 -0.4783 -1.6533 -0.0763
 5400TIP3    H237616   3.969   2.683  12.483  1.8136  0.8749 -2.6479
 5401TIP3   OH237617   1.873   3.111   1.177 -0.0416  0.2054  0.2188
 5401TIP3    H137618   1.812   3.134   1.247  2.1824  1.7972  1.7837
 5401TIP3    H237619   1.927   3.189   1.166  2.5274 -1.4939 -0.1401
 5402TIP3   OH237620   5.647   3.189  13.136 -0.1672  0.5836  0.2663
 5402TIP3    H137621   5.663   3.178  13.043  1.9999  0.3216  0.6235
 5402TIP3    H237622   5.729   3.224  13.171  0.3892 -2.5826  2.6062
 5403TIP3   OH237623   3.545   1.270   2.403  0.1547 -0.4076 -0.2907
 5403TIP3    H137624   3.555   1.178   2.380  2.5106 -1.0873  2.8377
 5403TIP3    H237625   3.632   1.308   2.389  0.2820  0.3403  2.0698
 5404TIP3   OH237626   2.844   6.041   0.779 -0.1214 -0.1010  0.4265
 5404TIP3    H137627   2.786   6.104   0.736  1.0346  0.9814  0.3748
 5404TIP3    H237628   2.822   5.957   0.739 -1.8606  0.2175  0.6623
 5405TIP3   OH237629   0.039   5.123  12.951 -0.3347  0.4041 -0.5768
 5405TIP3    H137630  -0.004   5.165  13.026 -2.2064 -1.6153 -0.4056
 5405TIP3    H237631  -0.021   5.138  12.878 -1.6377 -2.6540 -0.2924
 5406TIP3   OH237632   3.555   2.842  13.039 -0.1047  0.5956  0.6327
 5406TIP3    H137633   3.557   2.772  12.973 -0.1879  0.4720  0.7614
 5406TIP3    H237634   3.582   2.921  12.991 -0.9022  0.6536  0.2779
 5407TIP3   OH237635   1.710   2.455   2.552 -0.3680  0.0606  0.3395
 5407TIP3    H137636   1.748   2.532   2.593  1.2313 -0.4276 -0.1208
 5407TIP3    H237637   1.714   2.387   2.619 -1.3707  0.2482  0.6040
 5408TIP3   OH237638   2.854   2.065   5.304  0.0583 -0.0080 -0.3175
 5408TIP3    H137639   2.863   2.077   5.209  2.2685 -0.5574 -0.2090
 5408TIP3    H237640   2.852   1.970   5.316  0.6644  0.0511  0.2590
 5409TIP3   OH237641   0.957   0.452  14.776 -0.6054 -0.4820  0.2605
 5409TIP3    H137642   0.867   0.447  14.809 -0.9219 -1.9372 -0.7013
 5409TIP3    H237643   1.011   0.422  14.849 -1.1574 -2.0644  0.0722
 5410TIP3   OH237644   3.257   0.782  14.114 -0.1818 -0.1807  0.2902
 5410TIP3    H137645   3.249   0.812  14.023 -0.5430 -1.3927 -0.0925
 5410TIP3    H237646   3.268   0.863  14.164 -0.7603  0.5684 -0.7344
 5411TIP3   OH237647   5.025   5.738  13.697  0.0974 -0.5947  0.0411
 5411TIP3    H137648   5.027   5.833  13.687  0.8361 -0.5360  0.6599
 5411TIP3    H237649   4.996   5.724  13.787  0.5589 -0.9344  0.1405
 5412TIP3   OH237650   5.784   1.023   1.647  0.5946  0.1546 -0.5118
 5412TIP3    H137651   5.699   1.000   1.683  0.7695 -0.4628 -0.4800
 5412TIP3    H237652   5.765   1.061   1.561  0.1517  1.9302  0.3190
 5413TIP3   OH237653   4.427   3.141   2.235 -0.0174  0.1941  0.1096
 5413TIP3    H137654   4.479   3.066   2.261  0.3984  0.4442  0.0016
 5413TIP3    H237655   4.393   3.117   2.148 -3.2894 -1.6254  1.6983
 5414TIP3   OH237656   4.731   4.125  16.452  0.0958  0.0562 -0.1903
 5414TIP3    H137657   4.658   4.180  16.481 -0.1931  0.1366 -1.0580
 5414TIP3    H237658   4.707   4.036  16.481 -0.7680 -0.0652 -1.1954
 5415TIP3   OH237659   5.497   3.115  14.503  0.6470 -0.6210  0.6515
 5415TIP3    H137660   5.561   3.083  14.439  1.2945  1.8747 -0.0645
 5415TIP3    H237661   5.545   3.117  14.586  0.9607 -0.4028  0.4681
 5416TIP3   OH237662   5.251   5.609   0.000  0.4139 -0.3836 -0.0875
 5416TIP3    H137663   5.276   5.540  -0.062  0.8190  0.1394 -0.5137
 5416TIP3    H237664   5.325   5.615   0.060  0.3094 -0.4279  0.0464
 5417TIP3   OH237665   1.780   1.340  15.902 -0.2199  0.0725 -0.2975
 5417TIP3    H137666   1.872   1.347  15.926 -0.6918 -1.0433  2.1597
 5417TIP3    H237667   1.773   1.255  15.858 -0.5887 -1.7856  2.9879
 5418TIP3   OH237668   1.942   1.013   6.073  0.4644  0.7645 -0.5570
 5418TIP3    H137669   1.984   0.928   6.062  0.2132  0.8356 -2.2327
 5418TIP3    H237670   1.851   0.999   6.044  0.4702  1.6454 -1.0190
 5419TIP3   OH237671   2.008   3.980   0.347 -0.1988  0.0332 -0.2456
 5419TIP3    H137672   2.028   4.018   0.261 -0.7655  0.8559 -0.0257
 5419TIP3    H237673   1.967   4.051   0.396 -1.7416 -0.9906  0.0235
 5420TIP3   OH237674   1.833   1.497   0.118 -0.0224 -0.1953 -0.1403
 5420TIP3    H137675   1.813   1.525   0.029 -0.3501  1.2442  0.3462
 5420TIP3    H237676   1.778   1.553   0.173 -0.0951 -1.3178  0.9519
 5421TIP3   OH237677   1.938   2.973  14.952 -0.1104 -0.0764  0.1093
 5421TIP3    H137678   1.908   3.056  14.915  0.7149  0.8489  1.4251
 5421TIP3    H237679   1.931   2.985  15.047  1.1570 -1.0750  0.3562
 5422TIP3   OH237680   5.087   6.611  15.853 -0.2942  0.2073 -0.2839
 5422TIP3    H137681   5.013   6.578  15.904 -0.4017  1.0072  0.0890
 5422TIP3    H237682   5.059   6.697  15.822  0.5485  0.5991  0.0271
 5423TIP3   OH237683   3.512   1.771   2.938 -0.6274  0.0794 -0.4049
 5423TIP3    H137684   3.583   1.707   2.939 -0.4227  0.2880 -1.4129
 5423TIP3    H237685   3.432   1.717   2.939 -0.5198 -0.1546  1.8941
 5424TIP3   OH237686   4.573   4.079  12.738  0.2696  0.4015  0.5237
 5424TIP3    H137687   4.497   4.069  12.796  1.5350 -2.0006  1.9180
 5424TIP3    H237688   4.646   4.044  12.788  1.6849 -0.5550 -2.0336
 5425TIP3   OH237689   5.797   3.957  11.947  0.4840  0.1553 -0.3321
 5425TIP3    H137690   5.732   3.886  11.947 -1.4792  1.7330  2.3137
 5425TIP3    H237691   5.754   4.028  11.994  3.1684  2.3621 -0.9451
 5426TIP3   OH237692   3.490   1.815  14.906  0.1009 -0.2276 -0.1054
 5426TIP3    H137693   3.513   1.783  14.993 -3.2520  1.5263  1.6301
 5426TIP3    H237694   3.423   1.755  14.875  0.3245 -0.0747 -0.9043
 5427TIP3   OH237695   2.523   2.376   6.167  0.0050 -1.0993  0.1055
 5427TIP3    H137696   2.617   2.390   6.174 -0.1423 -0.2620  0.5206
 5427TIP3    H237697   2.496   2.345   6.254 -0.3406  0.1677  0.4620
 5428TIP3   OH237698   5.405   6.542  12.478  0.2315  0.3365 -0.0788
 5428TIP3    H137699   5.487   6.576  12.513  0.3071 -0.5937  0.7018
 5428TIP3    H237700   5.337   6.596  12.520  0.3023 -0.9715  1.8435
 5429TIP3   OH237701   1.355   3.762  15.149  0.0932 -0.0331  0.2864
 5429TIP3    H137702   1.275   3.769  15.201  1.3737  0.9469  2.2333
 5429TIP3    H237703   1.425   3.756  15.214  1.5948 -1.3631 -1.3605
 5430TIP3   OH237704   4.215   5.662  15.270 -0.1930 -0.2571 -0.2165
 5430TIP3    H137705   4.123   5.649  15.246 -0.1298  1.2478 -1.4740
 5430TIP3    H237706   4.227   5.609  15.348 -1.7796 -1.5108 -0.7669
 5431TIP3   OH237707   5.538   1.513   3.181  0.0667 -0.0878 -0.0923
 5431TIP3    H137708   5.479   1.455   3.134  2.1729 -0.9513 -1.8585
 5431TIP3    H237709   5.618   1.462   3.192  1.3013  1.7739  0.1079
 5432TIP3   OH237710   4.687   4.114   6.061  0.2555 -0.4849 -0.2292
 5432TIP3    H137711   4.667   4.193   6.111 -1.3667  0.0198 -1.5768
 5432TIP3    H237712   4.611   4.058   6.071  1.0805 -1.5876  0.1011
 5433TIP3   OH237713   0.031   5.652   1.469 -0.2373 -0.1413 -0.1741
 5433TIP3    H137714  -0.035   5.588   1.444  1.3055 -1.4081 -1.2485
 5433TIP3    H237715   0.029   5.717   1.398 -2.4237  1.6047  1.3606
 5434TIP3   OH237716   6.399   0.227   0.505  0.1836  0.2050  0.3078
 5434TIP3    H137717   6.391   0.291   0.576 -0.6187  0.1428  0.2792
 5434TIP3    H237718   6.376   0.143   0.545 -2.4662  0.4634 -0.4962
 5435TIP3   OH237719   1.342   3.941   3.124 -0.0758 -0.6711 -0.3750
 5435TIP3    H137720   1.281   4.013   3.115  0.2133 -0.2243  0.9753
 5435TIP3    H237721   1.287   3.864   3.139 -0.3320 -0.2944  0.7107
 5436TIP3   OH237722   6.164   3.660   0.670  0.0750  0.4874 -0.2735
 5436TIP3    H137723   6.100   3.723   0.637  0.2651 -0.2871 -2.2872
 5436TIP3    H237724   6.239   3.713   0.696 -0.0598  1.1592 -1.2050
 5437TIP3   OH237725   4.625   4.685  13.319 -0.4237  0.0521  0.2081
 5437TIP3    H137726   4.601   4.600  13.355 -0.3236 -0.1980 -0.2989
 5437TIP3    H237727   4.547   4.739  13.332 -0.5812 -0.1939  0.2947
 5438TIP3   OH237728   5.588   1.602   5.853  0.5879 -0.7927 -0.4294
 5438TIP3    H137729   5.684   1.606   5.863  0.4811  1.2126  0.2619
 5438TIP3    H237730   5.561   1.533   5.914  1.2531  1.8011  3.1056
 5439TIP3   OH237731   0.731   2.817  13.095 -0.1059 -0.1414  0.3486
 5439TIP3    H137732   0.671   2.882  13.059  0.3595  0.1073  0.0184
 5439TIP3    H237733   0.813   2.830  13.047  0.4521  0.0394  1.3348
 5440TIP3   OH237734   3.997   5.024   5.656 -0.8974 -0.3705 -0.1566
 5440TIP3    H137735   4.061   4.984   5.715  0.2057  0.3886 -0.8238
 5440TIP3    H237736   4.042   5.098   5.617 -2.0471 -0.0725 -0.9755
 5441TIP3   OH237737   4.452   1.891   2.279 -0.4135 -0.1467 -0.6782
 5441TIP3    H137738   4.523   1.912   2.219 -0.7593  0.3211 -0.9373
 5441TIP3    H237739   4.480   1.812   2.324 -0.1055 -0.4476 -1.3847
 5442TIP3   OH237740   6.255   4.430   2.303 -0.0345 -0.0805  0.6522
 5442TIP3    H137741   6.220   4.397   2.220 -1.4926  1.0215  0.7804
 5442TIP3    H237742   6.302   4.510   2.278  0.4630 -0.3343  0.7656
 5443TIP3   OH237743   4.171   5.193   4.146 -0.0188 -0.1687 -0.4757
 5443TIP3    H137744   4.085   5.151   4.152 -0.7276  1.1206 -1.1304
 5443TIP3    H237745   4.183   5.210   4.053 -0.8022  3.0360 -0.1054
 5444TIP3   OH237746   0.160   2.595  15.608  0.6309  0.3972 -0.2088
 5444TIP3    H137747   0.129   2.657  15.673  0.9291  1.7931 -1.3475
 5444TIP3    H237748   0.176   2.514  15.657 -1.3014  0.6992  1.0303
 5445TIP3   OH237749   2.371   5.138   1.911  0.4095 -0.1475  0.3988
 5445TIP3    H137750   2.414   5.053   1.918 -0.5236 -0.7441 -0.8692
 5445TIP3    H237751   2.371   5.158   1.817 -2.3958 -0.3787  0.2547
 5446TIP3   OH237752   4.265   0.932  12.638 -0.2327 -0.5056  0.2522
 5446TIP3    H137753   4.311   0.984  12.704 -0.0364 -0.7318  0.2945
 5446TIP3    H237754   4.196   0.990  12.605 -0.4276 -0.4386  0.7636
 5447TIP3   OH237755   2.237   1.883  11.629 -0.0719 -0.2316  0.0301
 5447TIP3    H137756   2.209   1.969  11.661  1.5021  0.7587 -1.1325
 5447TIP3    H237757   2.305   1.855  11.690 -0.2848 -0.4883  0.1579
 5448TIP3   OH237758   0.453   2.528   2.440 -0.4231 -0.0432  0.3403
 5448TIP3    H137759   0.366   2.512   2.404 -0.4874  1.5659 -0.3084
 5448TIP3    H237760   0.438   2.582   2.518 -0.0506 -0.3274  0.6127
 5449TIP3   OH237761   0.320   5.293  14.203  0.0441 -0.1377  0.0239
 5449TIP3    H137762   0.305   5.359  14.271  0.9818 -0.3231  0.4145
 5449TIP3    H237763   0.315   5.209  14.249 -0.6359 -0.3357 -0.3846
 5450TIP3   OH237764   1.882   6.126  13.787 -0.2430 -0.0386  0.6651
 5450TIP3    H137765   1.951   6.192  13.789 -0.4847  0.2159  2.0548
 5450TIP3    H237766   1.821   6.156  13.720  1.0187 -0.3124 -0.6356
 5451TIP3   OH237767   4.963   6.282  14.261  0.1820  0.5459 -0.0585
 5451TIP3    H137768   5.031   6.348  14.277  0.9503 -0.2328 -0.0322
 5451TIP3    H237769   4.998   6.202  14.300 -1.5213  0.5084  1.5341
 5452TIP3   OH237770   2.286   1.449  14.141 -0.6457 -0.0574 -0.8085
 5452TIP3    H137771   2.354   1.385  14.165 -1.3877 -0.7353 -0.4459
 5452TIP3    H237772   2.334   1.520  14.099  0.7004  0.9835  2.2174
 5453TIP3   OH237773   5.869   6.516  11.936  0.2967  0.4595  0.1456
 5453TIP3    H137774   5.936   6.584  11.929  0.5765  0.1118 -0.6335
 5453TIP3    H237775   5.796   6.560  11.981  0.1415  1.5356 -1.1005
 5454TIP3   OH237776   4.897   1.180  13.322 -0.1163 -0.3000  0.3426
 5454TIP3    H137777   4.993   1.172  13.320 -0.1143 -0.7669  1.4757
 5454TIP3    H237778   4.871   1.173  13.230  0.9655  0.3092 -0.0383
 5455TIP3   OH237779   1.457   3.398  13.930 -0.0444 -0.2101 -0.1267
 5455TIP3    H137780   1.527   3.353  13.883 -0.1098  0.8395 -1.2612
 5455TIP3    H237781   1.404   3.328  13.967  1.4255 -1.0239  0.5009
 5456TIP3   OH237782   0.889   1.048  16.225 -0.3178  0.0541 -0.0472
 5456TIP3    H137783   0.954   0.983  16.199 -0.0779  0.2673  0.0073
 5456TIP3    H237784   0.807   1.018  16.185 -0.2354 -0.3439  0.0783
 5457TIP3   OH237785   5.004   5.350  14.635 -0.2734 -0.0994 -0.3983
 5457TIP3    H137786   4.929   5.301  14.669 -0.0859 -1.1520 -1.4379
 5457TIP3    H237787   4.976   5.380  14.548 -0.3942  1.7070  0.2240
 5458TIP3   OH237788   0.585   2.633   0.817 -0.3842  0.0538 -0.1060
 5458TIP3    H137789   0.674   2.666   0.803 -1.3653  2.1286 -2.2070
 5458TIP3    H237790   0.541   2.702   0.866 -1.0506 -0.6305  0.2811
 5459TIP3   OH237791   1.733   0.796   3.439 -0.1145  0.0013  0.5476
 5459TIP3    H137792   1.803   0.769   3.379 -0.6604 -1.0596  0.3682
 5459TIP3    H237793   1.777   0.806   3.524  0.6000  1.1928  0.0608
 5460TIP3   OH237794   5.490   1.311  12.357  0.5455  0.2367  0.1244
 5460TIP3    H137795   5.431   1.385  12.341 -0.2775 -0.5453 -0.5574
 5460TIP3    H237796   5.455   1.270  12.437  1.0316  0.5968  0.5312
 5461TIP3   OH237797   0.466   1.430   4.015 -0.6172 -0.0460 -0.5455
 5461TIP3    H137798   0.476   1.481   4.095 -1.0267 -0.9160  0.0657
 5461TIP3    H237799   0.523   1.354   4.027 -1.8107 -0.9465 -0.4304
 5462TIP3   OH237800   0.402   0.080   1.994  0.4748 -0.3438  0.2834
 5462TIP3    H137801   0.441   0.006   1.949  1.2502 -0.3955  1.0118
 5462TIP3    H237802   0.424   0.156   1.940  1.6846 -0.3596  0.7191
 5463TIP3   OH237803   5.758   4.846  13.222 -0.0514  0.1758  0.4571
 5463TIP3    H137804   5.672   4.809  13.204 -0.4927  1.3255  0.1023
 5463TIP3    H237805   5.807   4.835  13.141  0.5425 -1.4843  0.9990
 5464TIP3   OH237806   4.881   2.057  15.227 -0.2066 -0.2098 -0.1619
 5464TIP3    H137807   4.960   2.112  15.224  0.3561 -0.9736  0.1811
 5464TIP3    H237808   4.901   1.990  15.293 -0.8836 -0.8009 -0.5379
 5465TIP3   OH237809   3.845   2.998  12.487 -0.8057 -0.1928  0.9491
 5465TIP3    H137810   3.866   2.905  12.498  1.9680 -0.1331 -2.3051
 5465TIP3    H237811   3.910   3.044  12.540  0.9679 -0.1591 -1.1215
 5466TIP3   OH237812   3.889   1.116   2.835  0.1458  0.0702 -0.4157
 5466TIP3    H137813   3.976   1.076   2.836  0.9127  1.6570  0.5041
 5466TIP3    H237814   3.903   1.204   2.870 -2.0252 -0.0588  0.9496
 5467TIP3   OH237815   5.485   1.750   4.386  0.1738 -0.0588 -0.4653
 5467TIP3    H137816   5.465   1.841   4.363 -0.1588  0.9209  3.0625
 5467TIP3    H237817   5.580   1.743   4.373  0.2837  0.9789 -0.3655
 5468TIP3   OH237818   6.573   5.699  12.880  0.3021  0.2426 -0.1912
 5468TIP3    H137819   6.603   5.745  12.958 -0.1516 -0.1185  0.2041
 5468TIP3    H237820   6.593   5.759  12.808  0.1755  0.8454  0.2618
 5469TIP3   OH237821   6.296   5.730   1.369 -0.4813  0.5411 -0.1526
 5469TIP3    H137822   6.294   5.776   1.285  1.8895  0.9418 -0.0633
 5469TIP3    H237823   6.282   5.638   1.347  0.3802  0.6120 -1.0291
 5470TIP3   OH237824   4.254   4.282  12.358  0.1330 -0.4254  0.2863
 5470TIP3    H137825   4.345   4.265  12.381 -0.4860 -1.5052  2.1651
 5470TIP3    H237826   4.255   4.293  12.263  1.9430 -2.2571  0.0239
 5471TIP3   OH237827   1.926   4.347   6.046  0.6187 -0.3185  0.4808
 5471TIP3    H137828   1.871   4.418   6.013 -1.5118 -2.5601 -1.1393
 5471TIP3    H237829   2.003   4.348   5.990 -0.1323 -0.2199 -0.5799
 5472TIP3   OH237830   0.091   5.765   4.279 -0.1741 -0.2283 -0.1918
 5472TIP3    H137831   0.166   5.777   4.338  0.7308  0.0257 -1.3572
 5472TIP3    H237832   0.077   5.851   4.240 -0.9154 -0.3391 -0.1780
 5473TIP3   OH237833   3.450   6.252   0.152 -0.1007  0.5694  0.1874
 5473TIP3    H137834   3.424   6.342   0.176 -1.3793  0.4226 -0.5284
 5473TIP3    H237835   3.368   6.211   0.125  0.5746 -0.6468 -0.0523
 5474TIP3   OH237836   3.656   3.424  15.058  0.1116  0.6395 -0.1464
 5474TIP3    H137837   3.584   3.474  15.020 -0.5796 -1.9386 -2.5903
 5474TIP3    H237838   3.667   3.349  15.000  3.3037 -0.3053  1.4022
 5475TIP3   OH237839   0.141   3.816   0.315 -0.3464 -0.4884  0.3617
 5475TIP3    H137840   0.148   3.842   0.223 -0.6898  1.1750  0.7724
 5475TIP3    H237841   0.077   3.877   0.352 -0.6177 -1.4907  1.5819
 5476TIP3   OH237842   3.811   1.919  13.611  0.5587  0.0951  0.1741
 5476TIP3    H137843   3.806   1.912  13.707 -0.9336  1.4064  0.2405
 5476TIP3    H237844   3.904   1.925  13.592  0.9200 -0.9600  1.4721
 5477TIP3   OH237845   0.781   4.981   1.275  0.3629  0.4053 -0.0724
 5477TIP3    H137846   0.771   4.886   1.271  1.7415  0.2489 -0.5290
 5477TIP3    H237847   0.692   5.015   1.276 -0.1507 -0.8820 -0.1071
 5478TIP3   OH237848   6.006   6.432   0.465 -0.0632  0.0994 -0.0342
 5478TIP3    H137849   5.914   6.453   0.484  0.1108  0.1131  0.8635
 5478TIP3    H237850   6.002   6.351   0.415 -0.6499  1.1062 -1.7024
 5479TIP3   OH237851   1.781   0.077  16.215  0.1726  0.2299  0.0152
 5479TIP3    H137852   1.741   0.128  16.144  0.4669  0.1929 -0.1814
 5479TIP3    H237853   1.824   0.143  16.270  1.3727  0.1204 -0.7682
 5480TIP3   OH237854   0.460   0.955   4.530 -0.0954 -0.7004  0.1689
 5480TIP3    H137855   0.539   1.005   4.509 -1.2022  1.2416  0.4041
 5480TIP3    H237856   0.465   0.940   4.624 -0.5948  0.5414  0.4068
 5481TIP3   OH237857   1.855   1.273   2.988  0.2115 -0.0041  0.1036
 5481TIP3    H137858   1.923   1.233   2.935  1.1798  0.8491  0.6748
 5481TIP3    H237859   1.902   1.324   3.054 -0.9580  1.3243 -0.0292
 5482TIP3   OH237860   0.138   1.212   5.016  0.3846 -0.3226 -0.8189
 5482TIP3    H137861   0.118   1.289   5.069  1.1159  0.3326 -1.4710
 5482TIP3    H237862   0.058   1.197   4.965  0.2964  0.1020 -0.8108
 5483TIP3   OH237863   1.480   1.818  13.153  1.0422 -0.5636 -0.0424
 5483TIP3    H137864   1.410   1.775  13.105  0.1150  1.1319 -0.2842
 5483TIP3    H237865   1.471   1.787  13.243  0.8625 -1.4117 -0.3466
 5484TIP3   OH237866   2.249   5.284  11.646  0.6134  0.8545 -0.2194
 5484TIP3    H137867   2.270   5.370  11.610 -0.1117  0.4366 -1.7032
 5484TIP3    H237868   2.268   5.223  11.575  2.0178 -0.3542  1.1002
 5485TIP3   OH237869   0.195   2.470   3.505 -0.8428  0.1013 -0.6329
 5485TIP3    H137870   0.255   2.397   3.518 -0.0271  0.9279  0.4356
 5485TIP3    H237871   0.151   2.450   3.422  0.9503 -0.5167 -1.5012
 5486TIP3   OH237872   2.454   6.543   5.225 -0.7066 -0.3020  0.2841
 5486TIP3    H137873   2.446   6.527   5.131 -1.4514 -2.4895  0.6488
 5486TIP3    H237874   2.393   6.480   5.265  1.2839 -1.0805  2.3125
 5487TIP3   OH237875   0.995   4.681  17.138  0.2740 -0.4077 -0.0013
 5487TIP3    H137876   0.971   4.652  17.050 -0.2811  1.0591 -0.3803
 5487TIP3    H237877   0.947   4.624  17.197 -0.1367 -0.7734 -0.6822
 5488TIP3   OH237878   5.103   3.585  16.917 -0.3130 -0.4291 -0.1987
 5488TIP3    H137879   5.083   3.499  16.953  1.8591 -0.5197  1.0275
 5488TIP3    H237880   5.155   3.568  16.839 -1.0054 -0.2304 -0.7038
 5489TIP3   OH237881   0.455   3.973   3.571  0.0110 -0.1723 -0.3247
 5489TIP3    H137882   0.480   3.980   3.663  0.8925  0.5184 -0.6055
 5489TIP3    H237883   0.481   3.884   3.547 -1.5975 -0.8923  0.4719
 5490TIP3   OH237884   6.784   5.693   0.841  0.2321  0.5000 -0.5775
 5490TIP3    H137885   6.800   5.785   0.820  1.0593  0.1952 -1.4083
 5490TIP3    H237886   6.728   5.661   0.770  1.7531 -0.1564 -1.5418
 5491TIP3   OH237887   2.958   0.765   2.306 -0.3174 -0.8101 -0.0334
 5491TIP3    H137888   2.976   0.856   2.330  0.0988 -1.1775  1.0746
 5491TIP3    H237889   2.994   0.756   2.218 -1.7793  0.5313 -0.8270
 5492TIP3   OH237890   1.734   0.683   6.066  0.3102  0.4955  0.7145
 5492TIP3    H137891   1.739   0.778   6.074 -0.0486  0.6471 -0.6491
 5492TIP3    H237892   1.747   0.651   6.156 -1.1820  1.8765  1.4786
 5493TIP3   OH237893   2.469   0.995   0.283 -0.5176 -0.0714  0.0051
 5493TIP3    H137894   2.565   0.988   0.276 -0.3765  0.5393  1.0954
 5493TIP3    H237895   2.439   1.003   0.193  0.5061  0.2265 -0.3221
 5494TIP3   OH237896   5.227   3.137  14.248 -0.3167  0.3288 -0.6810
 5494TIP3    H137897   5.221   3.214  14.304  0.8629  0.7082 -1.0625
 5494TIP3    H237898   5.165   3.075  14.286 -0.0091  0.8160  0.6610
 5495TIP3   OH237899   2.938   1.869   4.471 -0.0825 -0.2790 -0.4880
 5495TIP3    H137900   2.904   1.955   4.448  0.9568  0.7014  1.3948
 5495TIP3    H237901   2.861   1.817   4.492 -0.6219  1.0103  0.8607
 5496TIP3   OH237902   0.334   1.902  11.116 -0.0851 -0.3507  0.0345
 5496TIP3    H137903   0.293   1.953  11.046  0.6477  0.1839 -0.0065
 5496TIP3    H237904   0.264   1.843  11.146 -1.2856  1.4021  0.8329
 5497TIP3   OH237905   4.301   5.425  16.847  0.2062  0.2711 -0.2005
 5497TIP3    H137906   4.371   5.456  16.904  0.9710  0.4350 -1.2099
 5497TIP3    H237907   4.318   5.466  16.762  0.6755 -2.0524 -1.3181
 5498TIP3   OH237908   4.328   0.587   6.477  0.3033  0.4678 -0.1030
 5498TIP3    H137909   4.318   0.680   6.498  0.8033  0.4035  0.4474
 5498TIP3    H237910   4.249   0.564   6.429  0.5717  1.4088 -1.0478
 5499TIP3   OH237911   6.188   6.722  13.973  0.4264 -0.0238  0.4894
 5499TIP3    H137912   6.229   6.636  13.963  1.0386  0.4058 -1.0434
 5499TIP3    H237913   6.233   6.763  14.047 -0.0819 -1.1203  1.4262
 5500TIP3   OH237914   6.091   6.562  13.484  0.2863 -0.2148  0.2437
 5500TIP3    H137915   6.012   6.592  13.527  1.7249  2.1751  1.4438
 5500TIP3    H237916   6.124   6.492  13.539 -0.8468 -1.1121 -0.1773
 5501TIP3   OH237917   6.518   0.620   3.745 -0.2839 -0.2813 -0.3680
 5501TIP3    H137918   6.439   0.568   3.736 -0.1983 -0.4982  0.0752
 5501TIP3    H237919   6.576   0.566   3.801 -0.1209  0.1979 -0.0661
 5502TIP3   OH237920   6.154   5.451  14.916  0.4103 -0.0962 -0.0545
 5502TIP3    H137921   6.207   5.479  14.841  0.7822  0.4942  0.4151
 5502TIP3    H237922   6.157   5.525  14.976 -0.8100 -0.1285  0.0652
 5503TIP3   OH237923   0.699   2.440   4.270 -0.0795  0.3902 -0.3136
 5503TIP3    H137924   0.787   2.409   4.248  0.7238  1.1822  1.6348
 5503TIP3    H237925   0.659   2.368   4.318 -0.0727  0.4575 -0.2066
 5504TIP3   OH237926   0.108   1.355   0.313 -0.6344 -0.3680 -0.2138
 5504TIP3    H137927   0.014   1.340   0.326 -0.8011  0.2819 -0.6498
 5504TIP3    H237928   0.147   1.334   0.398 -1.5665  2.6112  1.0912
 5505TIP3   OH237929   3.297   4.186  14.491  0.1628  0.4095 -0.1740
 5505TIP3    H137930   3.354   4.112  14.511  1.2208  1.7641  2.3187
 5505TIP3    H237931   3.210   4.148  14.479  0.2964 -1.1503  2.8814
 5506TIP3   OH237932   2.481   4.394   3.222 -0.3809  0.3833 -0.1787
 5506TIP3    H137933   2.400   4.440   3.202 -2.8726 -2.8948  1.4818
 5506TIP3    H237934   2.518   4.441   3.297 -2.5361  0.1416  1.1187
 5507TIP3   OH237935   3.610   1.819  15.199 -0.5461 -0.0144 -0.2598
 5507TIP3    H137936   3.570   1.903  15.178  0.2454  0.5475  0.3948
 5507TIP3    H237937   3.698   1.824  15.160 -0.6380 -0.7133 -0.5804
 5508TIP3   OH237938   1.191   0.520   6.117  0.5462 -0.6537  0.0163
 5508TIP3    H137939   1.206   0.425   6.116  0.7601 -0.6223 -0.6690
 5508TIP3    H237940   1.270   0.557   6.079  0.1041 -0.2658 -0.5546
 5509TIP3   OH237941   2.752   3.857   1.460  0.1328  0.0553 -0.0413
 5509TIP3    H137942   2.843   3.850   1.433  0.2808  0.5335  0.3216
 5509TIP3    H237943   2.708   3.898   1.386  0.2546  0.0304 -0.1273
 5510TIP3   OH237944   3.274   1.015  15.283 -0.1878  0.3487  0.3166
 5510TIP3    H137945   3.238   1.097  15.250 -0.8769  1.2776  3.0897
 5510TIP3    H237946   3.199   0.955  15.287 -1.0638  1.4607  3.5997
 5511TIP3   OH237947   5.673   4.748   3.304 -0.2958  0.2200  0.1742
 5511TIP3    H137948   5.613   4.692   3.353  1.1920 -0.5263  1.2195
 5511TIP3    H237949   5.742   4.770   3.366  0.0413  1.8393 -0.7173
 5512TIP3   OH237950   6.463   2.081  12.955  0.1535 -0.1472 -0.1295
 5512TIP3    H137951   6.541   2.027  12.947  0.0853 -0.3699  0.6735
 5512TIP3    H237952   6.404   2.031  13.011 -0.1483  0.4914  0.1340
 5513TIP3   OH237953   3.655   6.113  15.946 -0.2599  0.0062  0.0396
 5513TIP3    H137954   3.733   6.068  15.979 -0.4789  0.0753  0.6655
 5513TIP3    H237955   3.689   6.190  15.902 -0.0084  0.4968  1.0592
 5514TIP3   OH237956   4.862   4.229   1.446 -0.5284  0.7545  0.3026
 5514TIP3    H137957   4.824   4.145   1.471  0.9100  0.0896  0.3421
 5514TIP3    H237958   4.853   4.233   1.351  0.8628 -0.2250  0.1004
 5515TIP3   OH237959   1.898   4.146   1.880  0.5102 -0.4519  0.1375
 5515TIP3    H137960   1.885   4.052   1.865  0.8397 -0.2340 -1.8621
 5515TIP3    H237961   1.991   4.160   1.863  0.1523  0.4692 -1.2139
 5516TIP3   OH237962   5.153   6.061   3.571 -0.4078  0.2650  0.0698
 5516TIP3    H137963   5.109   6.073   3.655 -1.4292 -2.1044 -0.0485
 5516TIP3    H237964   5.178   5.968   3.569 -0.1863  0.3106 -2.1200
 5517TIP3   OH237965   0.575   6.432  12.165  0.0919 -0.0632 -0.1065
 5517TIP3    H137966   0.634   6.503  12.140 -1.1824  0.8015 -0.7492
 5517TIP3    H237967   0.617   6.353  12.131  0.2233  0.6858 -1.7401
 5518TIP3   OH237968   2.223   6.489  11.733 -0.7240  0.8726  0.2261
 5518TIP3    H137969   2.290   6.557  11.722 -0.0657  0.0253 -1.2985
 5518TIP3    H237970   2.209   6.484  11.828 -0.0866  2.4358  0.4414
 5519TIP3   OH237971   0.099   0.387   1.749  0.5791 -0.2724  0.3646
 5519TIP3    H137972   0.012   0.353   1.771  0.9398 -0.9726  0.7475
 5519TIP3    H237973   0.082   0.472   1.709 -0.3327 -0.7287 -0.2712
 5520TIP3   OH237974   4.814   0.892  14.738 -0.1882  0.3290 -0.3860
 5520TIP3    H137975   4.857   0.847  14.811  1.0345 -0.0167 -1.2871
 5520TIP3    H237976   4.838   0.842  14.661 -2.2116  0.1465 -0.9699
 5521TIP3   OH237977   5.141   6.233  10.765 -0.3152  0.1456 -0.4158
 5521TIP3    H137978   5.065   6.291  10.756  0.3001  1.0212 -0.0817
 5521TIP3    H237979   5.213   6.280  10.722  0.4222  0.0917  0.7128
 5522TIP3   OH237980   1.044   0.566   5.022 -1.0849  0.2478 -0.2082
 5522TIP3    H137981   0.955   0.530   5.025 -0.3712 -1.8922 -1.9521
 5522TIP3    H237982   1.087   0.517   4.952  1.6731  0.8076  0.9868
 5523TIP3   OH237983   2.886   5.316   5.868 -0.7842  0.0313 -0.4037
 5523TIP3    H137984   2.902   5.409   5.883 -0.7554  0.1340 -1.0315
 5523TIP3    H237985   2.793   5.311   5.846 -0.7983 -0.0902 -0.3128
 5524TIP3   OH237986   3.081   5.515   2.916 -0.1447  0.2271  0.4940
 5524TIP3    H137987   3.002   5.525   2.864 -0.4697 -2.7560  0.2368
 5524TIP3    H237988   3.071   5.429   2.958  2.3341  0.3640  1.5178
 5525TIP3   OH237989   2.252   0.105   0.170 -0.0700 -0.2951 -0.1199
 5525TIP3    H137990   2.293   0.129   0.254  0.4039 -0.3389 -0.3359
 5525TIP3    H237991   2.289   0.019   0.150  0.6363  0.1777 -0.8983
 5526TIP3   OH237992   0.373   0.798   5.372  0.1658 -0.2281  0.3265
 5526TIP3    H137993   0.371   0.812   5.277  0.4749  1.1469  0.5016
 5526TIP3    H237994   0.385   0.703   5.382  1.5676 -0.2328 -1.0136
 5527TIP3   OH237995   0.527   5.017   6.060 -0.0161 -0.6254  0.3179
 5527TIP3    H137996   0.563   5.043   5.975 -0.9171 -1.5484 -0.3563
 5527TIP3    H237997   0.578   5.068   6.123  0.9568 -0.2382 -0.7389
 5528TIP3   OH237998   6.420   4.518  16.916  0.3449 -0.6615 -0.1825
 5528TIP3    H137999   6.450   4.561  16.835  2.2387 -2.1955 -0.3744
 5528TIP3    H238000   6.389   4.590  16.970  0.0042  0.5341 -1.8655
 5529TIP3   OH238001   3.758   0.632   3.677 -0.0820  0.4036 -0.0899
 5529TIP3    H138002   3.845   0.671   3.676  0.0469  0.2796  2.2417
 5529TIP3    H238003   3.731   0.631   3.585  1.0991  3.2335 -0.5572
 5530TIP3   OH238004   4.194   4.467   2.266  0.1972 -0.0497  0.4648
 5530TIP3    H138005   4.106   4.476   2.301 -0.2511 -0.7204 -0.4604
 5530TIP3    H238006   4.200   4.532   2.197  0.2368 -0.3671  0.1661
 5531TIP3   OH238007   0.407   0.155   2.986  0.3034 -0.2022  0.4379
 5531TIP3    H138008   0.503   0.151   2.990  0.3761  0.6112 -0.2672
 5531TIP3    H238009   0.388   0.224   2.922 -0.7519 -1.2175 -0.3843
 5532TIP3   OH238010   1.582   2.931   2.941  0.1180 -0.3154 -0.1188
 5532TIP3    H138011   1.600   2.991   3.013  1.4419 -0.1264 -0.5805
 5532TIP3    H238012   1.648   2.952   2.875  0.6841 -2.3325 -0.2520
 5533TIP3   OH238013   5.815   1.171  15.042  0.3023 -0.1596 -0.2440
 5533TIP3    H138014   5.842   1.226  14.968  3.0850 -0.1449  0.6577
 5533TIP3    H238015   5.806   1.232  15.115  2.1988 -0.6809  0.4769
 5534TIP3   OH238016   2.339   3.250  12.410  0.1600 -0.1864 -0.9175
 5534TIP3    H138017   2.392   3.329  12.402  0.4161 -0.5200 -3.2482
 5534TIP3    H238018   2.336   3.214  12.321 -1.7302 -1.6456 -0.3324
 5535TIP3   OH238019   1.416   4.219  10.755  0.3392  0.0030 -0.0565
 5535TIP3    H138020   1.345   4.275  10.786  1.3934  1.2634  0.1711
 5535TIP3    H238021   1.455   4.182  10.834  0.6821  0.2690 -0.0966
 5536TIP3   OH238022   2.643   1.397  11.389 -0.3719 -0.0987 -0.3019
 5536TIP3    H138023   2.706   1.362  11.326 -0.6470 -0.2642 -0.4868
 5536TIP3    H238024   2.562   1.350  11.370 -0.6366  0.3444 -0.2827
 5537TIP3   OH238025   0.794   2.809   1.038 -0.3892 -0.1314 -0.6167
 5537TIP3    H138026   0.810   2.750   1.111 -1.2378 -3.0135 -2.5753
 5537TIP3    H238027   0.699   2.816   1.033 -0.3464  3.1547  0.7311
 5538TIP3   OH238028   2.194   5.348   2.148  0.4316 -0.0714  0.9792
 5538TIP3    H138029   2.142   5.409   2.097  3.8455  0.9997 -1.5749
 5538TIP3    H238030   2.174   5.262   2.111  0.5595  0.3446 -0.0736
 5539TIP3   OH238031   1.983   6.138  15.007  0.0140 -0.0819  0.0950
 5539TIP3    H138032   1.914   6.166  14.947 -1.8944 -0.4439  2.0014
 5539TIP3    H238033   2.021   6.061  14.965 -0.9644 -0.0726 -0.8541
 5540TIP3   OH238034   2.128   1.818  16.117  0.0656  0.3644 -0.5116
 5540TIP3    H138035   2.197   1.870  16.159 -0.4325  0.6426 -0.0301
 5540TIP3    H238036   2.050   1.835  16.169 -0.3241 -0.1133 -0.9310
 5541TIP3   OH238037   1.655   4.209   4.674  0.0912  0.6307  0.0591
 5541TIP3    H138038   1.582   4.187   4.732  1.4568 -1.1569  1.2293
 5541TIP3    H238039   1.725   4.149   4.701  2.1889  2.6474 -0.6007
 5542TIP3   OH238040   5.625   4.520   0.953  0.2225  0.0621  0.3702
 5542TIP3    H138041   5.537   4.524   0.991 -0.9261  0.1438 -2.1033
 5542TIP3    H238042   5.641   4.609   0.922  0.4419 -0.3370 -0.6952
 5543TIP3   OH238043   0.326   1.162  11.956  0.2532  0.2624 -0.6454
 5543TIP3    H138044   0.238   1.153  11.921  0.2506 -0.0362 -0.5712
 5543TIP3    H238045   0.383   1.147  11.880  0.2465 -0.2821 -0.5482
 5544TIP3   OH238046   3.155   1.878   2.955  0.1409 -0.0643  0.2185
 5544TIP3    H138047   3.225   1.940   2.935 -0.8534  1.2353  0.5906
 5544TIP3    H238048   3.075   1.924   2.931 -0.6809 -0.8756  1.2882
 5545TIP3   OH238049   5.425   6.668  13.409  0.1462  0.3789 -0.3197
 5545TIP3    H138050   5.440   6.591  13.464  4.0373  2.0399  1.3247
 5545TIP3    H238051   5.363   6.721  13.458  1.6646  0.6941  1.3659
 5546TIP3   OH238052   6.035   5.568  15.647  0.1860 -0.5040  0.0839
 5546TIP3    H138053   5.940   5.570  15.659  0.0553 -1.8428 -0.4721
 5546TIP3    H238054   6.046   5.543  15.555  1.0947  0.3213 -0.0445
 5547TIP3   OH238055   2.518   3.956   5.921 -0.1819 -0.1842  0.3032
 5547TIP3    H138056   2.473   4.022   5.868  0.0396 -0.0025  0.3364
 5547TIP3    H238057   2.471   3.875   5.904 -1.4482  0.2693  1.4721
 5548TIP3   OH238058   4.492   4.302   2.617 -0.1053 -0.1311  0.1989
 5548TIP3    H138059   4.442   4.371   2.574 -0.4660 -1.1791 -1.1341
 5548TIP3    H238060   4.466   4.222   2.572  0.9001 -1.0373  1.1719
 5549TIP3   OH238061   2.254   4.602  12.437  0.2034  0.2237 -0.5838
 5549TIP3    H138062   2.203   4.655  12.499  1.6733  0.9895  0.0211
 5549TIP3    H238063   2.282   4.526  12.489 -0.6326 -0.3968 -1.0247
 5550TIP3   OH238064   0.420   6.136  14.969  0.0326  0.4409  0.2458
 5550TIP3    H138065   0.367   6.178  14.902 -1.5103  0.0552  1.1511
 5550TIP3    H238066   0.394   6.180  15.050 -2.8331 -3.0118  1.5071
 5551TIP3   OH238067   1.497   0.868  15.215 -0.3571  0.4078  0.0638
 5551TIP3    H138068   1.453   0.923  15.149  1.1907  1.9424  0.2272
 5551TIP3    H238069   1.553   0.929  15.263 -0.2896 -0.9558  1.8096
 5552TIP3   OH238070   2.598   4.181   1.809 -0.2280  0.4720  0.0189
 5552TIP3    H138071   2.539   4.124   1.759 -0.5625 -1.4953  2.4326
 5552TIP3    H238072   2.542   4.219   1.876  0.8249  0.2794  1.0355
 5553TIP3   OH238073   0.674   0.951   3.429 -0.6091  0.3765  0.6076
 5553TIP3    H138074   0.611   0.910   3.370 -0.7447 -0.6533  1.4328
 5553TIP3    H238075   0.621   0.991   3.497 -0.4039 -0.5123  1.3162
 5554TIP3   OH238076   1.461   1.120  14.610  0.1362 -0.2200  0.5788
 5554TIP3    H138077   1.448   1.085  14.698  2.0135 -0.7725  0.6945
 5554TIP3    H238078   1.416   1.204  14.609 -2.0937 -1.3276  1.2150
 5555TIP3   OH238079   4.882   6.226  16.955  0.7366  0.0346  0.0515
 5555TIP3    H138080   4.881   6.307  17.007  1.3641  0.3780 -0.4611
 5555TIP3    H238081   4.958   6.178  16.987 -0.2098 -0.8474  1.0669
 5556TIP3   OH238082   0.255   2.992   4.489  0.6036  0.2312 -0.0789
 5556TIP3    H138083   0.263   2.974   4.583 -0.3176 -0.5044 -0.1294
 5556TIP3    H238084   0.285   3.083   4.480 -0.6804  0.8201  1.1545
 5557TIP3   OH238085   1.848   4.794   1.463  0.0246 -0.2828 -0.2311
 5557TIP3    H138086   1.859   4.840   1.546  0.5315  0.1613 -0.5328
 5557TIP3    H238087   1.841   4.702   1.486  0.5399 -0.1965  0.2717
 5558TIP3   OH238088   0.546   1.729  14.880  0.1191  0.3560  0.5312
 5558TIP3    H138089   0.575   1.638  14.880  1.2719  0.7031  0.9494
 5558TIP3    H238090   0.567   1.761  14.968  2.1714  1.7400 -0.3861
 5559TIP3   OH238091   3.920   3.225   3.380  0.0106 -0.2738  0.2268
 5559TIP3    H138092   3.979   3.292   3.414  0.0078 -0.1757  0.0413
 5559TIP3    H238093   3.962   3.142   3.403  1.2049 -0.2236 -1.5571
 5560TIP3   OH238094   6.627   3.916  17.121  0.5131 -0.5614 -0.1035
 5560TIP3    H138095   6.589   3.991  17.076 -1.1386 -0.9657  0.5478
 5560TIP3    H238096   6.666   3.953  17.200  1.1002 -0.2045 -0.5480
 5561TIP3   OH238097   4.878   1.557   2.187 -0.3395  0.2386  0.4879
 5561TIP3    H138098   4.946   1.614   2.151 -0.4904  1.4653  2.0238
 5561TIP3    H238099   4.882   1.573   2.281 -2.9875  0.6217  0.5898
 5562TIP3   OH238100   6.681   0.631  13.621 -0.4910  0.2133  0.2859
 5562TIP3    H138101   6.613   0.563  13.622  0.5421 -0.8539  0.5445
 5562TIP3    H238102   6.741   0.606  13.692  1.0457  0.1796 -0.9644
 5563TIP3   OH238103   0.471   1.450   6.139 -0.2174  0.0610  0.1054
 5563TIP3    H138104   0.512   1.368   6.166  1.8878  1.0270  0.0522
 5563TIP3    H238105   0.467   1.444   6.043 -0.4167 -0.1278  0.1248
 5564TIP3   OH238106   5.918   0.795   4.975  0.0402 -0.3134  0.1267
 5564TIP3    H138107   5.923   0.786   5.070  1.4334  1.6844  0.3142
 5564TIP3    H238108   5.839   0.847   4.960 -1.0990 -1.9927  0.0057
 5565TIP3   OH238109   0.912   5.965   3.604  0.2575 -0.0333  0.1195
 5565TIP3    H138110   0.908   5.988   3.696 -0.3220 -0.9525  0.3417
 5565TIP3    H238111   0.827   5.926   3.585 -0.2946  1.7171 -1.2560
 5566TIP3   OH238112   2.150   2.387   4.393  0.0655  0.3002  0.1120
 5566TIP3    H138113   2.096   2.311   4.371 -0.5265  0.8190 -0.2584
 5566TIP3    H238114   2.150   2.389   4.489 -0.9343  0.5322  0.1205
 5567TIP3   OH238115   2.812   5.352  14.274 -0.3886 -0.6428  0.6304
 5567TIP3    H138116   2.742   5.291  14.298 -0.6377 -0.1741  1.1413
 5567TIP3    H238117   2.766   5.427  14.236 -0.0843 -0.7896 -0.0271
 5568TIP3   OH238118   1.035   5.877   2.188  0.0077 -0.1417 -0.5568
 5568TIP3    H138119   1.108   5.939   2.186 -0.8759  1.0425  0.9968
 5568TIP3    H238120   1.070   5.801   2.234  0.0672  0.7956  1.0491
 5569TIP3   OH238121   6.374   1.285   2.246  0.3560  0.0778  0.2963
 5569TIP3    H138122   6.358   1.366   2.198  1.0347 -0.2861 -0.5722
 5569TIP3    H238123   6.309   1.285   2.316  0.4194  1.4324  0.3876
 5570TIP3   OH238124   2.216   2.738   2.638 -0.1134  0.6855 -0.7329
 5570TIP3    H138125   2.163   2.671   2.682  0.9773  0.9079  1.0389
 5570TIP3    H238126   2.152   2.798   2.599 -1.1849  0.7511  1.0086
 5571TIP3   OH238127   1.607   3.705  13.814  0.2888 -0.3764  0.4952
 5571TIP3    H138128   1.553   3.654  13.873 -2.4337 -0.5214 -1.8813
 5571TIP3    H238129   1.579   3.796  13.828  2.5896  0.1749  2.1954
 5572TIP3   OH238130   4.875   3.071   0.266 -0.2530  0.0045 -0.2073
 5572TIP3    H138131   4.846   3.154   0.302 -1.4246  0.3081 -1.7644
 5572TIP3    H238132   4.920   3.094   0.184 -0.5928 -0.8713 -0.6592
 5573TIP3   OH238133   3.275   4.067   4.609  0.1876  0.4922 -0.1918
 5573TIP3    H138134   3.190   4.043   4.646  0.0925  0.7066 -0.2725
 5573TIP3    H238135   3.258   4.145   4.557  0.8118  1.8496  1.5307
 5574TIP3   OH238136   2.666   2.397   3.377  0.2994  0.0228  0.0841
 5574TIP3    H138137   2.743   2.383   3.432 -0.2660  0.5989  1.0486
 5574TIP3    H238138   2.698   2.385   3.288  1.5466  0.4235  0.4601
 5575TIP3   OH238139   0.011   0.495  11.666  0.8486  0.0199 -0.0472
 5575TIP3    H138140  -0.011   0.563  11.730 -1.4814  0.4909 -1.2218
 5575TIP3    H238141  -0.032   0.416  11.699  1.2494 -0.2018 -0.0571
 5576TIP3   OH238142   6.727   0.651   3.509 -0.2947  1.0865 -0.2401
 5576TIP3    H138143   6.774   0.583   3.557  0.0483  1.8238  0.4820
 5576TIP3    H238144   6.637   0.648   3.544 -0.7976 -0.2528 -1.5480
 5577TIP3   OH238145   5.265   0.172   2.074  0.1111  0.0310  0.2604
 5577TIP3    H138146   5.283   0.189   1.982  2.1837 -0.9767  0.4134
 5577TIP3    H238147   5.248   0.078   2.078  1.0531 -0.1280  1.0077
 5578TIP3   OH238148   5.832   4.413  11.725  0.2938  0.3985  0.0372
 5578TIP3    H138149   5.814   4.319  11.727  1.6034  0.0494 -1.8775
 5578TIP3    H238150   5.843   4.434  11.632  3.8318  1.6316  0.5810
 5579TIP3   OH238151   6.179   0.481  12.048  0.0256  0.2821 -0.6030
 5579TIP3    H138152   6.192   0.564  12.095 -0.3178  0.4771 -0.8456
 5579TIP3    H238153   6.251   0.425  12.078 -1.1082 -0.1820  1.4209
 5580TIP3   OH238154   1.346   1.395   2.832 -0.0474 -0.1485 -0.3866
 5580TIP3    H138155   1.316   1.434   2.750  0.5717 -0.6384 -0.8572
 5580TIP3    H238156   1.381   1.309   2.806 -1.2666 -0.9833  0.5989
 5581TIP3   OH238157   1.210   4.794  15.626 -0.0632  0.2345  0.4269
 5581TIP3    H138158   1.302   4.768  15.621  0.2102  1.0833  0.8347
 5581TIP3    H238159   1.212   4.890  15.621 -1.0482  0.2053 -1.0467
 5582TIP3   OH238160   5.848   1.994  15.337 -0.3362  0.6427 -0.1177
 5582TIP3    H138161   5.939   1.983  15.311 -0.0245  0.9250  0.8098
 5582TIP3    H238162   5.798   1.979  15.257  0.6338  2.6336 -1.1580
 5583TIP3   OH238163   0.664   1.002   2.682 -0.4342 -0.7839 -0.1674
 5583TIP3    H138164   0.616   1.083   2.703 -1.9754 -1.4397 -1.0010
 5583TIP3    H238165   0.610   0.933   2.721 -0.2953 -1.5639 -1.3312
 5584TIP3   OH238166   3.209   5.968   5.314 -0.0841 -0.4001  0.4813
 5584TIP3    H138167   3.286   5.912   5.303  1.7079  2.0646 -0.6979
 5584TIP3    H238168   3.229   6.020   5.392 -1.7210 -1.3224  1.5787
 5585TIP3   OH238169   2.203   4.926  15.109 -0.2451  0.0928 -0.3287
 5585TIP3    H138170   2.288   4.910  15.068 -1.0005  2.0960 -2.9723
 5585TIP3    H238171   2.141   4.877  15.055 -0.9553  0.1425  0.4342
 5586TIP3   OH238172   6.376   5.914  16.131  0.0640 -0.2846  0.4685
 5586TIP3    H138173   6.297   5.879  16.171 -0.3705  0.3113  0.1606
 5586TIP3    H238174   6.441   5.916  16.201 -0.0737 -1.1545  0.6219
 5587TIP3   OH238175   1.305   3.597  11.462  0.1879  0.5003 -0.4021
 5587TIP3    H138176   1.295   3.543  11.540 -2.0813  0.0098 -0.9531
 5587TIP3    H238177   1.238   3.665  11.471  0.1844  0.6983 -1.6981
 5588TIP3   OH238178   0.795   1.972  17.052 -0.4107  0.2258  0.6775
 5588TIP3    H138179   0.843   1.965  16.969  2.2571  0.1609  2.1014
 5588TIP3    H238180   0.754   1.887  17.064  0.0848 -0.1276 -0.0564
 5589TIP3   OH238181   0.685   0.197   1.341  0.6990  0.5973 -0.0743
 5589TIP3    H138182   0.770   0.240   1.329  1.1038 -0.2863 -0.5393
 5589TIP3    H238183   0.666   0.207   1.434  2.8592 -1.8498  0.7773
 5590TIP3   OH238184   2.136   4.292   4.757  0.0035 -0.4524 -0.3482
 5590TIP3    H138185   2.149   4.209   4.804  1.3433 -0.0899 -0.0282
 5590TIP3    H238186   2.041   4.305   4.756 -0.0984 -0.7602  1.7781
 5591TIP3   OH238187   5.056   0.443   1.206 -0.1483  0.1096 -0.0264
 5591TIP3    H138188   5.136   0.453   1.155  0.7036 -1.6141  0.8775
 5591TIP3    H238189   5.074   0.485   1.290 -1.1019  1.8486 -0.6464
 5592TIP3   OH238190   2.478   2.311   4.022 -0.2132 -0.4053 -0.1075
 5592TIP3    H138191   2.428   2.229   4.025 -0.5437 -0.2354 -0.8599
 5592TIP3    H238192   2.419   2.377   4.058  0.2775 -0.5920  1.0993
 5593TIP3   OH238193   0.428   2.236   3.275 -0.1508  0.3050  0.2223
 5593TIP3    H138194   0.470   2.245   3.190 -1.3915  0.6415 -0.3748
 5593TIP3    H238195   0.495   2.195   3.330  0.7529  0.3043 -0.8344
 5594TIP3   OH238196   0.675   0.911  12.982  0.1230  0.2408 -0.3482
 5594TIP3    H138197   0.717   0.895  13.067 -0.4327  0.8114  0.0453
 5594TIP3    H238198   0.739   0.880  12.918 -0.3721 -2.4175  0.2926
 5595TIP3   OH238199   2.992   1.829   6.455  0.1122 -0.3157 -0.0350
 5595TIP3    H138200   3.023   1.886   6.526 -0.3941 -1.1688  0.9096
 5595TIP3    H238201   2.940   1.762   6.500 -0.4094 -0.7524 -1.2499
 5596TIP3   OH238202   2.221   5.403  16.819  0.1604 -0.1139 -0.2103
 5596TIP3    H138203   2.173   5.356  16.751  0.3543  0.2408 -0.5909
 5596TIP3    H238204   2.164   5.396  16.896 -0.1747 -0.3066 -0.4686
 5597TIP3   OH238205   2.061   6.394   3.867  0.6506  0.4505  0.0191
 5597TIP3    H138206   2.155   6.401   3.882  0.2652  0.8629  2.9467
 5597TIP3    H238207   2.029   6.484   3.873 -0.0883  0.1555  0.7809
 5598TIP3   OH238208   2.853   1.628   2.372 -0.1020  0.0058 -0.1596
 5598TIP3    H138209   2.825   1.701   2.427 -0.5333 -0.1529 -0.1652
 5598TIP3    H238210   2.822   1.550   2.418 -0.4253 -0.1302 -0.6019
 5599TIP3   OH238211   0.647   4.607  12.890  0.4068 -0.5750  0.3791
 5599TIP3    H138212   0.681   4.540  12.950  0.6653 -2.3771 -1.6642
 5599TIP3    H238213   0.553   4.608  12.907  0.4242 -1.3304  0.5685
 5600TIP3   OH238214   2.924   4.669  12.734  0.1308 -0.4298  0.1199
 5600TIP3    H138215   2.851   4.610  12.751  0.6827 -0.7976  1.3347
 5600TIP3    H238216   2.887   4.739  12.680 -1.6831  0.5209  2.3853
 5601TIP3   OH238217   6.725   4.745   1.559 -0.5353  0.4164 -0.4334
 5601TIP3    H138218   6.640   4.789   1.558 -1.5365 -1.3376  1.0342
 5601TIP3    H238219   6.744   4.728   1.467 -1.3669  1.5431 -0.8358
 5602TIP3   OH238220   5.382   6.585   5.791  0.6587 -0.1717  0.4231
 5602TIP3    H138221   5.454   6.567   5.852  0.2989 -0.3365  0.8007
 5602TIP3    H238222   5.346   6.668   5.821  2.2138  1.1974 -1.2209
 5603TIP3   OH238223   5.895   5.605  16.014  0.4804 -0.0279 -0.0748
 5603TIP3    H138224   5.986   5.580  15.996  0.4390 -0.0434 -0.2646
 5603TIP3    H238225   5.877   5.675  15.951  0.3528 -0.0426 -0.0538
 5604TIP3   OH238226   3.271   2.387  13.372 -0.1019 -0.1404  0.4327
 5604TIP3    H138227   3.268   2.305  13.421 -2.3163  0.9058  2.2595
 5604TIP3    H238228   3.188   2.389  13.324 -0.0179  0.9320  0.3029
 5605TIP3   OH238229   4.022   0.095   2.132 -0.0556  1.3828  0.5316
 5605TIP3    H138230   4.104   0.095   2.181  1.9391  2.4776 -2.5513
 5605TIP3    H238231   4.009   0.004   2.105 -0.0955  1.1461  1.3114
 5606TIP3   OH238232   2.597   1.104   3.815 -0.1371  0.1025 -0.6524
 5606TIP3    H138233   2.664   1.100   3.883  0.2589  1.7474 -0.8858
 5606TIP3    H238234   2.515   1.119   3.862 -0.1707 -0.7298 -0.4350
 5607TIP3   OH238235   2.412   2.181  11.300  0.2762  0.3634  0.1099
 5607TIP3    H138236   2.435   2.151  11.388  2.3269 -0.9301 -0.7671
 5607TIP3    H238237   2.355   2.256  11.314 -0.4793 -0.5496  2.5161
 5608TIP3   OH238238   4.029   1.458   3.531  0.7701  0.6445  0.0575
 5608TIP3    H138239   4.003   1.437   3.621 -0.8605  1.0416 -0.2890
 5608TIP3    H238240   4.063   1.548   3.537  2.9556 -0.1692  0.6586
 5609TIP3   OH238241   5.805   5.188   2.578 -0.4088  0.4129  0.4766
 5609TIP3    H138242   5.828   5.281   2.589 -0.6183  0.3130  2.0024
 5609TIP3    H238243   5.874   5.152   2.523  1.1529  0.9072  2.0243
 5610TIP3   OH238244   1.272   2.843  14.518 -0.4397 -0.2772  0.2748
 5610TIP3    H138245   1.362   2.872  14.534 -0.3715 -0.4383  0.1861
 5610TIP3    H238246   1.219   2.893  14.581 -0.6882  2.1144 -1.6550
 5611TIP3   OH238247   1.992   1.780  11.056  0.3173  0.1529 -0.1863
 5611TIP3    H138248   2.064   1.720  11.036  2.0116  2.6777 -2.2079
 5611TIP3    H238249   1.973   1.823  10.973 -2.4780  0.7482  0.6621
 5612TIP3   OH238250   2.089   2.078   2.795 -0.2170 -0.1999 -0.1021
 5612TIP3    H138251   2.022   2.128   2.748 -1.9205  1.7549  3.8776
 5612TIP3    H238252   2.046   1.995   2.816 -0.1917 -0.2750 -0.3525
 5613TIP3   OH238253   0.573   2.034  11.118 -0.9607  0.8072 -0.2849
 5613TIP3    H138254   0.589   2.086  11.197 -0.9275 -0.1624  0.3639
 5613TIP3    H238255   0.481   2.008  11.126 -0.5068 -0.7005  0.3125
 5614TIP3   OH238256   2.514   5.672   3.720 -0.3436 -0.7561  0.5858
 5614TIP3    H138257   2.490   5.679   3.627  2.3299 -2.2915 -0.3532
 5614TIP3    H238258   2.546   5.759   3.743  0.7053 -0.8236 -0.5263
 5615TIP3   OH238259   4.279   1.270  15.803  0.4430 -0.1387  0.1305
 5615TIP3    H138260   4.302   1.246  15.713  0.6948  0.2185  0.0976
 5615TIP3    H238261   4.231   1.194  15.837  0.6816 -0.4295 -0.1762
 5616TIP3   OH238262   3.440   2.858   1.565  0.1748 -0.4993 -0.5002
 5616TIP3    H138263   3.484   2.795   1.508 -1.1694 -1.3095 -0.6905
 5616TIP3    H238264   3.395   2.804   1.630  0.8051  0.3739  0.7094
 5617TIP3   OH238265   1.660   0.336  13.033 -0.1131 -0.2305  0.1262
 5617TIP3    H138266   1.588   0.362  13.091 -1.7031 -2.1793 -0.8642
 5617TIP3    H238267   1.627   0.354  12.945  0.5924 -1.2370 -0.3558
 5618TIP3   OH238268   2.532   6.616  12.478  0.8517 -0.1252  0.6757
 5618TIP3    H138269   2.615   6.572  12.497  1.8294  1.2548 -0.2568
 5618TIP3    H238270   2.493   6.564  12.408  0.8113 -0.9072  1.2684
 5619TIP3   OH238271   5.870   4.958  12.375  0.0424 -0.7091  0.2292
 5619TIP3    H138272   5.827   4.952  12.289 -1.4290 -0.1492  0.8818
 5619TIP3    H238273   5.850   5.047  12.405  1.0584 -0.6946  0.8939
 5620TIP3   OH238274   0.722   4.209  11.602  0.8822 -0.0871  0.0083
 5620TIP3    H138275   0.725   4.221  11.697  0.9912 -2.0699  0.3152
 5620TIP3    H238276   0.632   4.182  11.584  1.2400 -1.1933 -0.2062
 5621TIP3   OH238277   4.877   4.289   6.308  0.4904  0.2786  0.1539
 5621TIP3    H138278   4.855   4.266   6.398  0.3104  2.4109  0.7233
 5621TIP3    H238279   4.792   4.294   6.263  0.5693 -0.6305 -0.1171
 5622TIP3   OH238280   0.191   1.127   3.825 -0.2627  0.3682 -0.4340
 5622TIP3    H138281   0.244   1.206   3.820  1.0469 -0.4489 -0.0477
 5622TIP3    H238282   0.244   1.066   3.876 -0.6164 -1.2278 -1.8693
 5623TIP3   OH238283   3.943   6.102  15.384  0.0415 -0.4122 -0.1944
 5623TIP3    H138284   3.909   6.090  15.473  0.6608 -1.1874 -0.0518
 5623TIP3    H238285   3.978   6.016  15.361  1.5391  0.2570 -0.4886
 5624TIP3   OH238286   0.148   1.756   2.510  0.1108  0.0450  0.0045
 5624TIP3    H138287   0.077   1.781   2.569  0.1528  0.0135  0.0676
 5624TIP3    H238288   0.219   1.728   2.567  1.0163  2.2180  0.0387
 5625TIP3   OH238289   0.852   5.552  14.945  0.1944 -0.0128  0.3383
 5625TIP3    H138290   0.774   5.500  14.928  0.7352 -0.3969 -1.1436
 5625TIP3    H238291   0.887   5.517  15.026 -2.6671  2.0435  2.6974
 5626TIP3   OH238292   2.406   2.027  17.010 -0.9062 -0.5130 -0.0021
 5626TIP3    H138293   2.455   1.957  17.053 -1.8432 -2.4379 -1.8320
 5626TIP3    H238294   2.351   1.981  16.947 -3.2705  1.7254  0.2633
 5627TIP3   OH238295   6.711   0.720  14.585 -0.4650  0.2643  0.7117
 5627TIP3    H138296   6.702   0.694  14.493  0.0941  2.7086 -0.1348
 5627TIP3    H238297   6.799   0.692  14.609 -0.2790  0.3806  0.1909
 5628TIP3   OH238298   3.935   3.577   1.458  0.1373  0.1901 -0.3057
 5628TIP3    H138299   3.853   3.581   1.408  1.0732 -0.6764 -1.9690
 5628TIP3    H238300   3.989   3.646   1.419  1.2590 -1.1806 -1.2446
 5629TIP3   OH238301   5.396   4.509   0.300  0.0468  0.2282 -0.7176
 5629TIP3    H138302   5.429   4.500   0.389 -1.3081  1.1891 -0.0813
 5629TIP3    H238303   5.470   4.542   0.249  1.0040 -0.8975 -0.1005
 5630TIP3   OH238304   5.280   6.138   0.456  0.9789  0.9735 -0.5041
 5630TIP3    H138305   5.197   6.185   0.465  0.3242 -0.4979  2.6952
 5630TIP3    H238306   5.259   6.064   0.400 -0.5581 -0.4467  1.7441
 5631TIP3   OH238307   4.997   5.661  12.877 -0.2897 -0.5561 -1.0119
 5631TIP3    H138308   4.916   5.612  12.891 -0.5813  0.4632  1.2578
 5631TIP3    H238309   4.967   5.751  12.861  0.3240 -0.6598 -3.1303
 5632TIP3   OH238310   1.010   2.052   5.233 -0.0710  0.3617  0.7853
 5632TIP3    H138311   1.058   2.120   5.280 -0.6580  1.0059  0.4772
 5632TIP3    H238312   0.925   2.092   5.214 -0.2932 -0.3355  0.2780
 5633TIP3   OH238313   2.746   4.940  15.951 -0.4446  0.6524  0.1370
 5633TIP3    H138314   2.838   4.931  15.976 -0.6147  1.5008  1.1450
 5633TIP3    H238315   2.732   5.034  15.944 -1.4110  0.5717  0.7354
 5634TIP3   OH238316   4.534   2.186  12.276  0.1690 -0.0684 -0.2912
 5634TIP3    H138317   4.525   2.167  12.183  0.8252 -0.1902 -0.3343
 5634TIP3    H238318   4.579   2.270  12.280 -0.5284  0.3024 -0.0829
 5635TIP3   OH238319   6.218   6.670   2.368  0.0122 -0.0221 -0.5988
 5635TIP3    H138320   6.256   6.752   2.337 -0.3233 -0.0510 -1.0917
 5635TIP3    H238321   6.208   6.617   2.290 -0.6011 -0.1921 -0.4097
 5636TIP3   OH238322   2.122   1.512   4.996  0.1620 -0.0149  0.4343
 5636TIP3    H138323   2.158   1.591   5.038 -0.7652  0.3449  0.5767
 5636TIP3    H238324   2.029   1.531   4.987 -0.1913 -1.3614  1.0556
 5637TIP3   OH238325   4.040   3.037   2.110  0.0708  0.1292 -0.7557
 5637TIP3    H138326   3.985   3.115   2.120 -0.7748 -0.6474  0.9739
 5637TIP3    H238327   4.006   2.994   2.031  1.0140  1.8261 -2.1544
 5638TIP3   OH238328   1.049   2.758  13.046  0.7649  0.4064 -0.1520
 5638TIP3    H138329   1.033   2.805  12.964 -0.3170 -0.7104 -0.5964
 5638TIP3    H238330   0.992   2.682  13.042  2.3001 -0.8371  0.6753
 5639TIP3   OH238331   5.426   6.176   2.582 -0.1264  0.4647 -0.0159
 5639TIP3    H138332   5.512   6.134   2.571 -0.7060 -0.7578 -0.1135
 5639TIP3    H238333   5.406   6.166   2.675 -1.0696 -1.1994 -0.3449
 5640TIP3   OH238334   6.425   4.789  14.807  0.6810 -0.4161 -0.0305
 5640TIP3    H138335   6.515   4.803  14.837  0.5492  2.0285 -0.6379
 5640TIP3    H238336   6.429   4.801  14.712 -0.2555 -0.6111 -0.1087
 5641TIP3   OH238337   4.600   6.136  13.019 -0.3327 -0.0699  0.1225
 5641TIP3    H138338   4.688   6.113  13.049 -0.6313  0.8327  1.7768
 5641TIP3    H238339   4.547   6.059  13.042  0.1522 -1.0342 -1.7679
 5642TIP3   OH238340   1.696   3.626  17.049  0.5764  0.1214 -0.5753
 5642TIP3    H138341   1.638   3.636  17.125 -0.2679  2.9616 -1.4841
 5642TIP3    H238342   1.782   3.609  17.087 -0.3652 -1.9070  0.8742
 5643TIP3   OH238343   6.692   3.940  15.867  0.1009 -0.3446  0.6288
 5643TIP3    H138344   6.723   4.024  15.901  0.3557  0.7991 -2.1958
 5643TIP3    H238345   6.598   3.950  15.859  0.2202  0.0269 -0.4940
 5644TIP3   OH238346   4.695   5.513  11.549  0.5513 -0.2258 -0.1454
 5644TIP3    H138347   4.691   5.433  11.601 -1.1669  0.0740  0.2424
 5644TIP3    H238348   4.680   5.584  11.612  3.0692  0.5424 -0.2952
 5645TIP3   OH238349   0.266   3.841  14.610 -0.1445  0.0681 -0.4816
 5645TIP3    H138350   0.289   3.907  14.676  1.0383 -1.4599  0.7086
 5645TIP3    H238351   0.171   3.848  14.603 -0.2679  0.5159  1.1537
 5646TIP3   OH238352   4.106   5.113   3.911  0.1778 -0.3788 -0.1203
 5646TIP3    H138353   4.182   5.145   3.862  0.1796  1.6545  1.1045
 5646TIP3    H238354   4.030   5.152   3.868  0.0728  0.1840  0.5580
 5647TIP3   OH238355   3.034   6.198   5.286 -0.2044  0.6616 -0.4192
 5647TIP3    H138356   3.080   6.203   5.369  0.6048 -1.9001 -0.5944
 5647TIP3    H238357   3.068   6.117   5.246 -1.2735  1.3081 -2.7888
 5648TIP3   OH238358   0.265   1.754   5.319  0.1700 -0.6627 -0.3253
 5648TIP3    H138359   0.245   1.718   5.405  4.3950  1.1095  1.6977
 5648TIP3    H238360   0.218   1.838   5.317  0.4673 -0.4619  0.5413
 5649TIP3   OH238361   0.350   5.677  17.148 -0.3564 -0.6457 -0.6414
 5649TIP3    H138362   0.418   5.716  17.093  0.0799 -2.7224 -1.7216
 5649TIP3    H238363   0.328   5.595  17.103 -0.7089 -1.9814  1.7753
 5650TIP3   OH238364   2.121   2.196  12.208 -1.0458  0.7628  0.1973
 5650TIP3    H138365   2.208   2.170  12.177 -0.5659  0.9552  1.3150
 5650TIP3    H238366   2.127   2.189  12.303 -2.2555  0.8092  0.2877
 5651TIP3   OH238367   0.377   0.867  10.793  0.3174 -0.4587  0.2493
 5651TIP3    H138368   0.432   0.918  10.734  0.0353  0.0868  0.4453
 5651TIP3    H238369   0.288   0.901  10.779  0.0801 -1.1023  0.1705
 5652TIP3   OH238370   0.047   4.851   4.155 -0.5021 -0.8532 -0.2834
 5652TIP3    H138371   0.071   4.930   4.205  1.5945 -0.8757 -1.1621
 5652TIP3    H238372   0.125   4.796   4.158 -1.2327 -1.9965 -1.3960
 5653TIP3   OH238373   0.319   1.443  16.150  0.0399 -0.3875  0.1607
 5653TIP3    H138374   0.336   1.360  16.196  0.1252 -0.3000  0.2876
 5653TIP3    H238375   0.376   1.439  16.074  0.3273 -0.2815  0.3653
 5654TIP3   OH238376   0.308   3.936   3.104 -0.1604 -0.2084  0.1746
 5654TIP3    H138377   0.285   3.934   3.197  0.5738  0.2079  0.3757
 5654TIP3    H238378   0.380   3.999   3.098 -0.2902 -0.1211 -0.6992
 5655TIP3   OH238379   1.620   1.431   3.865  0.1341 -0.0037  0.0494
 5655TIP3    H138380   1.667   1.379   3.799  0.1915 -0.2353  0.2715
 5655TIP3    H238381   1.581   1.503   3.815 -0.5066 -0.6301 -0.3718
 5656TIP3   OH238382   0.487   1.237  12.579  0.2316  0.1636  0.2912
 5656TIP3    H138383   0.556   1.284  12.625  0.6051 -2.1600  2.3500
 5656TIP3    H238384   0.408   1.288  12.597  0.7336  0.4895  1.7768
 5657TIP3   OH238385   4.567   0.521  11.525 -0.2223 -0.0813 -0.0294
 5657TIP3    H138386   4.611   0.444  11.491  0.6140 -0.2102  1.2572
 5657TIP3    H238387   4.500   0.542  11.460 -2.3781 -3.5038  0.8080
 5658TIP3   OH238388   3.886   0.645  15.132  0.2262  0.6362  0.2192
 5658TIP3    H138389   3.920   0.713  15.190  0.0465  0.3124  0.7109
 5658TIP3    H238390   3.834   0.589  15.189 -0.6978  0.8147 -0.4275
 5659TIP3   OH238391   6.222   3.601   6.048  0.4581 -0.0114  0.0634
 5659TIP3    H138392   6.130   3.575   6.054 -0.2544  2.4399  0.8641
 5659TIP3    H238393   6.239   3.606   5.954 -0.1668 -0.5859 -0.0930
 5660TIP3   OH238394   6.795   6.418   4.632  0.6194  0.2138  0.5040
 5660TIP3    H138395   6.890   6.419   4.642  0.6436  3.0620  0.8413
 5660TIP3    H238396   6.768   6.507   4.654 -2.0977 -0.3906 -0.0415
 5661TIP3   OH238397   1.011   3.562  13.430  0.0687  0.0573  0.1652
 5661TIP3    H138398   1.042   3.652  13.419  0.1090  0.0928  0.5513
 5661TIP3    H238399   1.086   3.515  13.466 -0.1425  0.0078  0.5437
 5662TIP3   OH238400   4.693   3.954   2.053 -0.6563  0.5680  0.4549
 5662TIP3    H138401   4.736   3.872   2.026 -1.0591  0.1030  1.2145
 5662TIP3    H238402   4.607   3.951   2.011  0.1357  1.6980 -1.4208
 5663TIP3   OH238403   4.448   3.990   3.397 -0.3820  0.1861  0.1408
 5663TIP3    H138404   4.469   4.074   3.439  1.1143  0.7693 -1.6316
 5663TIP3    H238405   4.514   3.929   3.430 -1.9689 -0.6084  2.0850
 5664TIP3   OH238406   0.024   1.805   0.679  0.7891  0.1070 -0.1023
 5664TIP3    H138407   0.104   1.787   0.728 -0.2865 -2.8470  0.7878
 5664TIP3    H238408   0.002   1.722   0.638 -1.7214  0.8800 -0.5051
 5665TIP3   OH238409   5.234   4.363  12.081 -0.1520 -0.8298  0.6158
 5665TIP3    H138410   5.214   4.346  12.173 -1.0539 -1.5672  0.2941
 5665TIP3    H238411   5.150   4.353  12.036  0.5305 -1.8395 -0.4756
 5666TIP3   OH238412   6.068   1.210  11.327  0.3406  0.2977  0.5980
 5666TIP3    H138413   6.132   1.152  11.367 -0.3102  0.3878  1.8481
 5666TIP3    H238414   6.115   1.292  11.311  0.3574  0.6706  2.3390
 5667TIP3   OH238415   1.333   5.452   0.180 -0.0086  0.1034  0.3660
 5667TIP3    H138416   1.419   5.458   0.138 -0.6135 -1.0550 -1.1432
 5667TIP3    H238417   1.287   5.383   0.132 -0.7630 -1.3767  2.9943
 5668TIP3   OH238418   3.911   4.121   0.987  0.4974 -0.0447 -0.3861
 5668TIP3    H138419   3.943   4.108   0.898  0.0934  1.3531 -0.7560
 5668TIP3    H238420   3.951   4.050   1.038 -0.4210 -1.7484 -1.9396
 5669TIP3   OH238421   5.920   1.101   3.765  0.4219 -0.3629 -0.2126
 5669TIP3    H138422   5.932   1.115   3.671 -0.6922 -1.3918 -0.5383
 5669TIP3    H238423   5.999   1.136   3.805  1.0342 -0.1468 -1.5579
 5670TIP3   OH238424   3.126   2.286  13.146 -0.1138 -0.6808 -0.6241
 5670TIP3    H138425   3.041   2.244  13.162 -0.6731  0.9545  1.2274
 5670TIP3    H238426   3.121   2.316  13.056 -0.8796 -1.9179 -1.0257
 5671TIP3   OH238427   5.441   4.687  15.018  0.8991  0.6168 -0.2581
 5671TIP3    H138428   5.387   4.731  15.084 -1.0884  2.6140 -2.9335
 5671TIP3    H238429   5.516   4.745  15.005  0.5383  0.9868 -0.7274
 5672TIP3   OH238430   0.752   4.756  16.473 -0.4147 -0.4506 -0.6402
 5672TIP3    H138431   0.751   4.801  16.388  1.1412  0.7418 -0.0801
 5672TIP3    H238432   0.675   4.790  16.519  0.3360  1.1905 -0.5062
 5673TIP3   OH238433   3.914   2.523   4.490  0.2581  0.2728 -0.1662
 5673TIP3    H138434   3.993   2.493   4.446  0.0482 -1.8615  0.7648
 5673TIP3    H238435   3.927   2.499   4.582 -1.0974  0.6551  0.1553
 5674TIP3   OH238436   2.932   1.057  16.743  0.1975 -0.1530  0.1320
 5674TIP3    H138437   2.997   1.056  16.813  0.4343  1.1387 -0.0479
 5674TIP3    H238438   2.952   1.135  16.692 -0.9035 -0.2505 -0.4901
 5675TIP3   OH238439   2.315   1.013  11.391 -0.7008 -0.4197 -0.0460
 5675TIP3    H138440   2.374   0.996  11.465  0.0686  0.2529 -0.4782
 5675TIP3    H238441   2.250   0.944  11.395  0.4087 -1.4948  0.1817
 5676TIP3   OH238442   5.157   3.850   4.891  0.0719 -0.1585  0.5489
 5676TIP3    H138443   5.124   3.874   4.978  0.8196 -0.0665  0.8124
 5676TIP3    H238444   5.227   3.913   4.874  0.0168 -0.2606 -0.0640
 5677TIP3   OH238445   5.399   3.835   5.640  0.4407  0.8866 -0.3940
 5677TIP3    H138446   5.396   3.781   5.719  0.5993  1.4941  0.0320
 5677TIP3    H238447   5.414   3.923   5.672 -0.5070  1.2961 -1.0397
 5678TIP3   OH238448   3.705   2.855  12.741 -0.5465  0.0496 -0.4178
 5678TIP3    H138449   3.640   2.910  12.696 -0.8824  0.0397  0.0501
 5678TIP3    H238450   3.789   2.896  12.720 -0.7433  0.3579 -0.6144
 5679TIP3   OH238451   3.968   1.631   1.091 -0.5857 -0.1812  0.6485
 5679TIP3    H138452   3.968   1.578   1.011 -0.3563  0.0613  0.4818
 5679TIP3    H238453   3.876   1.646   1.110 -0.7234  2.5620 -1.5012
 5680TIP3   OH238454   0.277   1.865  15.563  0.0469  0.0478  0.3691
 5680TIP3    H138455   0.301   1.785  15.611  0.7830  1.1415  1.9209
 5680TIP3    H238456   0.345   1.874  15.497 -1.1404 -1.6441 -1.1754
 5681TIP3   OH238457   3.914   1.773   3.295 -0.2174 -0.6191  0.0904
 5681TIP3    H138458   3.911   1.826   3.375  0.9429  1.2811 -1.0556
 5681TIP3    H238459   3.879   1.688   3.322 -1.2603  0.3998  2.2521
 5682TIP3   OH238460   5.121   5.636  14.385 -0.1240  0.4206  0.0548
 5682TIP3    H138461   5.026   5.628  14.377 -0.0848 -1.1782  0.7869
 5682TIP3    H238462   5.135   5.721  14.426 -1.5656 -1.0071  3.9710
 5683TIP3   OH238463   3.576   2.320  12.903 -0.4148  0.4326  0.0181
 5683TIP3    H138464   3.532   2.235  12.893 -0.7817  0.7701 -1.4739
 5683TIP3    H238465   3.530   2.363  12.975 -1.9762  0.4219 -0.9430
 5684TIP3   OH238466   3.560   0.901   2.637 -0.2634 -0.4854 -0.6857
 5684TIP3    H138467   3.514   0.822   2.664 -0.2217 -1.2145 -2.6083
 5684TIP3    H238468   3.649   0.872   2.617  0.0901  0.2751 -0.2646
 5685TIP3   OH238469   1.199   6.628   2.153  0.2096 -0.1991 -0.4278
 5685TIP3    H138470   1.272   6.567   2.145  2.1506  2.1442 -1.7967
 5685TIP3    H238471   1.194   6.647   2.247  1.5669 -0.1905 -0.3363
 5686TIP3   OH238472   4.620   5.182   2.183  0.9465 -0.5108  0.1938
 5686TIP3    H138473   4.695   5.220   2.137  0.6787  0.5934  0.6397
 5686TIP3    H238474   4.658   5.130   2.253  1.3107  0.6781  0.9120
 5687TIP3   OH238475   5.338   4.521  11.487  0.0126 -0.2607 -0.0927
 5687TIP3    H138476   5.380   4.448  11.532  1.1030  1.7843  2.5056
 5687TIP3    H238477   5.408   4.584  11.471 -0.8290  0.1662 -2.5255
 5688TIP3   OH238478   0.907   1.492   1.004  0.8443 -0.4415  0.0229
 5688TIP3    H138479   0.943   1.449   0.926 -2.2052 -0.7755 -1.3503
 5688TIP3    H238480   0.821   1.525   0.976  0.6563  1.6054  2.6075
 5689TIP3   OH238481   5.131   5.619   2.631  0.3935  0.0596 -0.2181
 5689TIP3    H138482   5.171   5.683   2.690  0.3590  1.8000 -1.9804
 5689TIP3    H238483   5.037   5.640   2.634  0.1801 -0.9012  0.2912
 5690TIP3   OH238484   1.453   3.190  14.798 -0.1327  0.4973 -0.5798
 5690TIP3    H138485   1.548   3.180  14.790 -0.0853  0.1747  0.3203
 5690TIP3    H238486   1.424   3.109  14.840 -0.8685  0.4040 -1.2411
 5691TIP3   OH238487   3.735   1.322  13.631 -0.7292  0.5335 -0.3609
 5691TIP3    H138488   3.650   1.293  13.664 -1.4757  1.4658 -1.4544
 5691TIP3    H238489   3.746   1.410  13.666  0.8058 -0.3267  1.5752
 5692TIP3   OH238490   1.939   6.589   4.434 -0.8652 -0.1113 -0.2997
 5692TIP3    H138491   1.929   6.577   4.528 -1.1534  0.9152 -0.1870
 5692TIP3    H238492   1.929   6.501   4.397  1.6260 -0.9205  0.7941
 5693TIP3   OH238493   6.183   2.935  16.958 -0.5119 -0.5730  0.2533
 5693TIP3    H138494   6.233   2.855  16.974 -0.0386 -0.3218  0.0569
 5693TIP3    H238495   6.182   2.979  17.043  1.8948  0.6986 -0.2765
 5694TIP3   OH238496   3.261   2.419   3.596 -0.0151  0.1995 -0.3674
 5694TIP3    H138497   3.223   2.505   3.612  1.4004  0.5273  1.6998
 5694TIP3    H238498   3.255   2.375   3.681  0.0085 -1.4619 -1.1931
 5695TIP3   OH238499   0.043   0.194   1.102 -0.0696  0.1287  0.1919
 5695TIP3    H138500   0.014   0.133   1.034  2.7522 -0.3127 -0.7665
 5695TIP3    H238501   0.138   0.197   1.091  0.0937  2.9948  1.6936
 5696TIP3   OH238502   4.489   5.427   0.206  0.3873  0.1764 -0.5663
 5696TIP3    H138503   4.480   5.432   0.111  1.0272  0.1293 -0.6341
 5696TIP3    H238504   4.581   5.448   0.222  1.0250 -2.5768 -0.1754
 5697TIP3   OH238505   4.769   6.253   4.741  0.2277  0.0940  0.7411
 5697TIP3    H138506   4.689   6.211   4.774  0.2448  0.1634  0.8710
 5697TIP3    H238507   4.795   6.199   4.667 -0.0243  0.1558  0.6034
 5698TIP3   OH238508   6.486   0.911  12.812  0.1422  0.3091 -0.1533
 5698TIP3    H138509   6.398   0.941  12.835 -0.5257 -1.3846 -0.3150
 5698TIP3    H238510   6.532   0.906  12.896 -0.4259 -0.2535  0.1385
 5699TIP3   OH238511   3.465   3.520   0.976  0.9051 -0.3015  0.1535
 5699TIP3    H138512   3.558   3.528   0.958  0.8110 -3.4162 -2.5703
 5699TIP3    H238513   3.442   3.602   1.021  4.4504  1.5684 -1.0731
 5700TIP3   OH238514   5.328   2.886   4.946 -0.2819 -0.2154 -0.1657
 5700TIP3    H138515   5.250   2.938   4.968 -1.0201 -1.6192  0.6147
 5700TIP3    H238516   5.354   2.844   5.028  1.2400  0.1101 -0.4418
 5701TIP3   OH238517   6.405   2.024  14.175 -0.2205 -0.1309  0.2988
 5701TIP3    H138518   6.409   2.119  14.164  2.7660 -0.1455  0.2794
 5701TIP3    H238519   6.363   2.011  14.260 -2.6373  1.0472 -0.6335
 5702TIP3   OH238520   5.336   1.443   0.542 -0.8582 -0.1731  0.0858
 5702TIP3    H138521   5.393   1.392   0.599 -1.5602 -1.9214 -0.6925
 5702TIP3    H238522   5.395   1.484   0.479 -0.3682 -1.0039  0.0001
 5703TIP3   OH238523   6.623   2.788  17.084 -0.5958  0.4411  0.5960
 5703TIP3    H138524   6.583   2.847  17.021 -0.6171  2.2181  2.1857
 5703TIP3    H238525   6.717   2.794  17.066 -0.7263 -0.5112 -0.4514
 5704TIP3   OH238526   0.791   1.079  11.627 -0.0674  0.0784 -0.1152
 5704TIP3    H138527   0.775   1.173  11.625  1.7672  0.5998  2.6919
 5704TIP3    H238528   0.868   1.066  11.573  1.5229  0.7983  1.8269
 5705TIP3   OH238529   4.577   4.881  16.785  0.9887 -0.0582  0.2876
 5705TIP3    H138530   4.540   4.943  16.848 -1.4072 -0.1193 -0.9317
 5705TIP3    H238531   4.550   4.795  16.818  0.4676 -0.1440 -0.3552
 5706TIP3   OH238532   4.264   3.428   5.622  0.1169  0.0777  0.0898
 5706TIP3    H138533   4.203   3.359   5.597 -0.4110 -0.0538  1.6097
 5706TIP3    H238534   4.268   3.423   5.718  1.2049  1.2001  0.1357
 5707TIP3   OH238535   4.118   1.996  11.977  0.1671  0.0588 -0.0082
 5707TIP3    H138536   4.106   1.981  11.883  0.8286 -0.1019 -0.0753
 5707TIP3    H238537   4.066   2.074  11.996  0.4719  0.4257 -0.6262
 5708TIP3   OH238538   4.119   3.860  16.506  0.0736  0.2805  0.2881
 5708TIP3    H138539   4.122   3.857  16.602  0.2774 -1.1103  0.2606
 5708TIP3    H238540   4.048   3.800  16.482 -0.2619  0.9431 -0.4323
 5709TIP3   OH238541   3.969   4.224   3.616 -0.0236 -0.0562  0.2474
 5709TIP3    H138542   3.975   4.304   3.668  2.5089  0.3857 -0.6101
 5709TIP3    H238543   4.058   4.209   3.584 -0.9090 -1.9407 -1.5502
 5710TIP3   OH238544   4.258   1.248   2.580  0.7217 -0.3903 -0.2518
 5710TIP3    H138545   4.253   1.314   2.510 -0.8484 -0.0192  0.1736
 5710TIP3    H238546   4.288   1.296   2.657  2.2204 -0.7521 -0.5821
 5711TIP3   OH238547   2.125   2.919   1.755  0.2145  0.2168 -0.5602
 5711TIP3    H138548   2.154   2.846   1.700 -1.5373 -1.6895  0.9147
 5711TIP3    H238549   2.187   2.921   1.827  0.2066  0.1083 -0.5499
 5712TIP3   OH238550   1.121   2.665  14.781 -0.4453  0.2688 -0.2546
 5712TIP3    H138551   1.094   2.633  14.867  1.0386 -0.3620  0.0234
 5712TIP3    H238552   1.106   2.760  14.784  0.8989  0.4751  1.2525
 5713TIP3   OH238553   1.463   5.173  11.631  0.4073  0.0243 -0.2545
 5713TIP3    H138554   1.540   5.119  11.650 -0.1606 -0.7009  0.0252
 5713TIP3    H238555   1.389   5.115  11.644 -0.2398  0.9502  0.3208
 5714TIP3   OH238556   6.715   0.206   6.688  0.0400  0.1849  0.1971
 5714TIP3    H138557   6.770   0.260   6.744 -0.0082  0.6468 -0.1945
 5714TIP3    H238558   6.675   0.268   6.626 -2.5103  0.2002  1.6859
 5715TIP3   OH238559   0.320   6.237   2.629  0.0214  0.1737 -0.1282
 5715TIP3    H138560   0.244   6.190   2.663  0.9840 -1.4477 -0.1126
 5715TIP3    H238561   0.312   6.232   2.534  0.9448 -1.5144 -0.1551
 5716TIP3   OH238562   4.345   0.685   3.998 -0.5061 -0.8775  0.0310
 5716TIP3    H138563   4.328   0.778   4.013 -1.6138 -1.0384 -0.1033
 5716TIP3    H238564   4.420   0.684   3.939 -2.0375  0.0568 -2.1187
 5717TIP3   OH238565   1.591   0.390   1.059 -0.1719  0.2985 -0.3201
 5717TIP3    H138566   1.674   0.343   1.053 -1.5574 -2.2317 -1.0068
 5717TIP3    H238567   1.553   0.383   0.972 -2.8493 -2.1972  0.8807
 5718TIP3   OH238568   5.342   5.695   0.774  0.0839  0.6075 -0.2687
 5718TIP3    H138569   5.282   5.621   0.762  0.2279  0.4166  0.1494
 5718TIP3    H238570   5.297   5.752   0.837  1.6179 -1.0438  2.5576
 5719TIP3   OH238571   1.009   0.517   0.134  0.2829 -0.1870  0.0773
 5719TIP3    H138572   1.007   0.516   0.038  0.3415 -1.5387  0.0713
 5719TIP3    H238573   0.936   0.461   0.160  0.0702  0.4259  0.8422
 5720TIP3   OH238574   2.692   3.341   1.814  0.3632  0.1946  0.9857
 5720TIP3    H138575   2.765   3.319   1.871  2.3508  2.9185 -0.3019
 5720TIP3    H238576   2.725   3.325   1.725 -0.5122  1.6693  0.3672
 5721TIP3   OH238577   5.149   5.512  11.000  0.1413  0.2224  0.4613
 5721TIP3    H138578   5.210   5.583  11.018 -1.2897  1.3352  1.1480
 5721TIP3    H238579   5.078   5.525  11.063 -2.1376  0.6328 -2.0312
 5722TIP3   OH238580   2.886   5.286   4.800  0.0416  0.3360  0.4052
 5722TIP3    H138581   2.880   5.355   4.865  1.6967 -2.4051  3.7465
 5722TIP3    H238582   2.809   5.231   4.817 -0.2898  0.3142 -1.0102
 5723TIP3   OH238583   5.273   6.278   0.794 -0.1906  0.0898 -0.1112
 5723TIP3    H138584   5.332   6.242   0.728  0.0934  1.0939 -0.4279
 5723TIP3    H238585   5.321   6.351   0.833 -0.4927 -0.2538  0.9685
 5724TIP3   OH238586   5.837   0.672  15.085  0.2194  0.1425  0.1797
 5724TIP3    H138587   5.866   0.666  14.995 -0.5040  1.4405 -0.1762
 5724TIP3    H238588   5.860   0.761  15.112 -0.1885  0.0015  1.0455
 5725TIP3   OH238589   1.545   2.864  13.252  0.4244  0.0530  0.0008
 5725TIP3    H138590   1.471   2.822  13.209  0.5699 -0.2791  0.0688
 5725TIP3    H238591   1.507   2.912  13.325  0.5252 -2.6998  2.0504
 5726TIP3   OH238592   0.563   2.510  14.120 -0.1667  0.4489  0.0135
 5726TIP3    H138593   0.657   2.498  14.106 -0.4440 -0.6409 -1.1230
 5726TIP3    H238594   0.557   2.563  14.199  1.4259  1.4284 -0.4648
 5727TIP3   OH238595   1.809   2.002   4.386 -0.0769 -0.2206 -0.4945
 5727TIP3    H138596   1.842   2.033   4.302 -0.2365  0.3226 -0.3641
 5727TIP3    H238597   1.729   1.954   4.364  0.4461 -1.0002 -0.7479
 5728TIP3   OH238598   1.954   4.483  14.277  0.0868  0.6996  0.3891
 5728TIP3    H138599   1.990   4.540  14.210  2.8447  0.7244  1.7774
 5728TIP3    H238600   1.993   4.397  14.259  0.6270  0.6409  1.7613
 5729TIP3   OH238601   3.973   4.403   1.057  0.6027  0.3185 -0.2060
 5729TIP3    H138602   3.921   4.323   1.064 -0.1103  0.7507 -0.5105
 5729TIP3    H238603   3.989   4.412   0.963 -0.0751  1.0051 -0.2617
 5730TIP3   OH238604   5.540   1.774  14.881  0.0652  0.2350  0.5734
 5730TIP3    H138605   5.570   1.863  14.899  1.3893 -0.1157  0.2129
 5730TIP3    H238606   5.602   1.718  14.928  0.0006 -0.5116 -0.2102
 5731TIP3   OH238607   5.796   5.216   5.223  0.3771 -0.2661 -0.1297
 5731TIP3    H138608   5.811   5.152   5.293 -0.4709  0.3371  0.6275
 5731TIP3    H238609   5.852   5.187   5.152  0.1406 -1.7641  0.2619
 5732TIP3   OH238610   1.336   1.187   4.717 -0.1015 -0.2289  0.1029
 5732TIP3    H138611   1.320   1.233   4.799 -3.1454 -1.6651  0.4596
 5732TIP3    H238612   1.263   1.125   4.709  0.8497 -1.1693 -2.9903
 5733TIP3   OH238613   2.092   2.200   0.376  0.3342  0.3901 -0.2641
 5733TIP3    H138614   2.090   2.107   0.397  1.4322  0.6124  0.9982
 5733TIP3    H238615   2.001   2.223   0.357 -0.4563 -0.3633  2.1979
 5734TIP3   OH238616   2.226   5.626  15.694 -0.0971 -0.5667  0.2781
 5734TIP3    H138617   2.144   5.623  15.645 -0.5930  0.7838  0.9861
 5734TIP3    H238618   2.288   5.578  15.640 -1.4286 -1.9216 -0.1105
 5735TIP3   OH238619   0.502   5.930  13.674 -0.5339 -0.1861 -0.7190
 5735TIP3    H138620   0.580   5.984  13.682 -1.6370  1.4311 -0.3905
 5735TIP3    H238621   0.526   5.846  13.714  0.6470  0.6927  0.4957
 5736TIP3   OH238622   4.586   0.084   3.874  0.6880  0.1256  0.1607
 5736TIP3    H138623   4.647   0.123   3.936 -0.4796  1.0672  0.7476
 5736TIP3    H238624   4.504   0.130   3.888  0.1218 -0.3290 -1.4033
 5737TIP3   OH238625   0.294   0.236  13.511  0.3056  0.5647 -0.0399
 5737TIP3    H138626   0.310   0.277  13.427 -0.1863  0.2144 -0.3044
 5737TIP3    H238627   0.382   0.227  13.550  0.5789  0.2808 -0.7191
 5738TIP3   OH238628   0.185   1.377  12.441 -0.3386  0.5322  0.0741
 5738TIP3    H138629   0.242   1.407  12.512  0.2924  0.9667 -0.6032
 5738TIP3    H238630   0.155   1.291  12.469 -1.6718  1.4885  1.7779
 5739TIP3   OH238631   3.730   1.567  11.423 -0.3363  0.1226 -0.9247
 5739TIP3    H138632   3.728   1.653  11.464 -2.5328  0.6100 -1.9199
 5739TIP3    H238633   3.740   1.585  11.329 -1.1404 -0.6752 -1.1802
 5740TIP3   OH238634   6.755   5.818  16.739  0.2995  0.1908 -0.0618
 5740TIP3    H138635   6.682   5.787  16.685  1.4282 -0.5832 -1.2074
 5740TIP3    H238636   6.713   5.856  16.816 -1.2707 -1.2275 -0.1514
 5741TIP3   OH238637   4.495   3.215  15.184  0.1283 -0.6279 -0.2115
 5741TIP3    H138638   4.477   3.187  15.273  0.6680  1.0045  0.4407
 5741TIP3    H238639   4.418   3.266  15.159  1.8144  2.8177  1.0619
 5742TIP3   OH238640   3.252   1.558  11.145  0.1720 -0.5301 -0.2392
 5742TIP3    H138641   3.213   1.625  11.200  0.8523 -0.0875 -0.2747
 5742TIP3    H238642   3.347   1.568  11.159  0.4099  0.0830 -2.0330
 5743TIP3   OH238643   0.354   5.231   2.735 -0.3879  0.5305  0.2221
 5743TIP3    H138644   0.447   5.252   2.726 -0.1780 -0.0486  0.8483
 5743TIP3    H238645   0.345   5.145   2.694 -0.4003  0.0687  1.1579
 5744TIP3   OH238646   0.811   5.988  15.373 -0.1568 -0.4359  0.4458
 5744TIP3    H138647   0.900   5.954  15.382  0.6000  1.7116  1.7472
 5744TIP3    H238648   0.816   6.049  15.299  0.2132  1.6756  2.0919
 5745TIP3   OH238649   3.083   0.724  16.904 -0.1163  0.0511  0.5636
 5745TIP3    H138650   3.010   0.692  16.852  0.4467 -0.9215  0.3424
 5745TIP3    H238651   3.156   0.731  16.843  0.7876 -1.9320  1.3262
 5746TIP3   OH238652   4.006   1.945  13.331 -0.0663 -0.3199 -0.1067
 5746TIP3    H138653   4.031   2.023  13.381  0.5080 -0.3180 -0.3901
 5746TIP3    H238654   4.023   1.968  13.240 -1.5732 -0.1515 -0.3571
 5747TIP3   OH238655   1.121   2.450  17.088  0.8511 -0.3752  0.4737
 5747TIP3    H138656   1.152   2.389  17.020  1.5324 -0.2862  0.6970
 5747TIP3    H238657   1.148   2.536  17.056  2.0058 -0.4116  1.2853
 5748TIP3   OH238658   1.739   6.604  14.014 -0.2804 -0.1415 -0.3491
 5748TIP3    H138659   1.829   6.610  13.982  0.5609 -1.1493  1.5971
 5748TIP3    H238660   1.716   6.512  14.002 -1.5070  0.3343 -1.8657
 5749TIP3   OH238661   6.602   1.362   1.606  0.2759 -0.1351 -0.1457
 5749TIP3    H138662   6.566   1.342   1.693 -0.6896 -1.0395 -0.7364
 5749TIP3    H238663   6.697   1.359   1.619  0.1433 -0.7344  0.7863
 5750TIP3   OH238664   6.261   1.981  11.761  0.5947  0.6055  0.1142
 5750TIP3    H138665   6.208   2.043  11.812 -0.3630 -1.0910  1.2731
 5750TIP3    H238666   6.351   2.011  11.772  0.1228  2.1386  0.1068
 5751TIP3   OH238667   1.223   0.991  12.074 -0.5185  0.1683 -0.0851
 5751TIP3    H138668   1.161   0.925  12.104  0.4750 -1.9750 -2.3839
 5751TIP3    H238669   1.191   1.016  11.987 -0.0397  1.6601  0.1254
 5752TIP3   OH238670   3.154   0.022   3.091  0.5820 -0.0574  0.0557
 5752TIP3    H138671   3.207   0.100   3.108 -0.0419  0.5142 -0.5372
 5752TIP3    H238672   3.096   0.016   3.168  1.8845 -1.0461  1.0069
 5753TIP3   OH238673   3.545   5.847   3.498 -0.2504  0.6784  0.1120
 5753TIP3    H138674   3.476   5.862   3.433 -0.5466  2.1447  0.7335
 5753TIP3    H238675   3.626   5.859   3.450 -0.4486  0.8184 -0.1908
 5754TIP3   OH238676   5.653   6.439  16.342 -0.0267 -0.0639 -0.5682
 5754TIP3    H138677   5.669   6.532  16.358 -2.4997  0.4314 -0.5253
 5754TIP3    H238678   5.644   6.432  16.247  0.0834 -0.2406 -0.5659
 5755TIP3   OH238679   1.497   0.833  13.992 -0.4763 -0.5701 -0.2614
 5755TIP3    H138680   1.550   0.904  13.954 -0.6343  0.2235  0.9541
 5755TIP3    H238681   1.451   0.796  13.917 -0.0203  0.3035 -1.0020
 5756TIP3   OH238682   2.199   4.379   2.169 -0.0167 -0.9147  0.1423
 5756TIP3    H138683   2.105   4.392   2.182  0.0176  0.2969 -0.6773
 5756TIP3    H238684   2.236   4.376   2.257 -0.8325 -1.5099  0.4745
 5757TIP3   OH238685   2.179   5.752  16.938  0.2237 -0.1625  0.0411
 5757TIP3    H138686   2.232   5.729  16.861 -0.3960 -0.6525 -0.2494
 5757TIP3    H238687   2.094   5.711  16.921  0.2268 -0.6882  1.2182
 5758TIP3   OH238688   4.579   4.186   1.004  0.1203 -0.1840  0.1425
 5758TIP3    H138689   4.527   4.266   1.003  0.2796 -0.0342  1.4461
 5758TIP3    H238690   4.560   4.147   1.089  1.1218 -0.7962  0.0993
 5759TIP3   OH238691   0.440   3.668   4.317  0.4725  0.1423 -0.6801
 5759TIP3    H138692   0.456   3.728   4.245 -0.6544  0.0520 -1.0380
 5759TIP3    H238693   0.523   3.623   4.330  1.1436  1.2941 -0.8485
 5760TIP3   OH238694   4.201   3.124  16.268 -0.3626  0.1329 -0.2134
 5760TIP3    H138695   4.280   3.086  16.305 -0.2191  2.0351  1.6126
 5760TIP3    H238696   4.169   3.184  16.335 -3.2899 -0.4379 -0.9340
 5761TIP3   OH238697   5.585   0.720  16.192  0.0823 -0.1223 -0.3550
 5761TIP3    H138698   5.610   0.705  16.283  2.1871 -0.8717 -0.9790
 5761TIP3    H238699   5.562   0.634  16.158  1.1803 -0.1828 -1.0018
 5762TIP3   OH238700   2.308   1.981   1.586 -0.1405 -0.4863  0.0695
 5762TIP3    H138701   2.363   2.057   1.567 -0.1242 -0.3415  0.6726
 5762TIP3    H238702   2.229   2.017   1.625 -0.0518 -0.7876  0.5349
 5763TIP3   OH238703   3.892   0.272  13.570 -0.1227  0.5342 -0.5213
 5763TIP3    H138704   3.869   0.191  13.525 -0.7221  0.6964 -0.5186
 5763TIP3    H238705   3.872   0.341  13.506 -2.4251  0.8883  0.4556
 5764TIP3   OH238706   5.641   4.075  14.493 -0.7368  0.1096  1.0106
 5764TIP3    H138707   5.587   4.145  14.455  1.3172  1.6051  0.6871
 5764TIP3    H238708   5.580   4.002  14.505 -1.9685  0.1537 -3.3135
 5765TIP3   OH238709   4.267   1.767   0.745  0.9150  0.2483  0.5385
 5765TIP3    H138710   4.215   1.704   0.696  2.1231 -0.1670 -0.2532
 5765TIP3    H238711   4.227   1.768   0.833 -1.7313  1.5286 -0.5651
 5766TIP3   OH238712   0.551   5.822   4.014 -0.2459  0.0353  0.2083
 5766TIP3    H138713   0.540   5.913   4.043  0.5079 -0.1265  1.0542
 5766TIP3    H238714   0.550   5.827   3.919 -1.0545  0.8182  0.2382
 5767TIP3   OH238715   0.783   2.951   2.287 -0.1709 -0.1417 -0.5683
 5767TIP3    H138716   0.751   2.892   2.220 -1.3399 -0.7042  0.4377
 5767TIP3    H238717   0.704   2.989   2.325  0.5166  1.3983 -0.5806
 5768TIP3   OH238718   4.221   3.019  15.266 -0.0263 -0.5620  0.1497
 5768TIP3    H138719   4.310   3.024  15.300  1.9735  2.7129 -4.4800
 5768TIP3    H238720   4.215   2.933  15.225  1.2737 -0.5793 -0.0341
 5769TIP3   OH238721   2.859   3.754  10.621 -0.2690  0.1090  0.5154
 5769TIP3    H138722   2.769   3.765  10.588 -0.6363 -0.2354  1.3864
 5769TIP3    H238723   2.881   3.664  10.600  0.0174  0.2940 -0.0143
 5770TIP3   OH238724   1.327   5.519  14.480 -0.3304  0.4613  0.4621
 5770TIP3    H138725   1.332   5.613  14.461 -0.2259  1.0142  2.9112
 5770TIP3    H238726   1.416   5.487  14.466 -0.4424  0.6010 -0.7465
 5771TIP3   OH238727   3.573   6.655  10.916  0.4920  0.0457 -0.1061
 5771TIP3    H138728   3.664   6.648  10.945  0.6561 -0.2326 -0.6723
 5771TIP3    H238729   3.578   6.700  10.832  0.2202 -1.0993 -0.7468
 5772TIP3   OH238730   1.934   5.827  13.375  0.6386 -0.1189  0.1412
 5772TIP3    H138731   1.949   5.836  13.280  2.0583 -1.0683  0.2252
 5772TIP3    H238732   1.924   5.916  13.407  1.2357  0.2959 -0.7713
 5773TIP3   OH238733   0.067   4.049  13.667  0.1043  0.1835  0.3799
 5773TIP3    H138734  -0.012   4.099  13.650  0.6697  0.5186 -1.5047
 5773TIP3    H238735   0.092   4.014  13.581  0.6239 -1.9985  1.3630
 5774TIP3   OH238736   2.856   6.418  15.071 -0.1640 -0.4046 -0.3336
 5774TIP3    H138737   2.900   6.447  14.991  0.4847 -1.6343 -0.4458
 5774TIP3    H238738   2.912   6.348  15.106 -0.6669 -0.1955  0.9582
 5775TIP3   OH238739   3.002   1.859  14.840  0.0404 -0.2528  0.4604
 5775TIP3    H138740   3.059   1.783  14.848 -0.0190 -0.2536  0.9220
 5775TIP3    H238741   3.058   1.927  14.802 -0.3729 -1.0157 -1.6211
 5776TIP3   OH238742   3.334   3.809   4.890  0.1407  1.1141  0.4742
 5776TIP3    H138743   3.263   3.797   4.953  0.1947  2.8645  0.9256
 5776TIP3    H238744   3.413   3.816   4.944  0.2846  1.8728  0.1765
 5777TIP3   OH238745   5.818   2.441  14.502 -0.7249  0.5027 -0.7244
 5777TIP3    H138746   5.829   2.495  14.424  1.4247  2.2103  0.6542
 5777TIP3    H238747   5.811   2.352  14.469  0.1437  1.1724 -2.8686
 5778TIP3   OH238748   6.181   3.931  14.760 -0.0904  0.2427 -0.6808
 5778TIP3    H138749   6.149   3.989  14.829 -0.4217  0.2725 -0.8568
 5778TIP3    H238750   6.140   3.847  14.778  0.9548 -0.1441 -0.0026
 5779TIP3   OH238751   1.602   5.743   0.206  0.5456 -0.2757  0.0586
 5779TIP3    H138752   1.579   5.660   0.163  0.5886  0.0050 -0.5285
 5779TIP3    H238753   1.521   5.771   0.249  0.1510  0.0056 -0.8207
 5780TIP3   OH238754   0.754   2.296  14.618  0.1397  0.4037  0.3846
 5780TIP3    H138755   0.798   2.336  14.543  0.9496  0.4467  0.8670
 5780TIP3    H238756   0.821   2.293  14.686 -0.7767  1.0253  1.3479
 5781TIP3   OH238757   1.598   1.862  11.201  0.3241  0.2690 -0.2269
 5781TIP3    H138758   1.625   1.900  11.285 -1.2872  1.4796 -0.2270
 5781TIP3    H238759   1.660   1.898  11.138  1.0895 -0.0653  0.3145
 5782TIP3   OH238760   3.497   3.363  16.691 -0.2370  0.5352  0.5205
 5782TIP3    H138761   3.579   3.373  16.643  0.4189 -0.5937  1.3443
 5782TIP3    H238762   3.482   3.448  16.732 -0.1789  1.1472 -0.6971
 5783TIP3   OH238763   1.032   1.589   5.122 -0.2500 -0.5488  0.1659
 5783TIP3    H138764   0.997   1.678   5.117 -0.8269 -0.7782  0.0349
 5783TIP3    H238765   0.980   1.546   5.190 -2.0071 -1.6577 -1.7670
 5784TIP3   OH238766   0.249   0.986  11.510  0.1811 -0.0891 -0.1094
 5784TIP3    H138767   0.209   1.064  11.471 -0.0469 -0.3214 -0.3422
 5784TIP3    H238768   0.177   0.942  11.555  0.2900 -0.2189 -0.0622
 5785TIP3   OH238769   0.165   3.468  16.244 -0.0962  0.6393 -0.1705
 5785TIP3    H138770   0.227   3.536  16.270  2.0331 -0.7145 -1.4264
 5785TIP3    H238771   0.130   3.435  16.327  1.1763  1.1762  0.6116
 5786TIP3   OH238772   2.421   4.563   5.836  0.3190 -0.0472  0.1752
 5786TIP3    H138773   2.460   4.599   5.756 -4.0285 -0.0976 -2.2796
 5786TIP3    H238774   2.401   4.640   5.889  1.6478  0.1291  0.4446
 5787TIP3   OH238775   3.850   2.059   5.124  0.1603 -0.0334 -0.0956
 5787TIP3    H138776   3.793   2.071   5.048  1.2591 -3.1120 -1.5650
 5787TIP3    H238777   3.926   2.113   5.106 -0.6735  1.2405  0.0951
 5788TIP3   OH238778   3.976   4.630  11.996 -0.2558  0.1252  0.4657
 5788TIP3    H138779   3.917   4.643  11.921  0.9331  1.1963 -0.3362
 5788TIP3    H238780   3.968   4.711  12.047  0.2737  0.1458  0.5195
 5789TIP3   OH238781   6.651   0.627   3.214 -0.5613 -0.4528 -0.3923
 5789TIP3    H138782   6.646   0.723   3.220 -1.8020 -0.5508  0.5764
 5789TIP3    H238783   6.668   0.598   3.304 -2.0008 -1.2033 -0.3226
 5790TIP3   OH238784   2.590   3.347  15.615  0.0694  0.2618 -0.1191
 5790TIP3    H138785   2.572   3.282  15.547 -0.2399 -0.9022  1.0202
 5790TIP3    H238786   2.526   3.328  15.684  1.1910  0.5521  1.0485
 5791TIP3   OH238787   3.985   3.608   1.939  0.1526 -0.3106  0.2966
 5791TIP3    H138788   3.984   3.593   2.034  1.3299  1.0747  0.5661
 5791TIP3    H238789   3.901   3.650   1.921 -0.0286 -0.4688  0.7457
 5792TIP3   OH238790   4.012   0.958   4.040 -0.4400 -0.0439 -0.3306
 5792TIP3    H138791   3.950   1.022   4.005 -0.9208  0.0066  0.5556
 5792TIP3    H238792   3.964   0.875   4.036 -0.8906  0.1186  1.0752
 5793TIP3   OH238793   6.418   2.437   1.304 -0.1040 -0.2505  0.0596
 5793TIP3    H138794   6.498   2.417   1.351  0.1979 -0.6402 -0.6007
 5793TIP3    H238795   6.448   2.478   1.222 -0.6445  1.4493  0.6558
 5794TIP3   OH238796   5.815   1.193  15.485 -0.0517 -0.1953 -0.1463
 5794TIP3    H138797   5.731   1.146  15.483  0.6712 -1.5079 -1.6274
 5794TIP3    H238798   5.811   1.245  15.565 -2.8466  0.8478 -0.8312
 5795TIP3   OH238799   0.601   4.666  14.488  0.2196 -0.3513  0.0610
 5795TIP3    H138800   0.639   4.684  14.574  0.2520 -0.1343  0.0031
 5795TIP3    H238801   0.607   4.571  14.479 -1.2802 -0.5714  1.0070
 5796TIP3   OH238802   4.679   3.409  16.869  0.0308 -0.4145 -0.1466
 5796TIP3    H138803   4.748   3.392  16.932 -1.1395 -0.7901  1.0809
 5796TIP3    H238804   4.696   3.346  16.798  0.2909 -1.3095  0.6794
 5797TIP3   OH238805   2.950   5.599   5.903  0.8666 -0.4616  0.2698
 5797TIP3    H138806   2.957   5.688   5.936 -1.5534  0.3115 -1.0613
 5797TIP3    H238807   2.985   5.603   5.814 -0.7899 -0.3778 -0.4156
 5798TIP3   OH238808   5.956   2.708   2.214  0.3723  0.2331  0.3387
 5798TIP3    H138809   6.049   2.696   2.196  0.3829 -1.5095  1.3662
 5798TIP3    H238810   5.920   2.742   2.132  1.6933 -0.2131 -0.4570
 5799TIP3   OH238811   0.653   6.653   6.455  0.2519  1.0111  0.8800
 5799TIP3    H138812   0.606   6.736   6.446  0.5683  1.1963  0.9249
 5799TIP3    H238813   0.593   6.597   6.505 -1.1699  0.2372 -1.5403
 5800TIP3   OH238814   2.453   4.087  14.030  0.6574  0.4445 -0.2983
 5800TIP3    H138815   2.461   4.136  13.948  1.2931  0.3358 -0.3039
 5800TIP3    H238816   2.361   4.062  14.034 -0.5787  4.4078  1.2875
 5801TIP3   OH238817   4.406   1.708   4.328  0.3068 -0.8734 -0.1999
 5801TIP3    H138818   4.427   1.799   4.309  0.9326 -1.0528 -0.3822
 5801TIP3    H238819   4.468   1.682   4.395 -0.0332 -1.0935  0.0314
 5802TIP3   OH238820   4.574   6.750  16.262  0.6093  0.0801  0.6059
 5802TIP3    H138821   4.605   6.828  16.217  1.2771 -0.4953  0.0268
 5802TIP3    H238822   4.511   6.710  16.202  0.8707 -0.2463  0.5432
 5803TIP3   OH238823   3.441   0.228  15.996 -0.3041 -0.2440  0.3016
 5803TIP3    H138824   3.353   0.224  15.959 -0.4645  2.8697  0.0543
 5803TIP3    H238825   3.445   0.156  16.059 -2.6047 -1.1370 -0.5029
 5804TIP3   OH238826   5.915   5.751  12.117 -0.2341  0.3214 -0.5091
 5804TIP3    H138827   5.868   5.772  12.036 -0.7882  1.7145  0.1315
 5804TIP3    H238828   5.973   5.825  12.131 -1.0938  0.7413  1.0330
 5805TIP3   OH238829   2.121   1.005   3.517  0.6320 -0.4160  0.3351
 5805TIP3    H138830   2.211   0.973   3.516 -0.6213 -4.5148  1.0910
 5805TIP3    H238831   2.080   0.961   3.442 -1.4816 -1.4393  2.0059
 5806TIP3   OH238832   4.980   2.984  11.725  0.4463  0.1954  0.2732
 5806TIP3    H138833   5.043   3.050  11.754 -0.1782  1.5242 -1.2354
 5806TIP3    H238834   4.963   3.005  11.633 -0.4463 -1.5530 -0.0176
 5807TIP3   OH238835   2.903   1.253   2.136  0.1780 -0.0827 -0.0639
 5807TIP3    H138836   2.815   1.258   2.174  0.6837 -0.1136  1.1472
 5807TIP3    H238837   2.940   1.340   2.150  0.3157 -0.0356 -0.6746
 5808TIP3   OH238838   3.218   2.088  14.826 -0.2575 -0.3347  0.2861
 5808TIP3    H138839   3.188   2.097  14.736  0.0804 -0.4549  0.1584
 5808TIP3    H238840   3.175   2.159  14.874  2.1192  1.9003 -0.6212
 5809TIP3   OH238841   0.157   4.193   2.818 -0.3122 -0.4505  0.2599
 5809TIP3    H138842   0.162   4.229   2.907  1.0765  1.8063 -0.6493
 5809TIP3    H238843   0.065   4.172   2.807 -1.1679  2.2787  1.1802
 5810TIP3   OH238844   2.983   5.385  14.529  0.4809  0.0851  0.3134
 5810TIP3    H138845   2.928   5.393  14.451  0.1988  0.9674  0.5915
 5810TIP3    H238846   3.054   5.327  14.502  0.7704  0.9252 -0.8221
 5811TIP3   OH238847   5.169   0.542  15.457 -0.1027 -0.0223 -0.0969
 5811TIP3    H138848   5.227   0.616  15.476 -0.1788  1.1058 -3.6194
 5811TIP3    H238849   5.225   0.478  15.413 -0.9192 -0.2270 -0.8462
 5812TIP3   OH238850   5.758   3.527  12.335 -0.1991 -0.0364 -0.4199
 5812TIP3    H138851   5.763   3.497  12.244  0.1128 -0.1092 -0.3800
 5812TIP3    H238852   5.830   3.590  12.344  0.4841 -0.8767  0.0915
 5813TIP3   OH238853   3.243   6.354  12.008  0.0045 -0.2050  0.3370
 5813TIP3    H138854   3.314   6.353  11.943 -0.0113  1.3715  0.2612
 5813TIP3    H238855   3.163   6.360  11.956  0.0458  2.4175  0.4537
 5814TIP3   OH238856   1.722   5.035  11.894 -0.2352  0.1625  0.2587
 5814TIP3    H138857   1.749   4.946  11.918  1.4286  0.6720  0.4092
 5814TIP3    H238858   1.766   5.051  11.811  0.1651  1.1415  0.6480
 5815TIP3   OH238859   4.977   3.611   3.995  0.0615 -0.1797 -0.2434
 5815TIP3    H138860   4.948   3.660   3.918 -0.8065  0.1454  0.2793
 5815TIP3    H238861   4.906   3.621   4.058  0.6376 -0.6806  0.5011
 5816TIP3   OH238862   5.855   6.633  10.703  0.1706 -0.2289 -0.2005
 5816TIP3    H138863   5.842   6.563  10.767 -1.5902 -0.7823 -1.0944
 5816TIP3    H238864   5.781   6.625  10.643  1.1780  0.9428 -1.6941
 5817TIP3   OH238865   2.437   4.880   2.494  0.5885  0.0022 -0.4584
 5817TIP3    H138866   2.477   4.811   2.442  2.1118  0.0850  0.5320
 5817TIP3    H238867   2.379   4.926   2.433  1.2718 -0.7444 -1.7165
 5818TIP3   OH238868   6.524   2.664   2.842 -0.2765 -0.3989  0.1458
 5818TIP3    H138869   6.492   2.704   2.923 -0.8802 -1.8826  0.6843
 5818TIP3    H238870   6.492   2.574   2.846  1.8964 -1.2624 -0.5064
 5819TIP3   OH238871   5.025   6.320  13.173  0.4445 -0.2238 -0.1703
 5819TIP3    H138872   5.024   6.415  13.165 -2.4018 -0.1784 -0.2252
 5819TIP3    H238873   5.004   6.304  13.265 -1.7325 -0.7475 -0.7131
 5820TIP3   OH238874   4.978   5.029  11.072  0.4648  0.2848  0.1654
 5820TIP3    H138875   5.026   4.982  11.140  0.2483  1.0304  0.8433
 5820TIP3    H238876   5.032   5.106  11.053  1.2842 -0.6581 -1.5951
 5821TIP3   OH238877   0.770   3.595  12.286 -0.4606 -0.6697 -0.2385
 5821TIP3    H138878   0.862   3.599  12.259 -0.0514 -2.8149  0.6437
 5821TIP3    H238879   0.768   3.639  12.371 -0.4235  0.0123 -0.5777
 5822TIP3   OH238880   5.021   0.902  10.890 -0.0595  0.4099 -0.2843
 5822TIP3    H138881   4.981   0.819  10.913  0.2981  0.1312 -0.6659
 5822TIP3    H238882   4.985   0.964  10.954 -1.0882  0.1746 -0.6115
 5823TIP3   OH238883   2.348   4.903  17.100 -0.6546  0.4599  0.4557
 5823TIP3    H138884   2.280   4.851  17.141  0.3543 -1.3957 -0.1266
 5823TIP3    H238885   2.380   4.848  17.028  1.3330  1.3457  0.6105
 5824TIP3   OH238886   4.260   0.436  14.757  0.0730 -0.4437  0.0363
 5824TIP3    H138887   4.323   0.497  14.717  1.1357  0.4485  2.8642
 5824TIP3    H238888   4.175   0.480  14.746  0.6443  0.9140  0.7503
 5825TIP3   OH238889   2.526   3.993  15.703 -0.3242 -0.7974 -0.5360
 5825TIP3    H138890   2.525   4.080  15.743 -2.2395 -0.9241 -0.2447
 5825TIP3    H238891   2.437   3.961  15.712  0.3075 -2.7482 -0.7844
 5826TIP3   OH238892   1.353   3.983  11.445  0.7802 -0.0533 -0.2345
 5826TIP3    H138893   1.322   4.072  11.460  2.0395  0.1244  1.5601
 5826TIP3    H238894   1.444   3.983  11.474  0.9716 -1.7917 -0.7026
 5827TIP3   OH238895   3.275   3.238  10.611 -0.4231 -0.6453 -0.2500
 5827TIP3    H138896   3.264   3.204  10.523 -1.4864 -1.0919  0.0332
 5827TIP3    H238897   3.186   3.261  10.639 -0.2594 -1.4478  1.0591
 5828TIP3   OH238898   2.384   1.931  10.835  0.4667 -0.1192 -0.1155
 5828TIP3    H138899   2.344   1.900  10.916  0.5357  0.9579  0.3531
 5828TIP3    H238900   2.477   1.937  10.854  0.3839  0.9366  0.0118
 5829TIP3   OH238901   0.134   4.344   5.920 -0.0889 -0.1570 -0.6231
 5829TIP3    H138902   0.109   4.255   5.945 -1.9221  0.1909 -1.0575
 5829TIP3    H238903   0.188   4.375   5.992 -1.1164 -0.9212  0.5081
 5830TIP3   OH238904   1.275   6.221   4.892  0.2198 -0.2373  0.0896
 5830TIP3    H138905   1.225   6.301   4.877 -0.0220  0.2426  2.8417
 5830TIP3    H238906   1.209   6.155   4.912  0.4718 -0.9680 -1.3461
 5831TIP3   OH238907   4.635   1.240  11.191 -0.0642 -0.0455 -0.0891
 5831TIP3    H138908   4.691   1.300  11.142  1.1778 -1.0582  0.0309
 5831TIP3    H238909   4.549   1.248  11.149  1.1339 -1.5516 -3.1376
 5832TIP3   OH238910   3.337   6.105  11.028 -0.6061 -0.5655  0.2272
 5832TIP3    H138911   3.262   6.163  11.041 -0.9452 -1.1411  0.8887
 5832TIP3    H238912   3.376   6.095  11.114  0.4157 -0.0374 -0.1671
 5833TIP3   OH238913   2.011   2.901  15.598 -0.0556  0.3337  0.4533
 5833TIP3    H138914   2.047   2.833  15.541 -0.9966 -0.0961  0.3477
 5833TIP3    H238915   2.045   2.881  15.685 -0.2591 -0.2227  0.4051
 5834TIP3   OH238916   5.640   2.105  11.811 -0.0909 -0.3900 -0.0356
 5834TIP3    H138917   5.691   2.028  11.836 -1.0506 -1.1805 -0.4834
 5834TIP3    H238918   5.555   2.071  11.784 -0.6747  0.8651  0.1393
 5835TIP3   OH238919   0.216   4.555   3.258 -0.1057 -0.2269  0.3168
 5835TIP3    H138920   0.218   4.611   3.181 -1.2673 -0.0425  0.4068
 5835TIP3    H238921   0.219   4.615   3.332 -0.5658 -0.3133  0.4105
 5836TIP3   OH238922   5.284   0.400   0.390 -0.5061 -0.0107  0.0054
 5836TIP3    H138923   5.252   0.489   0.402  0.8604  0.6137 -0.8138
 5836TIP3    H238924   5.205   0.350   0.367 -1.2437  1.0295  0.1856
 5837TIP3   OH238925   6.210   0.798   1.185 -0.5997  0.0086 -0.0638
 5837TIP3    H138926   6.194   0.736   1.115  0.2467  0.5470 -0.7532
 5837TIP3    H238927   6.146   0.868   1.171 -0.6969 -0.0784 -0.0538
 5838TIP3   OH238928   5.273   4.945   2.884  0.4133 -0.1603 -0.1148
 5838TIP3    H138929   5.282   4.859   2.926  1.1195  0.7770  1.8002
 5838TIP3    H238930   5.360   4.984   2.892 -0.5424  1.8181  1.7057
 5839TIP3   OH238931   6.502   4.243   6.415 -0.4463 -0.4518  0.0471
 5839TIP3    H138932   6.414   4.268   6.385 -1.1588 -1.1368  1.4641
 5839TIP3    H238933   6.496   4.242   6.510  1.0949 -0.5908  0.1716
 5840TIP3   OH238934   3.842   5.396   4.661 -0.4106 -0.6011 -0.1529
 5840TIP3    H138935   3.781   5.465   4.635  1.0740  0.2845 -1.5668
 5840TIP3    H238936   3.874   5.423   4.747 -2.2223 -1.2755  0.7771
 5841TIP3   OH238937   5.480   3.524   2.550 -0.6089 -0.2924  0.2934
 5841TIP3    H138938   5.454   3.604   2.504  2.4334 -0.2034 -1.5119
 5841TIP3    H238939   5.516   3.554   2.633 -0.3657  0.1478  0.0330
 5842TIP3   OH238940   5.925   3.505  16.191 -0.1271 -0.4705  0.4825
 5842TIP3    H138941   5.927   3.422  16.238  0.0157 -0.2873  0.8065
 5842TIP3    H238942   5.997   3.555  16.229  1.7740 -1.3193 -1.7742
 5843TIP3   OH238943   3.578   2.268   5.469  0.5817 -0.4938  0.3462
 5843TIP3    H138944   3.483   2.273   5.480  0.4487  2.9011 -1.2016
 5843TIP3    H238945   3.614   2.310   5.547  0.6854  0.5475 -0.2552
 5844TIP3   OH238946   2.176   3.277  14.891  0.2537  0.4140  0.0062
 5844TIP3    H138947   2.262   3.266  14.850  1.3149  1.8255  1.7298
 5844TIP3    H238948   2.114   3.257  14.821  1.9646 -0.3313 -1.3778
 5845TIP3   OH238949   0.026   3.261   0.495  0.3044 -0.3151 -0.2503
 5845TIP3    H138950  -0.036   3.331   0.517  1.1223 -0.3752  2.6606
 5845TIP3    H238951  -0.012   3.219   0.418 -3.0439 -0.0857  1.1089
 5846TIP3   OH238952   4.636   0.467  11.985 -0.3113 -0.2035  0.7480
 5846TIP3    H138953   4.588   0.469  12.068 -0.5109 -1.0501  0.6679
 5846TIP3    H238954   4.654   0.559  11.965 -0.0682 -0.0062  1.8335
 5847TIP3   OH238955   3.798   2.289   6.049  1.0860  0.4770 -0.0163
 5847TIP3    H138956   3.861   2.323   6.113  0.7956 -1.5004  1.4397
 5847TIP3    H238957   3.718   2.277   6.100  0.8492 -1.1774 -0.7144
 5848TIP3   OH238958   0.879   5.879   5.507  0.1108  0.1581 -0.5415
 5848TIP3    H138959   0.870   5.883   5.603  0.8814 -0.1074 -0.4522
 5848TIP3    H238960   0.932   5.955   5.485 -0.9665  0.8431 -0.8945
 5849TIP3   OH238961   5.573   3.636  16.547 -1.3387  0.3855  0.4680
 5849TIP3    H138962   5.596   3.701  16.480 -0.2387 -1.1067 -0.6766
 5849TIP3    H238963   5.549   3.558  16.498  0.0614 -0.9517  1.7803
 5850TIP3   OH238964   6.198   2.320   5.281  0.8088  0.2470  1.0406
 5850TIP3    H138965   6.273   2.261   5.294  0.5413 -0.2283  0.4419
 5850TIP3    H238966   6.129   2.283   5.336  0.6406 -0.0066  0.6645
 5851TIP3   OH238967   5.770   4.595   0.571 -1.2714 -0.7196  0.0431
 5851TIP3    H138968   5.832   4.525   0.550 -2.0247 -0.7594 -2.3403
 5851TIP3    H238969   5.818   4.653   0.629  0.3206 -1.7836 -0.1443
 5852TIP3   OH238970   2.549   3.374  14.561  0.2603  0.5316 -0.0177
 5852TIP3    H138971   2.494   3.325  14.500  1.1945 -0.5508 -0.0288
 5852TIP3    H238972   2.543   3.465  14.531 -1.5534  0.4607  0.0342
 5853TIP3   OH238973   0.591   3.785  11.866  0.4258  0.2425 -0.4677
 5853TIP3    H138974   0.569   3.714  11.927  0.9006  0.2324 -0.3090
 5853TIP3    H238975   0.632   3.741  11.792 -0.2248  0.2466 -0.8374
 5854TIP3   OH238976   5.083   5.236  10.934  0.2374 -0.0201  0.2554
 5854TIP3    H138977   5.085   5.323  10.974 -0.5516  0.1382 -0.0306
 5854TIP3    H238978   5.140   5.244  10.857  0.4543  0.1353  0.4280
 5855TIP3   OH238979   3.955   5.172   1.117 -0.0657  0.3749  0.6547
 5855TIP3    H138980   4.016   5.127   1.058 -1.6981 -0.9103 -0.1160
 5855TIP3    H238981   3.979   5.140   1.204  0.2889 -0.2243  0.3474
 5856TIP3   OH238982   1.999   6.326   1.803 -0.2233 -0.3748 -0.0592
 5856TIP3    H138983   1.914   6.287   1.825  0.6050 -2.0468  0.2879
 5856TIP3    H238984   2.023   6.375   1.882 -0.0613 -1.3676  0.5266
 5857TIP3   OH238985   4.861   5.669   2.375  0.1912  0.1438 -0.1573
 5857TIP3    H138986   4.828   5.681   2.464  1.7399 -0.6083  0.5418
 5857TIP3    H238987   4.913   5.747   2.357  0.4209 -0.0058 -0.1468
 5858TIP3   OH238988   6.751   0.163   4.606  0.1111 -0.0465 -0.5421
 5858TIP3    H138989   6.752   0.206   4.691  2.5004 -0.9207 -0.0621
 5858TIP3    H238990   6.803   0.220   4.549 -0.2969 -0.1702 -1.0468
 5859TIP3   OH238991   4.718   5.640  15.601 -0.9641  0.0198 -0.4915
 5859TIP3    H138992   4.739   5.730  15.625 -1.5798  0.0774 -0.1548
 5859TIP3    H238993   4.623   5.640  15.586 -0.9607 -0.5561 -0.5498
 5860TIP3   OH238994   0.512   4.331  13.231 -0.0542  0.0259 -0.0526
 5860TIP3    H138995   0.513   4.281  13.313 -1.7966 -0.1432 -0.0838
 5860TIP3    H238996   0.432   4.384  13.237  0.1747  0.5487 -1.3285
 5861TIP3   OH238997   3.643   5.291  16.382  0.2426 -0.1294  0.0921
 5861TIP3    H138998   3.699   5.234  16.330 -2.4050 -2.4858 -0.3929
 5861TIP3    H238999   3.705   5.344  16.434  2.8744 -1.1013 -1.8295
 5862TIP3   OH239000   5.104   6.046  16.902  0.2642 -0.6140 -0.3339
 5862TIP3    H139001   5.127   6.138  16.886 -0.3105 -0.5015 -0.5097
 5862TIP3    H239002   5.153   5.998  16.836  2.1646 -0.6345  0.9866
 5863TIP3   OH239003   0.082   4.802   5.650  0.4425  0.1615 -0.1992
 5863TIP3    H139004   0.003   4.827   5.698 -1.0393  0.0993 -2.4035
 5863TIP3    H239005   0.121   4.733   5.703 -0.3652  0.9419  1.5057
 5864TIP3   OH239006   0.828   0.892  15.204 -0.1710 -0.7940  0.4665
 5864TIP3    H139007   0.781   0.968  15.238  0.5534  0.4177 -1.1263
 5864TIP3    H239008   0.762   0.844  15.153 -0.2673 -0.3672  0.1798
 5865TIP3   OH239009   6.061   1.157  17.167 -0.4457  0.0971 -0.1238
 5865TIP3    H139010   5.992   1.127  17.108 -0.5727 -0.4055  0.2738
 5865TIP3    H239011   6.028   1.239  17.203 -2.0275 -1.3569  2.0135
 5866TIP3   OH239012   0.641   2.132   4.009  0.1279  0.2623  0.1697
 5866TIP3    H139013   0.616   2.040   4.011 -0.8352  0.5046  0.0800
 5866TIP3    H239014   0.735   2.132   4.025  0.5422 -0.8600 -1.9527
 5867TIP3   OH239015   2.235   6.763  10.878  0.5051  0.3849 -0.1494
 5867TIP3    H139016   2.324   6.791  10.901  0.7704  0.0797 -0.7918
 5867TIP3    H239017   2.225   6.678  10.920  1.8997 -1.3725 -3.0765
 5868TIP3   OH239018   2.793   6.069  14.562  0.2142  0.3270  0.0105
 5868TIP3    H139019   2.864   6.131  14.548  0.8262 -0.1285  0.9259
 5868TIP3    H239020   2.822   6.016  14.637  0.0049 -1.4517 -1.0981
 5869TIP3   OH239021   5.674   6.418  11.758 -0.0962 -0.5030 -0.1092
 5869TIP3    H139022   5.758   6.441  11.798 -0.4397 -0.4160  0.5816
 5869TIP3    H239023   5.632   6.502  11.741 -1.3696 -0.5316  2.4552
 5870TIP3   OH239024   5.766   6.387   3.073  0.2671  0.5743  0.3841
 5870TIP3    H139025   5.826   6.338   3.017 -0.9905 -0.7387  0.1561
 5870TIP3    H239026   5.693   6.411   3.016  0.8822  2.8615  0.4594
 5871TIP3   OH239027   2.020   4.195   5.702 -0.0369  0.8018  0.2159
 5871TIP3    H139028   2.047   4.104   5.690  0.3806  0.9317  0.1416
 5871TIP3    H239029   2.099   4.239   5.732 -0.2443  1.1359  0.2702
 5872TIP3   OH239030   6.559   6.209  13.578  0.3402 -0.0612 -0.7064
 5872TIP3    H139031   6.531   6.118  13.580  1.7079 -0.5014 -0.8772
 5872TIP3    H239032   6.497   6.252  13.518 -2.6473  0.0004  2.1681
 5873TIP3   OH239033   3.918   1.810  16.970 -0.1565  0.1496 -0.0346
 5873TIP3    H139034   3.942   1.894  17.007 -0.8450  0.9383 -1.2991
 5873TIP3    H239035   3.842   1.782  17.021  0.3312  0.0820  0.6622
 5874TIP3   OH239036   3.010   0.194  12.819  0.5987  0.6475 -0.3583
 5874TIP3    H139037   2.979   0.129  12.756  1.6287  0.5044 -0.7374
 5874TIP3    H239038   2.939   0.200  12.884 -0.2988  0.4932 -1.2911
 5875TIP3   OH239039   2.796   4.541   5.836 -0.0302 -0.1423 -0.1423
 5875TIP3    H139040   2.717   4.497   5.866 -0.1697 -2.1551 -3.0460
 5875TIP3    H239041   2.767   4.628   5.806 -1.3418 -1.0792 -1.7405
 5876TIP3   OH239042   6.151   2.776   0.512  0.1394 -0.4456 -0.0781
 5876TIP3    H139043   6.226   2.760   0.454 -0.4530  2.4470 -1.8508
 5876TIP3    H239044   6.096   2.698   0.502  0.9891 -0.8646 -1.9525
 5877TIP3   OH239045   6.404   4.109   2.875  0.0848 -0.0935 -0.2814
 5877TIP3    H139046   6.340   4.176   2.851  0.7406  0.7663  0.3432
 5877TIP3    H239047   6.383   4.088   2.966  0.4507 -0.0878 -0.1957
 5878TIP3   OH239048   6.554   1.236  15.537 -0.0252 -0.0994 -0.5572
 5878TIP3    H139049   6.626   1.294  15.559 -0.4477  0.4742 -0.6640
 5878TIP3    H239050   6.514   1.213  15.621 -0.5065  0.6192 -0.5799
 5879TIP3   OH239051   5.418   3.257   0.169 -0.3487 -0.1683  0.3261
 5879TIP3    H139052   5.372   3.199   0.108 -0.3246 -1.9617  1.9068
 5879TIP3    H239053   5.496   3.284   0.122 -0.0215 -1.9846 -0.2586
 5880TIP3   OH239054   3.479   0.016   1.608 -0.2235  0.3761  0.0839
 5880TIP3    H139055   3.540  -0.017   1.674 -0.5996  1.1269  0.8179
 5880TIP3    H239056   3.498   0.110   1.603 -0.5025  0.4004 -0.5554
 5881TIP3   OH239057   1.859   4.563  12.761  0.0637  0.8995 -0.0662
 5881TIP3    H139058   1.913   4.497  12.804 -0.7093 -0.1706 -0.7138
 5881TIP3    H239059   1.922   4.626  12.725  0.8279  0.2379  0.1059
 5882TIP3   OH239060   0.683   4.393   4.269 -0.1192 -0.8287 -0.7135
 5882TIP3    H139061   0.625   4.464   4.293 -0.8783 -0.6430 -2.8623
 5882TIP3    H239062   0.734   4.375   4.348 -1.1328  0.8907  0.3838
 5883TIP3   OH239063   5.789   5.624   6.237  0.3019  0.2444  0.5544
 5883TIP3    H139064   5.780   5.672   6.154  1.8136 -0.3775 -0.0050
 5883TIP3    H239065   5.883   5.618   6.250  0.0809  0.7467  2.5888
 5884TIP3   OH239066   0.191   0.652  16.322 -0.2887 -0.5170  0.1070
 5884TIP3    H139067   0.118   0.654  16.260 -0.0638  1.0753 -0.1328
 5884TIP3    H239068   0.238   0.571  16.301 -1.0962 -0.7742 -0.7669
 5885TIP3   OH239069   3.739   5.751  15.095  0.5456  0.3640 -0.0884
 5885TIP3    H139070   3.730   5.846  15.089  1.6483  0.5600  1.1630
 5885TIP3    H239071   3.695   5.719  15.016  0.7459  1.9361 -0.8856
 5886TIP3   OH239072   0.526   0.449  12.584 -0.2742 -0.1696  0.1278
 5886TIP3    H139073   0.491   0.418  12.667 -1.7782  0.1824 -0.3521
 5886TIP3    H239074   0.466   0.518  12.556 -0.7068 -1.3290 -1.9938
 5887TIP3   OH239075   0.187   3.031  15.595 -0.0592  0.3429 -0.3473
 5887TIP3    H139076   0.277   3.035  15.628 -0.7741  0.7231  1.7059
 5887TIP3    H239077   0.150   3.117  15.615 -0.5798  0.5736 -2.1679
 5888TIP3   OH239078   0.874   1.738   4.586 -0.0104 -0.2308 -0.3917
 5888TIP3    H139079   0.853   1.784   4.667  0.0460  2.2171 -1.6969
 5888TIP3    H239080   0.806   1.671   4.578  0.5446 -1.1777  2.1110
 5889TIP3   OH239081   4.984   4.291   4.041  0.1500 -1.0633  0.8474
 5889TIP3    H139082   4.892   4.318   4.041  0.3943 -0.1335 -0.5654
 5889TIP3    H239083   4.997   4.251   3.956  1.0040 -1.3843  1.1210
 5890TIP3   OH239084   5.501   4.734   2.355  0.1854  0.4671  0.5715
 5890TIP3    H139085   5.479   4.776   2.438 -1.4926  2.1684 -0.6385
 5890TIP3    H239086   5.593   4.708   2.365 -0.0608  0.3501  3.0303
 5891TIP3   OH239087   3.856   5.874   4.033 -0.1087  0.2016  0.1707
 5891TIP3    H139088   3.790   5.935   4.001  0.7828  0.5749 -0.9881
 5891TIP3    H239089   3.910   5.854   3.957 -0.0775 -1.6683  0.6263
 5892TIP3   OH239090   6.619   1.627   1.939  0.2279  0.1466  0.1714
 5892TIP3    H139091   6.619   1.566   1.865  1.6305  0.8388 -0.4165
 5892TIP3    H239092   6.695   1.683   1.925 -0.0978  0.9896  1.5759
 5893TIP3   OH239093   0.368   5.959  16.944 -0.2408  0.0581  0.2664
 5893TIP3    H139094   0.335   5.891  17.002 -0.2585  0.2972  0.5429
 5893TIP3    H239095   0.318   5.950  16.863 -0.2355 -0.2612  0.3008
 5894TIP3   OH239096   4.382   0.495   2.519  0.2283 -0.2574 -0.1514
 5894TIP3    H139097   4.360   0.508   2.611 -1.0891 -1.4024 -0.2707
 5894TIP3    H239098   4.396   0.401   2.510  1.0882 -0.0650 -0.9782
 5895TIP3   OH239099   2.502   3.106  13.016 -0.1052  0.1534 -0.3143
 5895TIP3    H139100   2.485   3.154  12.935 -0.7712 -0.5749 -0.6233
 5895TIP3    H239101   2.589   3.135  13.044 -0.2303  1.0539 -0.8208
 5896TIP3   OH239102   4.890   0.625  15.423  0.2368  0.5833  0.3948
 5896TIP3    H139103   4.985   0.622  15.429  0.2192  0.2696  0.5475
 5896TIP3    H239104   4.871   0.705  15.374  0.7195 -0.9793 -2.5798
 5897TIP3   OH239105   1.851   0.758  14.250  0.4622  0.3472 -0.3510
 5897TIP3    H139106   1.764   0.722  14.261 -0.3284  2.6700  1.8729
 5897TIP3    H239107   1.906   0.706  14.309  0.7847 -1.4668 -2.1467
 5898TIP3   OH239108   0.811   0.972   1.021 -0.2753 -0.1262 -0.0346
 5898TIP3    H139109   0.901   0.999   1.003 -0.5523  0.2546 -0.8875
 5898TIP3    H239110   0.765   1.054   1.039 -1.2921  0.1886 -3.3846
 5899TIP3   OH239111   2.871   0.905   4.454 -0.5547  0.1174 -0.0013
 5899TIP3    H139112   2.865   0.883   4.547  0.4140 -2.7079 -0.5198
 5899TIP3    H239113   2.851   0.823   4.409  1.1492  0.8621 -2.2372
 5900TIP3   OH239114   5.746   6.489   0.518 -0.2050 -0.4768  0.2499
 5900TIP3    H139115   5.716   6.529   0.437  2.1219 -1.0778 -1.0055
 5900TIP3    H239116   5.697   6.407   0.524 -0.0086 -0.6870 -0.8565
 5901TIP3   OH239117   6.129   6.464  17.006  0.6830 -0.2390  0.3800
 5901TIP3    H139118   6.051   6.434  17.053  0.3798 -0.7926 -0.4480
 5901TIP3    H239119   6.182   6.385  16.995 -0.0537 -0.5275 -1.6995
 5902TIP3   OH239120   5.551   5.170  14.965  0.1384  0.8028  0.1855
 5902TIP3    H139121   5.542   5.142  14.874  0.0721 -1.6189  0.8581
 5902TIP3    H239122   5.501   5.252  14.970  0.7354  1.3739 -2.0664
 5903TIP3   OH239123   4.012   3.077   0.638  1.0083  0.4064  0.0459
 5903TIP3    H139124   4.005   3.034   0.553 -0.4264 -1.0804  0.8616
 5903TIP3    H239125   3.953   3.152   0.633  0.0571 -0.3263  0.0819
 5904TIP3   OH239126   3.339   3.478   5.717  0.0659  0.3719 -0.1995
 5904TIP3    H139127   3.379   3.563   5.734 -0.8104  0.4600  1.6893
 5904TIP3    H239128   3.385   3.417   5.776  1.1959 -0.6664 -2.0509
 5905TIP3   OH239129   1.012   0.533   5.318 -0.2019 -1.0246 -0.4075
 5905TIP3    H139130   1.052   0.595   5.378 -1.2315 -0.0620 -0.6835
 5905TIP3    H239131   1.044   0.559   5.232 -2.4854  0.7285 -0.8260
 5906TIP3   OH239132   0.901   0.783  12.872 -0.1162  0.0484  0.4592
 5906TIP3    H139133   0.961   0.852  12.899 -0.5052 -0.1663  1.9438
 5906TIP3    H239134   0.954   0.725  12.817  0.4384  1.0259 -0.0601
 5907TIP3   OH239135   1.726   1.531  13.297  0.6471 -0.2013  0.3929
 5907TIP3    H139136   1.718   1.595  13.367  1.0846 -0.2605  0.5024
 5907TIP3    H239137   1.710   1.447  13.339  0.5503 -0.2060  0.3475
 5908TIP3   OH239138   0.712   2.985   1.856 -0.6456  0.4525  0.6093
 5908TIP3    H139139   0.796   2.963   1.897 -1.0010 -0.5478  0.8400
 5908TIP3    H239140   0.666   3.037   1.921 -0.0232  1.4329  0.2907
 5909TIP3   OH239141   6.540   2.130   2.928  0.2144 -0.7483  0.2998
 5909TIP3    H139142   6.550   2.112   3.021 -0.3838 -2.2465  0.1089
 5909TIP3    H239143   6.566   2.049   2.885 -2.1476 -1.0994 -0.6622
 5910TIP3   OH239144   0.517   3.206   0.015  0.3451 -0.1601  0.5198
 5910TIP3    H139145   0.596   3.152   0.005 -0.0254 -1.1715  2.5040
 5910TIP3    H239146   0.487   3.222  -0.075  1.6328 -1.5221 -0.1952
 5911TIP3   OH239147   4.843   5.121   6.212  0.1821 -0.6764 -0.2221
 5911TIP3    H139148   4.792   5.200   6.229 -0.3928 -0.8830 -0.9239
 5911TIP3    H239149   4.832   5.069   6.292  1.2228  0.2790  0.5716
 5912TIP3   OH239150   0.177   0.743   2.681  0.5369 -0.0703 -0.3110
 5912TIP3    H139151   0.192   0.648   2.686 -0.9571 -0.2931  0.3907
 5912TIP3    H239152   0.254   0.782   2.723 -0.2554 -1.0973  2.2575
 5913TIP3   OH239153   3.722   5.072   5.206  0.1978  0.8388 -0.5636
 5913TIP3    H139154   3.772   5.122   5.141  1.2784  1.0504  0.3946
 5913TIP3    H239155   3.785   5.010   5.242 -0.5680  0.2518 -0.2122
 5914TIP3   OH239156   4.875   0.120  15.379  0.5933  0.7262 -0.1264
 5914TIP3    H139157   4.779   0.118  15.374  0.5114 -1.6178  0.9523
 5914TIP3    H239158   4.894   0.160  15.464  0.5857  1.3338 -0.4078
 5915TIP3   OH239159   0.623   1.812  15.956  0.7991 -0.3529 -0.6972
 5915TIP3    H139160   0.647   1.752  16.026  1.6171 -1.1393 -1.6195
 5915TIP3    H239161   0.528   1.803  15.948  0.3444  1.3563  1.7053
 5916TIP3   OH239162   3.225   2.438   4.972 -0.1747 -0.3694 -0.0128
 5916TIP3    H139163   3.182   2.388   5.041 -0.9383  0.2262 -0.0477
 5916TIP3    H239164   3.296   2.484   5.017  0.6258 -1.5532 -0.0018
 5917TIP3   OH239165   2.397   0.657  11.647  0.4565 -0.2822 -1.1309
 5917TIP3    H139166   2.421   0.695  11.563  1.5024 -2.5914 -1.9773
 5917TIP3    H239167   2.474   0.668  11.702 -0.1728  1.0888 -0.4690
 5918TIP3   OH239168   0.001   2.882   5.405  0.3600  0.5013 -0.3238
 5918TIP3    H139169   0.056   2.945   5.358 -0.6097  1.4122 -0.2691
 5918TIP3    H239170  -0.086   2.893   5.366 -0.3581  0.9420  1.3338
 5919TIP3   OH239171   4.719   3.604   4.091  0.4348  0.2438  0.6035
 5919TIP3    H139172   4.633   3.581   4.054  0.5979  2.4025 -1.3385
 5919TIP3    H239173   4.698   3.654   4.170  0.0621 -2.9675  2.7123
 5920TIP3   OH239174   1.857   2.516  11.521 -0.4718  0.2569 -0.3445
 5920TIP3    H139175   1.944   2.510  11.481 -0.6466 -1.2930 -0.5465
 5920TIP3    H239176   1.827   2.426  11.527 -1.2364  0.5974  1.6002
 5921TIP3   OH239177   3.177   0.336  15.489 -0.1226 -0.3695 -0.2585
 5921TIP3    H139178   3.216   0.273  15.549 -0.4203 -0.8739 -0.5825
 5921TIP3    H239179   3.239   0.410  15.487  0.6351 -1.0016 -0.4954
 5922TIP3   OH239180   4.429   5.528   4.929 -0.0578  0.2575  0.0132
 5922TIP3    H139181   4.501   5.568   4.978  0.3292 -0.0206 -0.3254
 5922TIP3    H239182   4.471   5.485   4.855 -0.5645  0.0195 -0.1410
 5923TIP3   OH239183   1.592   4.311   5.809 -0.7439  0.4913 -0.0142
 5923TIP3    H139184   1.614   4.234   5.860  1.6152  1.6076  0.8097
 5923TIP3    H239185   1.642   4.301   5.728 -0.6489  0.9987 -0.0212
 5924TIP3   OH239186   2.547   3.982  14.483 -0.1486  0.1841  0.5681
 5924TIP3    H139187   2.597   4.064  14.485  0.0408  0.0831  0.1910
 5924TIP3    H239188   2.560   3.943  14.569  0.2377  0.2740  0.5521
 5925TIP3   OH239189   0.766   2.843  12.649 -0.0505  0.1510 -0.2414
 5925TIP3    H139190   0.853   2.845  12.609 -0.5298 -1.4166 -1.4555
 5925TIP3    H239191   0.758   2.755  12.684 -0.9176  0.4880  0.4392
 5926TIP3   OH239192   2.307   6.042   3.520  0.0482 -0.0611 -0.3466
 5926TIP3    H139193   2.267   6.108   3.464 -0.2577  1.0373  1.0942
 5926TIP3    H239194   2.239   6.021   3.584  0.4822 -1.0588 -0.2006
 5927TIP3   OH239195   2.844   5.025   1.557 -0.1063 -0.7429  0.2108
 5927TIP3    H139196   2.761   4.978   1.548 -0.2390 -0.2580 -1.4779
 5927TIP3    H239197   2.821   5.107   1.600 -0.4178 -0.7873  0.1279
 5928TIP3   OH239198   0.186   6.010  16.719 -0.3332 -0.0471  0.0714
 5928TIP3    H139199   0.253   6.041  16.658 -1.0766  0.5951 -0.4463
 5928TIP3    H239200   0.125   5.960  16.665 -1.2495  0.9185  0.1749
 5929TIP3   OH239201   3.487   4.843   0.681 -0.1490  0.9526  0.1495
 5929TIP3    H139202   3.394   4.828   0.697  0.0620  0.5819  1.0152
 5929TIP3    H239203   3.532   4.774   0.728  0.6268  1.8377  0.7339
 5930TIP3   OH239204   0.802   2.398  10.838 -0.1175  0.4838 -0.2889
 5930TIP3    H139205   0.765   2.332  10.896 -0.7648  1.3272  0.2825
 5930TIP3    H239206   0.867   2.350  10.786 -0.8827 -0.6872 -0.2102
 5931TIP3   OH239207   0.751   2.686  16.462 -0.1378  0.0167  0.1913
 5931TIP3    H139208   0.812   2.625  16.504 -0.0536 -0.1046 -0.1032
 5931TIP3    H239209   0.670   2.636  16.451 -0.8383  0.6735  2.0673
 5932TIP3   OH239210   2.795   5.895   3.138  0.2239 -0.4032  0.4614
 5932TIP3    H139211   2.846   5.930   3.210 -1.5435  1.2687  1.0057
 5932TIP3    H239212   2.828   5.806   3.125  2.9115  0.4400  1.0165
 5933TIP3   OH239213   4.967   3.599  15.231 -0.3363  0.0440 -0.3842
 5933TIP3    H139214   4.871   3.590  15.234 -0.2468 -1.3716 -1.1027
 5933TIP3    H239215   4.996   3.578  15.320 -0.7048  0.9193 -0.0418
 5934TIP3   OH239216   2.235   4.342  13.573 -0.0246 -0.1329 -0.0754
 5934TIP3    H139217   2.179   4.392  13.512 -0.3169 -0.9974 -0.5315
 5934TIP3    H239218   2.324   4.358  13.542 -0.1533 -0.3285 -0.5567
 5935TIP3   OH239219   2.743   3.420  13.417  0.1812 -0.6451  0.2939
 5935TIP3    H139220   2.721   3.344  13.364  0.4577 -0.6866  0.2385
 5935TIP3    H239221   2.682   3.488  13.387  1.0944 -0.3197 -0.9078
 5936TIP3   OH239222   6.329   0.777  13.633 -0.6053  0.2434 -0.0700
 5936TIP3    H139223   6.327   0.703  13.693  0.8659 -0.7011 -1.1371
 5936TIP3    H239224   6.307   0.853  13.687 -0.2022 -0.7044  1.4510
 5937TIP3   OH239225   2.111   1.392  13.682  0.1842 -0.5004  0.0529
 5937TIP3    H139226   2.049   1.462  13.702 -0.2443 -0.8029 -0.2161
 5937TIP3    H239227   2.099   1.375  13.588 -0.7252 -1.9019  0.3906
 5938TIP3   OH239228   2.432   6.510   3.018 -0.1383  0.2475 -0.1943
 5938TIP3    H139229   2.385   6.589   2.992  1.0528  1.5812  1.4739
 5938TIP3    H239230   2.477   6.534   3.099  1.4494 -1.6913 -0.4148
 5939TIP3   OH239231   2.031   6.089   3.157  0.5877 -0.1891 -0.4629
 5939TIP3    H139232   2.050   6.123   3.245 -1.3135 -0.4973  0.1317
 5939TIP3    H239233   2.098   6.023   3.141 -1.0647 -2.8988  2.4523
 5940TIP3   OH239234   1.784   2.446   1.656  0.1969  0.1226 -0.3840
 5940TIP3    H139235   1.695   2.426   1.625  0.5888  0.6676 -1.9464
 5940TIP3    H239236   1.838   2.443   1.577  1.6299 -0.4440  0.5774
 5941TIP3   OH239237   1.130   3.568  11.799  0.0840  0.1612  0.1956
 5941TIP3    H139238   1.134   3.484  11.753  0.0101 -0.0543  0.5773
 5941TIP3    H239239   1.220   3.599  11.802 -0.0148  0.6019 -0.8627
 5942TIP3   OH239240   1.569   1.230   5.236 -0.1649  0.5017  0.3832
 5942TIP3    H139241   1.591   1.295   5.170 -0.7159  0.6664  0.3636
 5942TIP3    H239242   1.559   1.280   5.317  1.5754  0.1821  0.8410
 5943TIP3   OH239243   4.886   0.798  15.677 -0.6998  0.1687  0.2590
 5943TIP3    H139244   4.920   0.832  15.595  2.4551 -0.8764  0.9932
 5943TIP3    H239245   4.854   0.711  15.655  1.5384 -0.7384  0.2838
 5944TIP3   OH239246   5.823   4.642   1.804  0.1435 -0.7739  0.1325
 5944TIP3    H139247   5.819   4.596   1.720 -0.3370 -0.6989  0.1101
 5944TIP3    H239248   5.758   4.597   1.859 -0.7144  0.2130 -0.0594
 5945TIP3   OH239249   2.026   4.320  16.973 -0.2559  0.1785  0.3317
 5945TIP3    H139250   1.937   4.309  16.939 -0.0008  0.2353 -0.3673
 5945TIP3    H239251   2.067   4.234  16.962  0.0754  0.4009 -0.2584
 5946TIP3   OH239252   3.822   4.478   5.513  0.4166  0.1741 -0.0516
 5946TIP3    H139253   3.880   4.552   5.530  0.6503  0.5425 -2.1153
 5946TIP3    H239254   3.780   4.500   5.429 -1.5915 -0.7743  0.6451
 5947TIP3   OH239255   4.730   2.643  15.617 -0.3361  0.0065 -0.1649
 5947TIP3    H139256   4.741   2.558  15.659 -2.4665  0.6539  1.9705
 5947TIP3    H239257   4.817   2.681  15.616  0.1685 -0.9522  1.8015
 5948TIP3   OH239258   5.092   3.387  10.898 -0.5456  0.4646  0.2082
 5948TIP3    H139259   5.020   3.331  10.867  0.3452 -0.5594 -0.0804
 5948TIP3    H239260   5.119   3.435  10.820  0.0018 -0.2038 -0.0231
 5949TIP3   OH239261   6.512   4.024  12.561 -0.4404  0.5607 -0.6339
 5949TIP3    H139262   6.603   3.995  12.561 -0.1810  1.3544  0.0800
 5949TIP3    H239263   6.507   4.087  12.489 -0.0559  1.6130  0.2434
 5950TIP3   OH239264   0.869   2.336   3.472 -0.0049 -0.3446  0.0892
 5950TIP3    H139265   0.864   2.370   3.383  2.2533  0.5230  0.2262
 5950TIP3    H239266   0.836   2.407   3.527 -3.0246 -1.4829 -0.0533
 5951TIP3   OH239267   1.078   4.770   0.375  0.8018  0.0739 -0.3033
 5951TIP3    H139268   1.016   4.707   0.410 -0.1540 -0.7175 -3.1390
 5951TIP3    H239269   1.049   4.854   0.411  0.9780 -0.7857  2.0562
 5952TIP3   OH239270   5.419   5.393  14.653 -0.3155  0.4615 -0.3835
 5952TIP3    H139271   5.349   5.409  14.717 -0.5839 -1.1209 -0.2341
 5952TIP3    H239272   5.419   5.298  14.641  1.2532  0.5129 -1.0292
 5953TIP3   OH239273   0.611   4.703  11.644  0.4209  0.1688 -0.0395
 5953TIP3    H139274   0.626   4.793  11.671  0.1044  0.2499 -0.1261
 5953TIP3    H239275   0.664   4.692  11.565  0.8572  0.1222  0.2601
 5954TIP3   OH239276   3.806   0.008  13.475 -0.2189 -0.2424  0.0056
 5954TIP3    H139277   3.851  -0.032  13.401 -0.1953 -0.6482  0.2374
 5954TIP3    H239278   3.870   0.007  13.546  0.2576  1.4499 -0.3480
 5955TIP3   OH239279   5.808   6.313  13.405 -0.6441 -0.2410  0.2410
 5955TIP3    H139280   5.875   6.251  13.434  1.0330  1.9052  1.2558
 5955TIP3    H239281   5.825   6.326  13.312  0.9181  0.8292  0.6287
 5956TIP3   OH239282   2.015   2.741   1.454  0.1080 -0.1614 -0.0527
 5956TIP3    H139283   2.053   2.815   1.407 -0.1830  0.6703  0.9859
 5956TIP3    H239284   1.951   2.780   1.514 -1.7743 -1.4457 -1.1191
 5957TIP3   OH239285   5.188   2.144  15.167  0.3855 -0.5238 -0.1923
 5957TIP3    H139286   5.161   2.083  15.099 -1.5455  1.8048 -1.6517
 5957TIP3    H239287   5.254   2.199  15.126  0.0417  0.1820  0.1890
 5958TIP3   OH239288   4.779   2.007   5.253 -0.2866 -0.3059 -0.6915
 5958TIP3    H139289   4.725   1.961   5.318  0.2375  0.5057  0.3335
 5958TIP3    H239290   4.738   2.093   5.244 -0.6140 -0.5531 -1.7921
 5959TIP3   OH239291   0.682   2.054   0.979  0.1361  0.2009 -0.0012
 5959TIP3    H139292   0.688   2.117   1.050  2.0156 -1.4247  1.3865
 5959TIP3    H239293   0.588   2.043   0.964 -0.3476  4.2192 -1.2614
 5960TIP3   OH239294   5.458   3.888   1.744  0.1671 -0.0456  0.0589
 5960TIP3    H139295   5.396   3.961   1.753  0.7810  0.9448 -2.8147
 5960TIP3    H239296   5.527   3.908   1.807 -0.9404  0.4259  1.1714
 5961TIP3   OH239297   4.458   6.233   1.447  0.1027  0.1187  0.7211
 5961TIP3    H139298   4.472   6.253   1.540  0.5172  0.4246  0.5959
 5961TIP3    H239299   4.544   6.245   1.407  0.2028 -1.1535  0.4928
 5962TIP3   OH239300   2.172   3.498  11.069  0.2224  0.0201 -0.2991
 5962TIP3    H139301   2.122   3.520  10.990  0.6692  0.3165 -0.5007
 5962TIP3    H239302   2.109   3.508  11.140 -0.3358 -0.7992 -0.6704
 5963TIP3   OH239303   1.445   0.246   0.127  0.8891 -0.0238 -0.2114
 5963TIP3    H139304   1.429   0.198   0.046 -2.3185  1.0837 -0.3716
 5963TIP3    H239305   1.401   0.330   0.114  1.3527  0.6688  2.2124
 5964TIP3   OH239306   0.323   4.654   0.010  0.3766 -0.3429  0.7370
 5964TIP3    H139307   0.385   4.691  -0.053  0.0940  2.8113  2.1086
 5964TIP3    H239308   0.240   4.649  -0.039  0.4478  0.8803  0.4637
 5965TIP3   OH239309   0.122   1.235  17.151  0.0648 -0.3494 -0.6925
 5965TIP3    H139310   0.128   1.251  17.057  2.3046  0.5177 -0.4749
 5965TIP3    H239311   0.029   1.235  17.170 -0.4587 -0.8534 -2.9475
 5966TIP3   OH239312   1.267   4.617  11.734  0.1313 -1.1212  0.3063
 5966TIP3    H139313   1.252   4.525  11.714  0.4594 -1.1447  0.1702
 5966TIP3    H239314   1.362   4.628  11.729  0.1343 -0.8811  0.7712
 5967TIP3   OH239315   0.248   0.139  14.648 -0.4386 -0.2936  0.1723
 5967TIP3    H139316   0.257   0.218  14.594 -0.7184 -0.4521 -0.1137
 5967TIP3    H239317   0.289   0.070  14.597 -2.7812 -0.9474 -0.9916
 5968TIP3   OH239318   2.190   4.366  16.605  0.0718  0.5034 -0.1741
 5968TIP3    H139319   2.147   4.420  16.671  0.0728 -1.2900  1.3956
 5968TIP3    H239320   2.123   4.354  16.537 -0.6803  0.6893  0.5172
 5969TIP3   OH239321   1.250   2.587  15.156  0.1864 -0.4823  0.1649
 5969TIP3    H139322   1.282   2.677  15.145 -0.6246 -0.3262 -0.9783
 5969TIP3    H239323   1.323   2.533  15.128 -0.4872 -0.1220 -2.5157
 5970TIP3   OH239324   1.398   4.878   6.331  0.1801 -0.2291  0.3126
 5970TIP3    H139325   1.366   4.962   6.362  1.0829 -0.7724  2.9892
 5970TIP3    H239326   1.490   4.875   6.359  0.6600 -1.4543 -1.1975
 5971TIP3   OH239327   5.326   2.691  15.287 -0.4434  0.2281  0.6514
 5971TIP3    H139328   5.416   2.662  15.271  0.3013  1.8983  1.5657
 5971TIP3    H239329   5.274   2.610  15.287  0.6229 -0.6057 -2.3124
 5972TIP3   OH239330   3.651   2.219   2.234  1.1145  0.1780  0.3381
 5972TIP3    H139331   3.572   2.238   2.183 -0.0965  0.6645  2.2988
 5972TIP3    H239332   3.694   2.303   2.246  0.8141  0.2383  1.0211
 5973TIP3   OH239333   4.998   0.793  13.722  0.4171 -0.3672  0.2599
 5973TIP3    H139334   5.092   0.787  13.703  0.6772  1.7208  0.6229
 5973TIP3    H239335   4.959   0.821  13.639 -0.0312 -2.0132 -0.1138
 5974TIP3   OH239336   0.315   4.534   0.639  0.1822  1.0599  0.1051
 5974TIP3    H139337   0.388   4.498   0.588  0.0757 -3.7433  2.7134
 5974TIP3    H239338   0.353   4.607   0.687  2.6415  0.2228 -0.4262
 5975TIP3   OH239339   5.077   1.416   0.609  0.1810 -0.3524  0.0947
 5975TIP3    H139340   5.054   1.503   0.641  0.2217 -0.9128  1.7525
 5975TIP3    H239341   5.160   1.429   0.562 -0.0363  0.5637 -0.0498
 5976TIP3   OH239342   3.309   2.083   4.060 -0.3727 -0.4283  0.0507
 5976TIP3    H139343   3.240   2.047   4.004 -0.2518 -0.4052 -0.1139
 5976TIP3    H239344   3.382   2.100   4.001 -0.4239  0.0780  0.1310
 5977TIP3   OH239345   4.779   2.349   3.892  0.4278  0.2916  0.4732
 5977TIP3    H139346   4.825   2.283   3.944  2.5477  1.1249 -0.2343
 5977TIP3    H239347   4.845   2.383   3.833 -1.8196 -0.4754 -2.7409
 5978TIP3   OH239348   0.509   2.770  12.588  0.7253 -0.1864  0.4110
 5978TIP3    H139349   0.600   2.800  12.593  0.2213  1.5363 -0.0316
 5978TIP3    H239350   0.502   2.729  12.502  0.3693  2.3829 -0.8608
 5979TIP3   OH239351   2.776   6.702  12.244 -0.1214 -0.2893 -0.3810
 5979TIP3    H139352   2.788   6.779  12.188 -0.5631 -0.4820 -0.7431
 5979TIP3    H239353   2.865   6.680  12.273 -0.0351  0.5987  0.0604
 5980TIP3   OH239354   6.054   0.657  15.488 -0.3792  0.9540  0.1758
 5980TIP3    H139355   6.024   0.748  15.486 -0.5262  0.8985 -0.7438
 5980TIP3    H239356   6.119   0.651  15.418  1.3622  0.9107  1.7145
 5981TIP3   OH239357   2.128   0.645  12.321 -0.3510 -0.2431  0.2186
 5981TIP3    H139358   2.130   0.731  12.279  0.7419 -0.2396  0.2634
 5981TIP3    H239359   2.161   0.585  12.254 -1.5941 -0.7302  0.0050
 5982TIP3   OH239360   1.851   1.942  13.261 -0.2721  0.4652  0.6553
 5982TIP3    H139361   1.806   1.957  13.344 -1.9563  0.4436 -0.2204
 5982TIP3    H239362   1.783   1.950  13.195  0.7382 -0.9514 -0.6263
 5983TIP3   OH239363   6.530   6.630   2.232 -0.1606  0.2795 -0.4009
 5983TIP3    H139364   6.604   6.632   2.292  0.7444  0.7069 -1.5018
 5983TIP3    H239365   6.508   6.537   2.224 -0.7318  0.2536  1.0748
 5984TIP3   OH239366   1.685   6.687  13.445 -0.0121  0.7162 -0.1174
 5984TIP3    H139367   1.725   6.719  13.526  0.6787  1.1361 -0.6049
 5984TIP3    H239368   1.757   6.688  13.382 -0.4743  0.1196 -0.6613
 5985TIP3   OH239369   5.452   1.179  17.023 -0.2587 -0.4097 -0.4955
 5985TIP3    H139370   5.514   1.173  17.096 -1.3999  0.3653  0.5886
 5985TIP3    H239371   5.426   1.271  17.022  1.4537  0.1353 -3.3937
 5986TIP3   OH239372   6.217   2.316  17.002  0.0766  0.2101  0.4471
 5986TIP3    H139373   6.284   2.257  17.036 -0.4338 -1.3175 -1.0692
 5986TIP3    H239374   6.170   2.345  17.080  1.2678 -0.2061  1.3610
 5987TIP3   OH239375   1.675   0.526  13.868  0.3504 -0.2351 -0.2926
 5987TIP3    H139376   1.588   0.549  13.899  0.6751  1.0163 -0.2232
 5987TIP3    H239377   1.680   0.565  13.781  1.7218  2.1014  0.7135
 5988TIP3   OH239378   4.848   5.956  11.243 -0.3820 -0.2914 -0.2000
 5988TIP3    H139379   4.811   5.947  11.330 -0.0591  1.0281  0.0942
 5988TIP3    H239380   4.877   6.047  11.238 -0.8201 -0.1989 -1.8458
 5989TIP3   OH239381   5.720   3.452   6.263  0.2430 -0.2299  0.4107
 5989TIP3    H139382   5.774   3.513   6.212  1.3001 -0.0196  1.7299
 5989TIP3    H239383   5.657   3.417   6.199  0.6338  1.0371 -0.7262
 5990TIP3   OH239384   1.029   5.205   2.750  0.6723 -0.2314 -0.1061
 5990TIP3    H139385   0.999   5.173   2.835 -0.2873 -1.6804 -0.9313
 5990TIP3    H239386   1.124   5.208   2.757  0.6272 -0.7661  0.8803
 5991TIP3   OH239387   6.734   5.944  15.282 -0.2507  0.6112 -0.5538
 5991TIP3    H139388   6.787   6.021  15.303 -0.9744  0.6272  1.4616
 5991TIP3    H239389   6.794   5.883  15.241  1.3818  0.5915  1.7343
 5992TIP3   OH239390   5.882   3.327  13.825 -0.2702  0.2728 -0.9599
 5992TIP3    H139391   5.954   3.313  13.763 -0.3428 -0.2786 -0.9232
 5992TIP3    H239392   5.921   3.310  13.911 -1.0005 -2.3932 -1.0862
 5993TIP3   OH239393   5.346   1.261  16.181 -0.4884 -0.0427 -0.3110
 5993TIP3    H139394   5.349   1.335  16.120  1.2618 -0.3364 -0.6251
 5993TIP3    H239395   5.300   1.193  16.132  0.9957 -0.3161 -1.3955
 5994TIP3   OH239396   1.433   0.175   2.331  0.1716  0.2227  0.4915
 5994TIP3    H139397   1.341   0.163   2.306  0.2290 -0.9382  0.7681
 5994TIP3    H239398   1.480   0.185   2.248  0.0337 -1.1120  0.2313
 5995TIP3   OH239399   2.809   3.917   5.498  0.1789 -0.1382 -0.4325
 5995TIP3    H139400   2.784   4.002   5.460  0.2176 -0.1592 -0.5051
 5995TIP3    H239401   2.860   3.874   5.429  0.3205 -0.1423 -0.3267
 5996TIP3   OH239402   3.931   6.607   4.756 -0.4332 -0.0217 -0.3355
 5996TIP3    H139403   3.845   6.645   4.774 -0.3642 -0.0944  0.1786
 5996TIP3    H239404   3.990   6.654   4.816 -0.1025  0.0880 -0.7475
 5997TIP3   OH239405   3.879   5.697   4.240  0.1026 -0.0309  0.0924
 5997TIP3    H139406   3.975   5.698   4.250  0.3030  0.8269 -1.6473
 5997TIP3    H239407   3.860   5.768   4.179 -1.6124 -0.5765 -0.0602
 5998TIP3   OH239408   2.318   6.616   5.625 -0.5499 -0.2170  0.2870
 5998TIP3    H139409   2.244   6.627   5.566 -0.8698  0.4918  0.8044
 5998TIP3    H239410   2.388   6.580   5.570 -0.3417  1.8474 -0.8871
 5999TIP3   OH239411   4.836   2.420  17.070 -0.1839  0.8686  0.4668
 5999TIP3    H139412   4.786   2.440  17.149  1.7084 -0.7648  2.2030
 5999TIP3    H239413   4.780   2.362  17.019 -0.7524  0.5276  1.4701
 6000TIP3   OH239414   1.202   0.130   1.713  0.9249  0.0076 -0.6259
 6000TIP3    H139415   1.190   0.222   1.733  0.0358 -0.2717  0.2108
 6000TIP3    H239416   1.228   0.090   1.797 -0.4198 -0.7728 -0.5480
 6001TIP3   OH239417   6.436   5.367  13.258  0.1555 -0.1986  0.4465
 6001TIP3    H139418   6.366   5.344  13.318 -1.1842  0.8423 -0.6518
 6001TIP3    H239419   6.482   5.439  13.301 -0.7977  0.5434  0.2567
 6002TIP3   OH239420   3.360   6.290   2.269 -0.9069  0.1402 -0.0519
 6002TIP3    H139421   3.376   6.211   2.321 -1.4893 -0.7716 -1.2217
 6002TIP3    H239422   3.430   6.351   2.296 -0.1476 -0.9502  0.5056
 6003TIP3   OH239423   5.910   3.952   1.290 -0.5458 -0.1626  0.3555
 6003TIP3    H139424   5.883   4.022   1.349 -0.8565  0.6358 -0.7080
 6003TIP3    H239425   5.986   3.987   1.244  0.6467 -1.3537  1.3348
 6004TIP3   OH239426   4.419   2.140  15.564 -0.1353 -0.0116 -0.1713
 6004TIP3    H139427   4.415   2.202  15.637  0.1264  0.1391 -0.2847
 6004TIP3    H239428   4.410   2.054  15.605 -0.0091  0.0746  0.0349
 6005TIP3   OH239429   2.864   2.393  14.881 -0.0278 -0.5673 -0.0049
 6005TIP3    H139430   2.920   2.317  14.865 -0.9274 -1.6014  1.5394
 6005TIP3    H239431   2.922   2.457  14.923 -0.0075 -1.6986  1.7519
 6006TIP3   OH239432   2.961   1.636  12.245 -0.0697  0.4752 -0.2963
 6006TIP3    H139433   2.971   1.662  12.153  0.8492 -1.1814 -0.6965
 6006TIP3    H239434   2.945   1.542  12.242  4.8071 -0.6928  1.3313
 6007TIP3   OH239435   1.613   2.356  13.333  1.0749 -0.0208 -0.1599
 6007TIP3    H139436   1.688   2.305  13.362  2.0648  0.1439 -2.2272
 6007TIP3    H239437   1.539   2.296  13.341  1.5193 -0.4355  1.1726
 6008TIP3   OH239438   4.495   4.180  11.336  0.2415 -0.5713  0.2788
 6008TIP3    H139439   4.514   4.091  11.367  1.4506 -0.1491  0.8365
 6008TIP3    H239440   4.402   4.178  11.312  0.3062 -2.0406  0.0546
 6009TIP3   OH239441   5.027   3.857   6.069  0.6757  0.3107  0.3927
 6009TIP3    H139442   4.985   3.883   6.151 -0.0558  0.7489 -0.1001
 6009TIP3    H239443   5.115   3.830   6.094  1.1012  2.1946  1.1089
 6010TIP3   OH239444   2.542   5.429  15.753 -0.2069 -0.4030 -0.1318
 6010TIP3    H139445   2.484   5.429  15.829 -0.7531 -1.1482 -0.5364
 6010TIP3    H239446   2.567   5.337  15.742 -1.4225 -0.5801 -1.8035
 6011TIP3   OH239447   5.226   4.929   4.295  0.3003  0.0091  0.4974
 6011TIP3    H139448   5.301   4.872   4.309  0.3356 -0.0092  0.2435
 6011TIP3    H239449   5.263   5.011   4.261  0.2808  0.3106  1.1969
 6012TIP3   OH239450   3.118   0.899   0.147 -0.0843 -0.3377 -0.1299
 6012TIP3    H139451   3.210   0.875   0.136 -0.1332 -0.8725  0.6027
 6012TIP3    H239452   3.088   0.918   0.058  0.1019 -2.4923 -0.7186
 6013TIP3   OH239453   6.539   3.115   5.865 -0.5831 -0.8603 -0.2531
 6013TIP3    H139454   6.562   3.028   5.895  0.0124 -0.2811  1.0414
 6013TIP3    H239455   6.560   3.173   5.938 -0.5844  0.4236 -1.2167
 6014TIP3   OH239456   4.796   0.423  12.722 -0.3256 -0.2021  0.0823
 6014TIP3    H139457   4.875   0.371  12.735 -0.1305 -0.4267 -1.7276
 6014TIP3    H239458   4.727   0.375  12.768  0.6007  0.1400  1.9052
 6015TIP3   OH239459   1.034   6.501   0.179  0.6135 -0.6153 -0.4001
 6015TIP3    H139460   1.129   6.505   0.171  0.7105 -0.1193  0.7548
 6015TIP3    H239461   1.012   6.409   0.160  1.7062 -1.6172  2.5601
 6016TIP3   OH239462   5.978   1.167  11.593  0.0762  0.5132  0.6073
 6016TIP3    H139463   6.010   1.080  11.617 -0.1501  0.5055  0.8867
 6016TIP3    H239464   5.972   1.165  11.497 -3.1690 -0.9841  0.7026
 6017TIP3   OH239465   0.249   1.240  14.387  0.1683  0.3589 -0.3714
 6017TIP3    H139466   0.240   1.327  14.348  4.0821  0.6768 -0.9477
 6017TIP3    H239467   0.311   1.253  14.459  2.1639 -2.1494 -1.4983
 6018TIP3   OH239468   3.628   0.267  12.573 -0.3485 -0.5473  0.0813
 6018TIP3    H139469   3.557   0.325  12.544  0.5075  1.6975  2.1646
 6018TIP3    H239470   3.698   0.281  12.510 -1.0696 -1.3580 -0.9229
 6019TIP3   OH239471   3.882   2.715   3.857 -0.3277 -0.6879 -0.2877
 6019TIP3    H139472   3.851   2.776   3.924 -2.3883 -0.7167 -1.1265
 6019TIP3    H239473   3.846   2.630   3.883 -2.1751 -0.4967 -1.9411
 6020TIP3   OH239474   2.850   4.521  14.649  0.0334 -0.0544  0.7229
 6020TIP3    H139475   2.807   4.544  14.732 -0.4304  0.4594  0.3451
 6020TIP3    H239476   2.940   4.551  14.660 -0.0667  0.1546  0.9806
 6021TIP3   OH239477   4.416   2.690   0.869 -0.4576 -0.9328 -0.7299
 6021TIP3    H139478   4.394   2.729   0.784 -1.4290 -0.4297 -0.2746
 6021TIP3    H239479   4.395   2.759   0.933  2.0370 -0.5834 -0.1636
 6022TIP3   OH239480   4.046   2.439   0.548  0.2934  0.0359  0.1094
 6022TIP3    H139481   4.041   2.406   0.638 -2.2160 -0.4052 -0.1236
 6022TIP3    H239482   3.955   2.451   0.522  0.9931  1.2310 -2.0123
 6023TIP3   OH239483   3.795   1.587   4.669 -0.3521  0.0651  0.0751
 6023TIP3    H139484   3.836   1.597   4.755 -1.8807 -0.2189  0.8720
 6023TIP3    H239485   3.706   1.619   4.682 -0.4365  0.5915 -1.5826
 6024TIP3   OH239486   4.876   1.079  15.053 -0.2901 -0.0692  0.4648
 6024TIP3    H139487   4.833   1.000  15.020  0.5455 -0.5522  0.5069
 6024TIP3    H239488   4.837   1.150  15.002 -0.4778 -0.5936 -0.1395
 6025TIP3   OH239489   1.280   6.412  15.580 -0.0452  0.3179  0.2185
 6025TIP3    H139490   1.212   6.346  15.560 -0.4909 -0.0537  2.6527
 6025TIP3    H239491   1.232   6.484  15.620  0.5990  1.7045 -1.3745
 6026TIP3   OH239492   3.989   1.320  15.971  0.2372 -0.1670 -0.9545
 6026TIP3    H139493   3.953   1.359  15.891  0.8992 -0.3397 -1.3438
 6026TIP3    H239494   3.973   1.227  15.961 -0.3936 -0.1086 -0.5131
 6027TIP3   OH239495   4.825   0.764  13.075 -0.1483 -0.3838 -0.0532
 6027TIP3    H139496   4.870   0.847  13.059  0.2369 -0.7063 -0.6753
 6027TIP3    H239497   4.764   0.755  13.002 -0.2387 -0.6187  0.0490
 6028TIP3   OH239498   6.607   1.168  14.760  0.1516  0.3663 -0.0793
 6028TIP3    H139499   6.621   1.200  14.671 -1.4284 -1.2542 -0.9805
 6028TIP3    H239500   6.693   1.136  14.788 -0.0054 -2.6526 -2.5671
 6029TIP3   OH239501   2.188   3.162   2.004  0.5580 -0.5413 -0.3866
 6029TIP3    H139502   2.139   3.225   2.057  0.0802 -0.5530 -0.8044
 6029TIP3    H239503   2.275   3.199   1.997 -0.0422  0.7359 -1.6766
 6030TIP3   OH239504   2.262   3.870   0.634 -0.6021  0.2050 -0.0956
 6030TIP3    H139505   2.247   3.871   0.539 -2.2794 -0.3143  0.1187
 6030TIP3    H239506   2.175   3.855   0.671  0.3753 -2.2532  1.4264
 6031TIP3   OH239507   0.828   2.260  13.339  0.2722 -0.3095  0.4282
 6031TIP3    H139508   0.908   2.290  13.295  1.0499 -0.5588  1.6232
 6031TIP3    H239509   0.763   2.253  13.269  0.7823  1.6284 -0.3111
 6032TIP3   OH239510   0.103   5.503  14.890 -0.4246  0.0639 -0.1598
 6032TIP3    H139511   0.031   5.471  14.837 -0.4716  0.8953 -0.6177
 6032TIP3    H239512   0.146   5.568  14.835 -0.1081  0.5095  0.5984
 6033TIP3   OH239513   4.113   1.213  10.847  0.2830 -0.0724 -0.2563
 6033TIP3    H139514   4.183   1.202  10.782  0.3699  0.0987 -0.1905
 6033TIP3    H239515   4.037   1.173  10.806  0.2067  0.5044 -0.6852
 6034TIP3   OH239516   0.895   3.367   0.169  0.0966 -0.0310 -0.1212
 6034TIP3    H139517   0.925   3.296   0.113  0.4894  0.4186 -0.4868
 6034TIP3    H239518   0.815   3.333   0.211 -0.5631 -0.1405 -1.4253
 6035TIP3   OH239519   5.716   0.747  11.950 -0.5517  0.5373  0.2598
 6035TIP3    H139520   5.731   0.695  11.871  1.1417 -1.3369  1.7113
 6035TIP3    H239521   5.634   0.712  11.986  0.5204 -1.1976  1.1667
 6036TIP3   OH239522   2.692   1.157   4.841 -0.7039 -0.0672 -0.4025
 6036TIP3    H139523   2.640   1.235   4.823 -0.5676  0.8707  2.7743
 6036TIP3    H239524   2.649   1.116   4.916  0.8248 -1.5331 -0.2612
 6037TIP3   OH239525   1.664   2.617   2.312 -0.9632  0.0091  0.0306
 6037TIP3    H139526   1.677   2.569   2.394  3.2593 -1.3792 -1.1944
 6037TIP3    H239527   1.622   2.554   2.254 -0.6220 -0.2686  0.0820
 6038TIP3   OH239528   4.456   4.391   1.979 -0.5713  0.7119  0.0248
 6038TIP3    H139529   4.496   4.467   1.935 -1.1762  1.7424  1.1874
 6038TIP3    H239530   4.437   4.330   1.908  1.2380  1.0238 -0.7913
 6039TIP3   OH239531   5.875   5.553  16.872 -0.0203  0.1344 -0.5738
 6039TIP3    H139532   5.873   5.459  16.853 -2.2158 -0.0022  0.1202
 6039TIP3    H239533   5.785   5.582  16.862  0.3253  1.8529  0.7638
 6040TIP3   OH239534   0.822   4.475  11.718 -0.2061 -0.4786 -0.0852
 6040TIP3    H139535   0.776   4.474  11.634  0.8484 -1.5491 -0.6821
 6040TIP3    H239536   0.774   4.538  11.772 -1.6932 -0.7556 -1.0476
 6041TIP3   OH239537   2.075   6.187   3.409 -0.2784 -0.1699 -0.7536
 6041TIP3    H139538   2.047   6.117   3.468 -1.2328  0.2102 -0.7432
 6041TIP3    H239539   2.034   6.266   3.443  1.4477  0.5652 -0.2894
 6042TIP3   OH239540   1.308   4.173  15.371  0.3979 -0.3854  0.1465
 6042TIP3    H139541   1.241   4.233  15.405  1.0249  1.0149 -0.9539
 6042TIP3    H239542   1.271   4.086  15.384 -1.0477  0.2859  0.7920
 6043TIP3   OH239543   5.844   3.385  13.109  0.1285  0.0569  0.6542
 6043TIP3    H139544   5.913   3.433  13.154  1.8177 -0.5692 -1.1181
 6043TIP3    H239545   5.765   3.437  13.123  1.3870  1.9896  0.8880
 6044TIP3   OH239546   1.542   4.257  15.054 -0.2500 -0.1735  0.4133
 6044TIP3    H139547   1.508   4.168  15.064  0.2991 -0.2563  1.7816
 6044TIP3    H239548   1.492   4.293  14.981 -1.4335 -1.1607  0.6880
 6045TIP3   OH239549   4.083   2.210   5.049  0.6394 -0.4771 -0.6862
 6045TIP3    H139550   4.090   2.156   4.970 -2.3510  2.0759 -2.9779
 6045TIP3    H239551   4.136   2.287   5.030  0.1736  0.0052 -0.0585
 6046TIP3   OH239552   4.812   0.654  14.343 -0.7729 -0.2958 -0.1083
 6046TIP3    H139553   4.728   0.693  14.316  0.2943  1.9185 -0.4312
 6046TIP3    H239554   4.829   0.587  14.276 -2.3058 -0.8344  0.0095
 6047TIP3   OH239555   3.701   0.345  15.992  0.3143  0.1088  0.5193
 6047TIP3    H139556   3.617   0.306  16.017 -0.2044  0.4916 -0.5980
 6047TIP3    H239557   3.690   0.370  15.901  1.3112  1.0799  0.6487
 6048TIP3   OH239558   1.878   4.623  15.065 -0.1926  0.0640  0.1670
 6048TIP3    H139559   1.856   4.695  15.006  1.5276  0.2391 -0.3146
 6048TIP3    H239560   1.846   4.652  15.151 -0.0101  1.1671 -0.1195
 6049TIP3   OH239561   6.580   3.839  10.536  0.4765 -0.2928  0.4359
 6049TIP3    H139562   6.554   3.855  10.627  0.1782  1.4090  0.0895
 6049TIP3    H239563   6.578   3.925  10.495  0.2503 -1.0668 -1.2863
 6050TIP3   OH239564   0.700   4.407   1.492  0.0467  0.1946 -0.4421
 6050TIP3    H139565   0.623   4.441   1.446  1.2835  1.2616 -1.8219
 6050TIP3    H239566   0.712   4.467   1.565 -0.7339 -0.3010  0.1082
 6051TIP3   OH239567   2.205   4.520  16.883  0.2229  0.0335  0.0159
 6051TIP3    H139568   2.192   4.432  16.917 -1.5619 -0.3831 -1.5483
 6051TIP3    H239569   2.118   4.547  16.853  0.9344  1.9066 -0.5193
 6052TIP3   OH239570   1.910   6.506   2.535  0.3154 -0.0794 -0.0395
 6052TIP3    H139571   1.911   6.515   2.630 -0.5105  1.7953 -0.1575
 6052TIP3    H239572   1.832   6.555   2.507  1.2408  0.5086 -1.7575
 6053TIP3   OH239573   3.656   6.049   2.809  0.2173  0.5149  0.0985
 6053TIP3    H139574   3.621   5.963   2.832  0.9298 -0.2098 -1.4019
 6053TIP3    H239575   3.579   6.106   2.803 -0.4755 -0.4725 -0.7175
 6054TIP3   OH239576   2.741   0.036   0.782  0.5869  0.2189  0.0873
 6054TIP3    H139577   2.755   0.034   0.687 -1.4595 -0.5477 -0.2462
 6054TIP3    H239578   2.780  -0.046   0.813 -1.2244 -0.9183 -0.5243
 6055TIP3   OH239579   0.633   0.313   3.425  0.1472  0.3963 -0.5774
 6055TIP3    H139580   0.581   0.375   3.374  0.2609  0.0166 -1.1586
 6055TIP3    H239581   0.665   0.249   3.361 -0.6901 -0.7764  0.1444
 6056TIP3   OH239582   4.277   4.155  13.962 -0.6200  0.0853 -0.1656
 6056TIP3    H139583   4.257   4.241  13.925  1.3120  0.6530 -0.0216
 6056TIP3    H239584   4.308   4.104  13.887  0.0365  0.1417  0.0605
 6057TIP3   OH239585   1.572   3.441  13.131 -0.3880  0.0226  0.1006
 6057TIP3    H139586   1.540   3.358  13.097 -0.8441  0.2088  0.0687
 6057TIP3    H239587   1.548   3.505  13.064  0.9077  0.0328 -0.3781
 6058TIP3   OH239588   5.317   3.207  13.791  0.5594 -0.4179  0.0976
 6058TIP3    H139589   5.317   3.122  13.748  0.1290 -0.3638 -0.0081
 6058TIP3    H239590   5.410   3.232  13.794  0.6925 -0.9222  0.1969
 6059TIP3   OH239591   0.259   0.469  12.142 -0.4605  0.0084 -0.2472
 6059TIP3    H139592   0.176   0.436  12.106 -1.2045  1.4188  0.0957
 6059TIP3    H239593   0.237   0.555  12.176  0.8499 -0.1601  1.1184
 6060TIP3   OH239594   2.989   3.588  15.690 -0.1426  0.2296 -0.0701
 6060TIP3    H139595   2.932   3.512  15.696  0.4975 -0.1927  1.0012
 6060TIP3    H239596   2.934   3.662  15.716 -0.5268  0.0070 -0.2521
 6061TIP3   OH239597   4.717   0.182   3.307  0.0091  0.1908 -0.5877
 6061TIP3    H139598   4.687   0.091   3.305  3.2502 -0.9910 -0.0594
 6061TIP3    H239599   4.725   0.202   3.401  1.0146  0.3707 -0.7011
 6062TIP3   OH239600   4.762   5.006  13.929 -0.3233  0.5207  0.3000
 6062TIP3    H139601   4.696   5.058  13.884  0.6568  1.5991  0.0884
 6062TIP3    H239602   4.711   4.941  13.979 -1.4856  0.6598 -0.6761
 6063TIP3   OH239603   3.652   0.871   3.344  0.2631  0.4980 -0.3200
 6063TIP3    H139604   3.722   0.813   3.375 -1.0003 -0.0565  1.6726
 6063TIP3    H239605   3.627   0.836   3.259  3.3101  1.5467 -1.7812
 6064TIP3   OH239606   5.488   1.810  11.236  0.2015 -0.0204 -0.6407
 6064TIP3    H139607   5.413   1.763  11.201  0.1183 -0.8486  0.6078
 6064TIP3    H239608   5.454   1.898  11.255 -0.1526 -0.0550 -1.0838
 6065TIP3   OH239609   2.540   5.701   4.097 -0.4731 -0.5821  0.6286
 6065TIP3    H139610   2.596   5.773   4.070 -1.4205  0.3668  1.0969
 6065TIP3    H239611   2.561   5.687   4.190 -1.4202  0.1948  0.9742
 6066TIP3   OH239612   2.361   0.253   1.359 -0.4489 -0.1505  0.6085
 6066TIP3    H139613   2.397   0.329   1.405  1.8814 -0.5849 -0.3446
 6066TIP3    H239614   2.276   0.283   1.325 -0.7056  1.1935  2.3311
 6067TIP3   OH239615   0.278   6.199   4.208  0.3165 -0.7220  0.5122
 6067TIP3    H139616   0.358   6.245   4.181  0.0774 -0.4633  0.2365
 6067TIP3    H239617   0.241   6.255   4.276  1.0521 -1.5021  1.5803
 6068TIP3   OH239618   2.979   4.659   2.215 -0.0685  0.0543  0.3788
 6068TIP3    H139619   2.959   4.595   2.284 -2.6674 -1.6426 -1.7296
 6068TIP3    H239620   3.041   4.613   2.158  2.2992  1.5569  1.5792
 6069TIP3   OH239621   4.403   4.528  16.449  0.1011 -0.1932  0.0890
 6069TIP3    H139622   4.407   4.601  16.510  0.4624  0.7464 -1.0098
 6069TIP3    H239623   4.344   4.557  16.380  0.8309 -0.6222 -0.7423
 6070TIP3   OH239624   2.440   0.893  16.912  0.6905  0.5572 -0.1064
 6070TIP3    H139625   2.419   0.979  16.948 -0.1469  0.4933 -0.4041
 6070TIP3    H239626   2.444   0.907  16.818  0.7900  0.3144 -0.1390
 6071TIP3   OH239627   1.096   1.069  13.384 -0.1944  0.5584 -0.3717
 6071TIP3    H139628   1.031   1.005  13.413  0.6540  0.0236  0.3697
 6071TIP3    H239629   1.164   1.067  13.451 -0.2516  2.4156 -0.2027
 6072TIP3   OH239630   3.123   0.407  10.989  0.0663 -0.2962 -0.1499
 6072TIP3    H139631   3.033   0.423  11.017 -0.1344  1.4089 -1.6160
 6072TIP3    H239632   3.170   0.488  11.009  0.7819 -0.4055 -1.2914
 6073TIP3   OH239633   4.446   3.097  15.412 -0.3559 -0.3316  0.1279
 6073TIP3    H139634   4.458   3.162  15.480  0.0217  0.9409 -1.1109
 6073TIP3    H239635   4.487   3.018  15.447  0.5880  0.5237  1.0182
 6074TIP3   OH239636   4.870   1.484  12.957  0.0954 -0.1271 -0.1100
 6074TIP3    H139637   4.858   1.578  12.970  0.6607 -0.0853  0.1268
 6074TIP3    H239638   4.791   1.456  12.910  0.3829  0.6600 -1.1040
 6075TIP3   OH239639   2.962   5.661   1.312 -0.3347  0.1175 -0.5860
 6075TIP3    H139640   2.942   5.578   1.270 -0.3206  0.3606 -1.0901
 6075TIP3    H239641   3.055   5.675   1.293 -0.1507 -0.1015  0.1255
 6076TIP3   OH239642   6.185   3.334   3.956 -0.2479 -0.1645 -0.8909
 6076TIP3    H139643   6.278   3.339   3.978 -0.2650  2.1224 -1.1894
 6076TIP3    H239644   6.149   3.272   4.020  0.8330  1.7014  1.7041
 6077TIP3   OH239645   2.449   5.345   2.803  1.0439 -0.7305  0.5999
 6077TIP3    H139646   2.387   5.276   2.826  0.6880 -0.2136  1.2176
 6077TIP3    H239647   2.416   5.382   2.721 -0.0750  0.2471  1.4626
 6078TIP3   OH239648   5.114   2.937  15.038  0.3755 -0.4317 -0.3076
 6078TIP3    H139649   5.194   2.964  15.083  0.4013 -1.0310  0.0269
 6078TIP3    H239650   5.137   2.937  14.945  0.0898  1.6041 -0.4259
 6079TIP3   OH239651   3.705   3.412   0.453 -0.1169 -0.0225 -0.1918
 6079TIP3    H139652   3.619   3.369   0.456  1.1235 -2.7391 -0.3073
 6079TIP3    H239653   3.713   3.444   0.364 -0.9708  0.1507 -0.2085
 6080TIP3   OH239654   3.561   0.998   3.745 -0.2334 -0.2761  0.0248
 6080TIP3    H139655   3.480   1.048   3.757 -0.6079 -0.8200 -0.2232
 6080TIP3    H239656   3.603   1.040   3.670 -0.7230 -0.5599 -0.4119
 6081TIP3   OH239657   4.186   2.033  12.256 -0.1810 -0.4447 -0.7247
 6081TIP3    H139658   4.155   2.020  12.166 -1.7575  0.1420 -0.3030
 6081TIP3    H239659   4.236   2.114  12.253 -0.0119 -0.5624 -1.1168
 6082TIP3   OH239660   1.103   5.871   4.280  0.5313  0.3271  0.2445
 6082TIP3    H139661   1.117   5.795   4.223  1.4257 -0.0470  0.9568
 6082TIP3    H239662   1.144   5.847   4.363 -0.8752  0.8057  1.1187
 6083TIP3   OH239663   5.787   2.775  14.890  0.5038  0.1172 -0.2727
 6083TIP3    H139664   5.701   2.780  14.849  1.3744  0.3325 -2.1680
 6083TIP3    H239665   5.798   2.859  14.934 -0.4785 -0.1446  0.4976
 6084TIP3   OH239666   4.850   2.310   1.461  0.2375  0.8213 -1.0490
 6084TIP3    H139667   4.837   2.216   1.445 -1.7640  0.8325  0.1141
 6084TIP3    H239668   4.945   2.321   1.463  0.5827 -1.5417  0.5457
 6085TIP3   OH239669   2.568   4.566  10.603 -0.3372  0.5968 -0.6847
 6085TIP3    H139670   2.584   4.487  10.655 -2.4649  0.6547  0.1471
 6085TIP3    H239671   2.507   4.538  10.535 -1.6566  1.6311  0.0261
 6086TIP3   OH239672   6.079   6.133   4.558  0.2637 -0.2090 -0.0899
 6086TIP3    H139673   5.992   6.129   4.598  0.8620 -0.2270  1.2711
 6086TIP3    H239674   6.090   6.047   4.517  0.7475 -1.3277  2.2252
 6087TIP3   OH239675   6.282   4.553   2.562 -0.1307  0.3697 -0.5922
 6087TIP3    H139676   6.262   4.518   2.475 -1.2386  1.0017 -0.6100
 6087TIP3    H239677   6.302   4.645   2.546 -1.2928  0.7314 -0.0925
 6088TIP3   OH239678   1.503   2.583  14.839  0.0129  0.3021 -0.3519
 6088TIP3    H139679   1.480   2.502  14.792  3.0062 -0.6298 -0.4559
 6088TIP3    H239680   1.483   2.563  14.931  1.0089 -0.7245 -0.3312
 6089TIP3   OH239681   3.669   6.412   6.283  0.3461 -0.1010  0.0540
 6089TIP3    H139682   3.662   6.464   6.203  0.1580  0.4464  0.4171
 6089TIP3    H239683   3.732   6.459   6.337 -0.9484  0.6129  1.0186
 6090TIP3   OH239684   1.033   4.973   1.049  1.0774 -0.1657  0.3213
 6090TIP3    H139685   0.988   5.050   1.012 -0.8784 -1.4427 -0.0852
 6090TIP3    H239686   1.016   4.903   0.987 -1.2504 -2.1001  2.8991
 6091TIP3   OH239687   0.391   5.588  12.222  0.2487  0.2954 -0.0925
 6091TIP3    H139688   0.364   5.496  12.226  1.5536 -0.0658  1.1324
 6091TIP3    H239689   0.310   5.636  12.202 -0.2982 -1.1695 -1.6145
 6092TIP3   OH239690   5.831   2.759  11.021  0.2066 -0.3707  0.2338
 6092TIP3    H139691   5.907   2.817  11.014 -0.0282  0.3887  2.9843
 6092TIP3    H239692   5.760   2.815  11.053 -1.0196 -1.4680 -0.4522
 6093TIP3   OH239693   2.772   4.056  15.047 -0.1598  0.4111  0.0029
 6093TIP3    H139694   2.681   4.077  15.027 -0.7182 -2.0824 -0.4505
 6093TIP3    H239695   2.769   4.014  15.133  0.7148  1.1607  0.4160
 6094TIP3   OH239696   4.921   1.782   4.221 -0.0416 -0.1619  0.7925
 6094TIP3    H139697   5.008   1.785   4.261  0.5951  0.3090 -0.5408
 6094TIP3    H239698   4.934   1.819   4.134 -1.2073 -1.7046 -0.0963
 6095TIP3   OH239699   5.073   3.365   3.141 -0.0619 -0.1777  0.5840
 6095TIP3    H139700   5.094   3.356   3.048 -1.0049 -1.2452  0.4370
 6095TIP3    H239701   5.157   3.379   3.184  0.2688  1.5746 -0.5438
 6096TIP3   OH239702   2.282   0.204  12.093  0.6241 -0.1337 -0.0591
 6096TIP3    H139703   2.313   0.249  12.172 -0.0127 -1.5336  1.0214
 6096TIP3    H239704   2.187   0.203  12.102  0.5378 -0.2296 -0.9072
 6097TIP3   OH239705   2.759   0.201  11.159 -0.3463 -0.4790 -0.0491
 6097TIP3    H139706   2.698   0.274  11.147  0.5458  0.1206 -1.1297
 6097TIP3    H239707   2.836   0.241  11.200 -0.3371 -1.0724  0.5351
 6098TIP3   OH239708   4.619   0.926  16.268 -0.0583  0.2523  0.2886
 6098TIP3    H139709   4.635   0.964  16.354 -0.5875  0.5998  0.2344
 6098TIP3    H239710   4.524   0.917  16.263  0.0495 -1.5800  0.5225
 6099TIP3   OH239711   0.938   4.111  13.679  0.0773  0.2303 -0.1437
 6099TIP3    H139712   0.864   4.071  13.723  0.1703 -0.1855 -0.3633
 6099TIP3    H239713   0.999   4.132  13.750  0.2410 -0.4667 -0.0752
 6100TIP3   OH239714   1.248   2.999  16.546  0.3898  0.1993 -0.2514
 6100TIP3    H139715   1.263   3.009  16.452  1.6418 -0.9301 -0.2074
 6100TIP3    H239716   1.246   3.088  16.580  0.8329  0.5911 -1.2227
 6101TIP3   OH239717   0.849   2.707   5.563 -0.0819  0.0526 -0.2721
 6101TIP3    H139718   0.805   2.788   5.540  0.2795  0.5666  0.7686
 6101TIP3    H239719   0.779   2.649   5.593 -0.1875  0.4681  0.2914
 6102TIP3   OH239720   2.944   5.884  15.831 -0.0650 -0.0971 -0.5752
 6102TIP3    H139721   2.971   5.860  15.743 -0.3599 -0.3539 -0.5969
 6102TIP3    H239722   3.024   5.917  15.872 -0.2032  1.2771 -1.3531
 6103TIP3   OH239723   6.576   6.673   4.923 -0.0872 -0.1981 -0.0379
 6103TIP3    H139724   6.596   6.619   4.999  0.7360 -0.6699 -0.5734
 6103TIP3    H239725   6.544   6.612   4.857 -0.2713  0.1260 -0.2533
 6104TIP3   OH239726   2.199   1.979  13.798 -0.4213 -0.0336 -0.4708
 6104TIP3    H139727   2.164   2.019  13.878  0.3102  0.2128 -0.2685
 6104TIP3    H239728   2.130   1.991  13.733 -0.0298  2.0840 -0.5729
 6105TIP3   OH239729   0.889   1.353   2.925 -0.2527  0.5607  0.3213
 6105TIP3    H139730   0.981   1.373   2.945 -0.2317 -0.0821  0.9315
 6105TIP3    H239731   0.894   1.283   2.860 -0.3052  0.3553  0.5370
 6106TIP3   OH239732   1.754   1.022   2.759 -0.2354  0.3541 -0.1002
 6106TIP3    H139733   1.670   0.979   2.742 -0.5674  0.9083  0.1138
 6106TIP3    H239734   1.801   1.016   2.675 -0.0272 -0.9312  0.0786
 6107TIP3   OH239735   5.330   4.345  12.581  0.3712  0.3419 -0.4555
 6107TIP3    H139736   5.284   4.268  12.616 -0.0164  1.8302  2.6812
 6107TIP3    H239737   5.409   4.352  12.635 -0.0231  2.5495 -0.0495
 6108TIP3   OH239738   5.388   5.053   5.017 -0.1720 -0.2610  0.3635
 6108TIP3    H139739   5.299   5.071   5.046  0.3192  2.4402  0.4527
 6108TIP3    H239740   5.440   5.054   5.097  0.2015  0.1782  0.1193
 6109TIP3   OH239741   5.184   4.703  13.112  0.6524 -0.0299  0.5221
 6109TIP3    H139742   5.099   4.669  13.141  0.4837  0.8777  1.1351
 6109TIP3    H239743   5.162   4.782  13.062  1.1634  0.7833  1.5343
 6110TIP3   OH239744   2.911   5.107   4.592 -0.0385  0.4997  0.3220
 6110TIP3    H139745   2.840   5.116   4.529 -1.6233 -0.5299  1.8817
 6110TIP3    H239746   2.904   5.184   4.648  1.9615  1.9172 -1.2132
 6111TIP3   OH239747   3.908   1.661   5.448  0.8668  0.1483  0.0786
 6111TIP3    H139748   3.869   1.738   5.407  0.2561 -0.1879  0.0210
 6111TIP3    H239749   3.873   1.587   5.399 -2.0720 -0.4848  2.7867
 6112TIP3   OH239750   1.974   3.289   4.835  0.0859  0.5185 -0.2556
 6112TIP3    H139751   1.942   3.254   4.918  0.4852  0.4948 -0.1105
 6112TIP3    H239752   1.896   3.294   4.780 -0.4398  1.7755  0.5529
 6113TIP3   OH239753   3.947   5.081   0.741 -0.1048 -0.4997 -0.1113
 6113TIP3    H139754   3.861   5.041   0.729  0.0396 -0.3840 -1.8793
 6113TIP3    H239755   3.934   5.173   0.718  0.2820 -0.2465  0.6347
 6114TIP3   OH239756   4.307   1.694  17.106 -0.0092  0.2359 -0.2921
 6114TIP3    H139757   4.397   1.703  17.137  0.5311  0.1976 -1.7573
 6114TIP3    H239758   4.310   1.620  17.045 -0.7080  1.0889 -1.4112
 6115TIP3   OH239759   2.675   2.525   2.594 -0.1818  0.3590 -0.0394
 6115TIP3    H139760   2.608   2.460   2.616  0.3687  0.3503  1.7139
 6115TIP3    H239761   2.629   2.609   2.600 -0.5995  0.2357 -1.1767
 6116TIP3   OH239762   4.158   5.684   4.307  0.7647 -0.0823  0.1115
 6116TIP3    H139763   4.186   5.664   4.218 -0.8354  1.4566 -0.7954
 6116TIP3    H239764   4.201   5.766   4.328  0.0755  0.2673  0.2044
 6117TIP3   OH239765   1.334   3.605   0.354  0.3734  0.0686  0.0507
 6117TIP3    H139766   1.366   3.570   0.271 -0.1861  1.6240 -0.8648
 6117TIP3    H239767   1.411   3.610   0.410  1.3365  1.5747 -1.3244
 6118TIP3   OH239768   6.052   5.092  10.141  0.0188 -0.2622 -0.1061
 6118TIP3    H139769   5.963   5.111  10.112  0.6733  1.8859 -0.9166
 6118TIP3    H239770   6.057   5.131  10.229  0.5748  1.0189 -0.6816
 6119TIP3   OH239771   6.451   3.639  13.656 -0.0598  0.0894  0.6350
 6119TIP3    H139772   6.545   3.633  13.671  0.0358 -0.1118 -0.0334
 6119TIP3    H239773   6.426   3.552  13.623 -0.4216  0.2396  0.5064
 6120TIP3   OH239774   0.382   2.003  12.410  0.6641 -0.0322  0.0209
 6120TIP3    H139775   0.291   1.993  12.381  1.0615 -1.6806 -0.8251
 6120TIP3    H239776   0.424   2.054  12.342  0.9376 -1.5067 -0.9760
 6121TIP3   OH239777   3.157   0.996  16.278 -0.1719  0.2422 -0.9234
 6121TIP3    H139778   3.200   1.028  16.199  0.4255 -0.1194 -0.7531
 6121TIP3    H239779   3.213   0.924  16.308 -1.1576 -0.5714 -0.9749
 6122TIP3   OH239780   5.784   1.080   2.706  0.3962 -0.2610  0.2187
 6122TIP3    H139781   5.838   1.030   2.645  0.5405  1.0457 -0.7651
 6122TIP3    H239782   5.796   1.036   2.790  1.7123 -0.9633 -0.3133
 6123TIP3   OH239783   0.073   6.310   6.427  0.4279 -0.1815 -0.1118
 6123TIP3    H139784   0.158   6.354   6.421  1.2665 -1.8388 -1.0150
 6123TIP3    H239785   0.017   6.357   6.366  0.1807  1.9041  1.5895
 6124TIP3   OH239786   3.423   3.750   4.633 -0.1777  0.0957  0.3003
 6124TIP3    H139787   3.370   3.797   4.568 -0.2864 -0.3561  0.0574
 6124TIP3    H239788   3.382   3.772   4.717  1.1041  2.2243  0.4382
 6125TIP3   OH239789   0.763   1.851  15.336 -0.0048  0.1589 -0.1179
 6125TIP3    H139790   0.793   1.764  15.309 -0.2666  0.7117 -2.3830
 6125TIP3    H239791   0.817   1.872  15.413  3.0846 -0.2769 -2.0072
 6126TIP3   OH239792   5.810   3.373   3.395  0.0424 -0.2397 -0.1558
 6126TIP3    H139793   5.782   3.312   3.463  1.6571 -1.4626 -0.5268
 6126TIP3    H239794   5.905   3.374   3.402  0.2228 -0.1447 -2.1905
 6127TIP3   OH239795   0.745   5.058  11.049 -0.0693  0.8647 -0.5800
 6127TIP3    H139796   0.745   5.154  11.054  1.4093  0.9832 -1.7450
 6127TIP3    H239797   0.787   5.040  10.965 -0.4840 -0.8140 -0.4478
 6128TIP3   OH239798   6.314   5.886  14.167 -0.4266 -0.2970 -0.3653
 6128TIP3    H139799   6.377   5.939  14.118 -0.0288 -0.2725  0.1627
 6128TIP3    H239800   6.327   5.911  14.258  0.0891 -1.6109 -0.0526
 6129TIP3   OH239801   5.078   1.619  14.156 -0.2352  0.1944 -0.0809
 6129TIP3    H139802   5.035   1.662  14.082 -0.2640  2.6585  1.2528
 6129TIP3    H239803   5.161   1.667  14.167 -0.6584  0.5724  2.0186
 6130TIP3   OH239804   4.215   2.553   3.354  0.4031 -0.5273  0.0210
 6130TIP3    H139805   4.276   2.486   3.321 -0.4298 -0.8612 -0.9169
 6130TIP3    H239806   4.271   2.622   3.389  1.3017 -2.5421  2.8588
 6131TIP3   OH239807   1.319   2.104  16.538  0.2570  0.3907 -0.3619
 6131TIP3    H139808   1.362   2.020  16.555  1.9084  1.1636 -0.4374
 6131TIP3    H239809   1.227   2.089  16.557 -0.1809 -2.4034 -3.5934
 6132TIP3   OH239810   1.390   3.954   2.282  0.2759  1.0268 -0.1699
 6132TIP3    H139811   1.449   3.908   2.223  0.1467 -0.9002  1.1140
 6132TIP3    H239812   1.376   4.039   2.241  2.5593  0.8964 -1.3657
 6133TIP3   OH239813   4.073   5.920   2.874 -0.1070  0.4526  0.5052
 6133TIP3    H139814   4.005   5.961   2.821 -1.4330 -0.9794  1.0254
 6133TIP3    H239815   4.148   5.980   2.868 -0.5722  0.8922 -2.0189
 6134TIP3   OH239816   2.798   3.993   1.722 -0.0531  0.4980 -0.3207
 6134TIP3    H139817   2.729   4.054   1.745 -1.1207 -1.0472  0.8030
 6134TIP3    H239818   2.771   3.958   1.637 -2.1796 -2.0284  1.2509
 6135TIP3   OH239819   0.133   3.965  16.823 -0.1619  0.0191 -0.6510
 6135TIP3    H139820   0.194   4.027  16.784  0.0115 -1.0912 -2.2687
 6135TIP3    H239821   0.185   3.919  16.889  0.7041 -0.6609 -1.7597
 6136TIP3   OH239822   4.515   1.064  13.186 -0.1716  0.2538 -0.4395
 6136TIP3    H139823   4.543   0.980  13.224 -2.1635  0.2436  1.2414
 6136TIP3    H239824   4.570   1.129  13.229  0.1002 -0.0658 -0.3008
 6137TIP3   OH239825   2.720   0.212   0.394  0.0375 -0.0982 -0.2343
 6137TIP3    H139826   2.808   0.247   0.406 -0.3528  0.8686 -0.0803
 6137TIP3    H239827   2.727   0.150   0.322  1.2005 -1.3562  0.9202
 6138TIP3   OH239828   4.465   1.978  12.781  0.2365 -0.3695 -0.1371
 6138TIP3    H139829   4.547   1.954  12.737  0.6857 -1.1186  1.0337
 6138TIP3    H239830   4.487   1.973  12.875 -0.2848  2.4369  0.2342
 6139TIP3   OH239831   3.681   4.661  16.465  1.2453 -0.3029  0.0146
 6139TIP3    H139832   3.735   4.733  16.430  0.1549  1.3713  1.5953
 6139TIP3    H239833   3.709   4.653  16.556  0.1334 -0.6861  0.3351
 6140TIP3   OH239834   3.290   0.225  14.935  0.3938  0.6484 -0.0418
 6140TIP3    H139835   3.211   0.201  14.984  0.1578  2.0116  0.2701
 6140TIP3    H239836   3.347   0.148  14.943 -0.9827 -0.4459 -0.4813
 6141TIP3   OH239837   6.167   0.172  14.485 -0.5097  0.1793 -0.1460
 6141TIP3    H139838   6.206   0.252  14.519 -0.3057  0.5568 -1.2131
 6141TIP3    H239839   6.118   0.135  14.559  1.5928 -0.1565  1.1501
 6142TIP3   OH239840   6.516   6.403  14.440 -0.2688 -0.0661  0.3829
 6142TIP3    H139841   6.578   6.340  14.477 -0.8793  0.6581  2.8026
 6142TIP3    H239842   6.523   6.391  14.346  1.5320 -1.9144  0.6909
 6143TIP3   OH239843   4.421   6.668  12.483 -0.0683 -0.3905 -0.5200
 6143TIP3    H139844   4.443   6.576  12.467  0.5840 -0.3298 -0.0330
 6143TIP3    H239845   4.331   6.678  12.450 -0.8370 -1.6660  1.0227
 6144TIP3   OH239846   3.454   1.727  16.643  0.0790  0.0401 -0.4116
 6144TIP3    H139847   3.364   1.739  16.675  0.7787  0.5589  1.4564
 6144TIP3    H239848   3.465   1.632  16.640 -0.1058 -0.0314  0.6800
 6145TIP3   OH239849   5.572   3.841  11.859  0.4387 -0.2587  0.3869
 6145TIP3    H139850   5.523   3.923  11.858  1.4676  0.3687 -0.3116
 6145TIP3    H239851   5.507   3.774  11.835  0.0379  0.6284 -1.1152
 6146TIP3   OH239852   6.632   0.302  17.020 -0.1056 -0.1029 -0.1207
 6146TIP3    H139853   6.677   0.387  17.028 -1.0649  0.4660 -0.6437
 6146TIP3    H239854   6.665   0.251  17.095 -1.1750  1.4940  1.5319
 6147TIP3   OH239855   0.260   5.573   6.195  0.0998 -0.9934  0.1413
 6147TIP3    H139856   0.269   5.668   6.188 -0.1763 -0.9963 -0.3375
 6147TIP3    H239857   0.345   5.543   6.226  0.1374 -0.5752  0.4596
 6148TIP3   OH239858   1.305   4.167   5.342  0.2554 -0.3875 -0.2378
 6148TIP3    H139859   1.392   4.204   5.327 -0.2341  1.0898  0.3383
 6148TIP3    H239860   1.297   4.163   5.437 -0.1865 -0.7943 -0.2914
 6149TIP3   OH239861   1.819   3.624   1.350 -0.1352 -0.2180 -0.6822
 6149TIP3    H139862   1.838   3.591   1.261 -1.4026  1.0001 -1.4441
 6149TIP3    H239863   1.834   3.718   1.344 -0.7521 -0.0551  0.2632
 6150TIP3   OH239864   6.623   2.701  14.920  0.6218 -0.0195 -0.1762
 6150TIP3    H139865   6.637   2.636  14.852  0.7942  1.1060 -1.2623
 6150TIP3    H239866   6.642   2.655  15.002  1.8795 -1.0146 -0.9834
 6151TIP3   OH239867   0.623   3.125   3.913  0.0046  0.4042 -0.1231
 6151TIP3    H139868   0.649   3.162   3.997  0.5301  0.4043 -0.2843
 6151TIP3    H239869   0.692   3.151   3.853 -0.0127 -0.1847 -0.4060
 6152TIP3   OH239870   3.447   1.406   0.144  0.0285  0.4871 -0.6576
 6152TIP3    H139871   3.369   1.374   0.098  0.5780  1.8823 -2.6925
 6152TIP3    H239872   3.515   1.407   0.077  1.7383 -0.3187  0.9735
 6153TIP3   OH239873   1.250   1.906   5.264 -0.0103  0.4671  0.7638
 6153TIP3    H139874   1.323   1.954   5.225 -0.5172  1.8077  1.3747
 6153TIP3    H239875   1.174   1.963   5.250 -1.1413 -1.3007 -0.6549
 6154TIP3   OH239876   6.465   1.668   5.134 -0.6193  0.3267  0.2432
 6154TIP3    H139877   6.419   1.634   5.210  0.8505 -0.0978  0.9631
 6154TIP3    H239878   6.550   1.696   5.167 -0.7486  2.1597 -0.8428
 6155TIP3   OH239879   1.290   4.228   6.188 -0.2893 -0.7446  0.1929
 6155TIP3    H139880   1.331   4.144   6.210 -0.7349 -0.6859  1.3342
 6155TIP3    H239881   1.307   4.283   6.265 -0.8440 -0.1041 -0.1366
 6156TIP3   OH239882   0.905   5.175   0.861 -0.3021  0.3322 -0.4064
 6156TIP3    H139883   0.817   5.177   0.824  0.5430  0.7929 -2.5391
 6156TIP3    H239884   0.954   5.239   0.810  1.2942  0.0589  0.6989
 6157TIP3   OH239885   5.310   3.632  13.463 -0.3064  0.3140  0.0133
 6157TIP3    H139886   5.216   3.616  13.458 -0.0983 -0.6730 -1.4941
 6157TIP3    H239887   5.329   3.690  13.389  0.4129 -0.4186 -0.4022
 6158TIP3   OH239888   2.434   6.330   2.338 -0.6944 -0.2916  0.2800
 6158TIP3    H139889   2.514   6.363   2.295  0.8198 -0.6465  2.6307
 6158TIP3    H239890   2.382   6.408   2.354  0.4296  0.3330  1.0551
 6159TIP3   OH239891   4.046   1.111  12.334 -0.0575  0.1787  0.3419
 6159TIP3    H139892   3.995   1.179  12.290  0.1593 -0.8649 -1.6291
 6159TIP3    H239893   4.033   1.127  12.427 -0.5046  2.5273 -0.0740
 6160TIP3   OH239894   5.499   5.438   4.712 -0.2961  0.1379  0.2399
 6160TIP3    H139895   5.514   5.392   4.795 -1.3042  0.0165  0.3706
 6160TIP3    H239896   5.569   5.503   4.707 -0.0030 -0.1119  1.0049
 6161TIP3   OH239897   1.575   3.032   5.444 -0.2608 -0.3932  0.4301
 6161TIP3    H139898   1.668   3.030   5.421 -0.2140 -1.6064  0.6341
 6161TIP3    H239899   1.554   3.125   5.454  1.4381 -0.1537  2.4486
 6162TIP3   OH239900   0.886   6.139   3.387  0.1828  0.4438  0.1585
 6162TIP3    H139901   0.973   6.175   3.400  0.9417 -1.0396 -0.5057
 6162TIP3    H239902   0.874   6.078   3.460 -0.6616  1.2487  0.7148
 6163TIP3   OH239903   0.103   4.214  14.655 -0.4213  0.0770 -0.1762
 6163TIP3    H139904   0.139   4.148  14.714  1.4763  0.9211 -0.2973
 6163TIP3    H239905   0.138   4.192  14.569 -0.6319  0.6172 -0.4080
 6164TIP3   OH239906   4.846   3.832  11.481  0.1730 -0.3293  0.1819
 6164TIP3    H139907   4.888   3.894  11.422  0.1414  1.3278  1.8021
 6164TIP3    H239908   4.765   3.876  11.508 -0.9649 -2.0257 -0.2808
 6165TIP3   OH239909   5.724   3.816   0.901  0.1499  0.3600  0.0579
 6165TIP3    H139910   5.752   3.898   0.862  0.2755 -0.2336 -1.1521
 6165TIP3    H239911   5.724   3.833   0.995  0.1152  1.7491 -0.1697
 6166TIP3   OH239912   2.880   1.824  10.661  0.3692  0.3046  0.0274
 6166TIP3    H139913   2.913   1.838  10.572 -0.6122  1.6409 -0.1556
 6166TIP3    H239914   2.861   1.730  10.665  0.4769  0.2190 -1.1458
 6167TIP3   OH239915   1.920   2.947   0.855 -0.2553  0.2865 -0.4851
 6167TIP3    H139916   1.934   2.986   0.768  0.2008  0.2448 -0.4313
 6167TIP3    H239917   1.861   3.009   0.899 -1.6069 -0.3650 -1.2929
 6168TIP3   OH239918   5.854   6.108   5.576  0.3380  0.4718 -0.5277
 6168TIP3    H139919   5.792   6.049   5.534 -0.3520 -0.5212  1.7198
 6168TIP3    H239920   5.938   6.062   5.574  0.2492  0.3162 -0.5986
 6169TIP3   OH239921   5.182   2.308  16.069  0.1955 -0.0681 -0.0653
 6169TIP3    H139922   5.151   2.335  15.983 -0.3439 -0.1234  0.1124
 6169TIP3    H239923   5.121   2.239  16.096  0.6906 -0.4421  0.1192
 6170TIP3   OH239924   3.930   1.694  13.177 -0.2235  0.1149 -0.4441
 6170TIP3    H139925   3.945   1.723  13.266 -0.1496 -0.7784 -0.1489
 6170TIP3    H239926   3.998   1.737  13.125 -0.5100  0.9450 -0.1436
 6171TIP3   OH239927   5.106   4.778   3.496  0.2946 -0.5680  0.1309
 6171TIP3    H139928   5.086   4.860   3.541  1.9570 -1.0710  1.9274
 6171TIP3    H239929   5.150   4.805   3.415 -3.4212  0.3738 -1.7982
 6172TIP3   OH239930   5.242   1.726   4.142  0.0809 -0.6912  0.7698
 6172TIP3    H139931   5.181   1.669   4.095 -3.2751  3.9749 -1.2640
 6172TIP3    H239932   5.213   1.722   4.234 -0.3639 -1.8161  0.5955
 6173TIP3   OH239933   1.619   2.089  12.412  0.4740 -0.6607 -0.4349
 6173TIP3    H139934   1.703   2.062  12.373  0.5264 -0.2221 -0.6372
 6173TIP3    H239935   1.553   2.054  12.353  0.5518 -0.0399 -0.9043
 6174TIP3   OH239936   6.506   5.446  15.011 -0.5635 -0.2589  0.0102
 6174TIP3    H139937   6.425   5.407  14.978  0.4073 -1.3840 -1.1314
 6174TIP3    H239938   6.551   5.375  15.055  0.4630 -0.0174 -0.6230
 6175TIP3   OH239939   0.315   2.041   0.307  0.1837  0.2337  0.3022
 6175TIP3    H139940   0.368   1.963   0.291 -0.1682 -0.3095  1.6502
 6175TIP3    H239941   0.248   2.039   0.238 -0.9783 -1.7455  1.3793
 6176TIP3   OH239942   2.868   1.795   3.817 -0.3023  0.2407 -0.3359
 6176TIP3    H139943   2.803   1.732   3.849  0.9852 -0.9307  0.0844
 6176TIP3    H239944   2.952   1.754   3.837  0.5811  0.8386 -2.5420
 6177TIP3   OH239945   1.590   4.494  10.878 -0.4159 -0.2981 -0.0893
 6177TIP3    H139946   1.498   4.466  10.876 -0.4408 -0.1725 -0.9160
 6177TIP3    H239947   1.586   4.588  10.895 -0.4386 -0.3132 -0.0135
 6178TIP3   OH239948   0.144   2.218   3.255 -0.0334 -0.1989  0.0987
 6178TIP3    H139949   0.239   2.229   3.261 -0.1802  0.1601  3.0161
 6178TIP3    H239950   0.115   2.286   3.194  1.3347  1.3277  1.0892
 6179TIP3   OH239951   2.231   5.519   4.286  0.2463 -0.6269 -0.1626
 6179TIP3    H139952   2.240   5.593   4.346  0.1517 -1.3246  0.7363
 6179TIP3    H239953   2.156   5.540   4.230 -0.2992 -0.4207  0.6413
 6180TIP3   OH239954   0.385   2.634   5.978 -0.0557  0.5771 -0.9271
 6180TIP3    H139955   0.349   2.590   6.054  1.8281 -2.0546 -1.4134
 6180TIP3    H239956   0.419   2.717   6.011 -1.3593  0.5474  0.5794
 6181TIP3   OH239957   5.316   4.588  12.904  0.5383  0.2395  0.5907
 6181TIP3    H139958   5.280   4.620  12.986 -0.0201  0.2544  0.3440
 6181TIP3    H239959   5.343   4.667  12.857  2.2799  0.1702  1.3793
 6182TIP3   OH239960   2.400   0.644   5.530 -0.5385 -0.1482  0.1699
 6182TIP3    H139961   2.315   0.648   5.574 -0.0009 -0.7407  1.3447
 6182TIP3    H239962   2.447   0.575   5.578  0.4671 -0.0791 -0.6936
 6183TIP3   OH239963   2.372   5.671  11.785 -0.2822  0.2030 -0.0362
 6183TIP3    H139964   2.401   5.633  11.868 -0.3674 -0.0345 -0.1141
 6183TIP3    H239965   2.435   5.638  11.720 -0.1617  0.4625 -0.0501
 6184TIP3   OH239966   0.182   4.770  15.317  0.5589 -0.4472  0.2484
 6184TIP3    H139967   0.241   4.719  15.373 -2.2126 -2.9958  1.0953
 6184TIP3    H239968   0.148   4.706  15.255  0.8166  1.5745 -2.1130
 6185TIP3   OH239969   6.083   2.137  11.931  0.1279 -0.0110  0.8544
 6185TIP3    H139970   6.045   2.152  11.844 -0.7173  0.0857  1.2327
 6185TIP3    H239971   6.112   2.224  11.959 -0.0372  0.0403  0.8692
 6186TIP3   OH239972   6.174   1.434  16.226 -0.0623 -0.0881  0.2481
 6186TIP3    H139973   6.147   1.459  16.137 -1.5812 -1.8221  0.1545
 6186TIP3    H239974   6.256   1.386  16.212 -1.2725 -2.0688 -0.5318
 6187TIP3   OH239975   5.971   0.239  14.948  0.2956 -0.5842 -0.2325
 6187TIP3    H139976   5.888   0.276  14.917  0.2320  0.6450  1.2538
 6187TIP3    H239977   5.947   0.191  15.027  1.2810  2.4598  2.1336
 6188TIP3   OH239978   3.741   2.398  13.374 -0.7445 -0.3991 -0.0522
 6188TIP3    H139979   3.714   2.476  13.326 -0.7507 -0.6564 -0.4707
 6188TIP3    H239980   3.799   2.431  13.443 -1.1002  0.0190  0.0521
 6189TIP3   OH239981   5.519   5.080   0.380 -0.3653 -0.6611  0.8880
 6189TIP3    H139982   5.580   5.131   0.327 -2.9075  1.3562 -0.3621
 6189TIP3    H239983   5.513   5.128   0.462 -0.6428 -0.5525  0.8054
 6190TIP3   OH239984   5.176   0.919  11.456 -0.0665 -0.2051 -0.1151
 6190TIP3    H139985   5.140   0.957  11.376 -0.5434  2.3039  1.1981
 6190TIP3    H239986   5.264   0.890  11.432 -0.9831 -1.5801 -2.0557
 6191TIP3   OH239987   3.131   4.304  14.744 -0.9816  0.1422 -0.4554
 6191TIP3    H139988   3.100   4.366  14.811 -2.5847 -1.3850  0.2831
 6191TIP3    H239989   3.054   4.286  14.691  0.1236  0.8268 -2.3959
 6192TIP3   OH239990   0.444   4.590   6.015  0.6492 -0.2767 -0.2327
 6192TIP3    H139991   0.516   4.527   6.008 -0.0685 -1.0573 -0.8409
 6192TIP3    H239992   0.372   4.540   6.053  0.3278  0.4112  0.0773
 6193TIP3   OH239993   3.934   3.391  15.108  0.0184  0.0894 -0.0578
 6193TIP3    H139994   3.950   3.303  15.143  0.4573  0.4321  0.6173
 6193TIP3    H239995   3.855   3.381  15.055  0.8573 -1.0243 -1.1520
 6194TIP3   OH239996   5.841   3.806   5.381 -0.3827  0.2801 -0.3039
 6194TIP3    H139997   5.846   3.774   5.291 -2.2176 -2.9159  0.5713
 6194TIP3    H239998   5.808   3.896   5.373  0.4640  0.4466 -2.7821
 6195TIP3   OH239999   4.486   2.096  12.027 -0.1489 -0.0161  0.6934
 6195TIP3    H140000   4.466   2.010  12.063 -1.6674  0.5842  1.3618
 6195TIP3    H240001   4.433   2.103  11.948  0.6322 -0.0097  0.1525
 6196TIP3   OH240002   4.620   1.463   5.439 -0.3856 -0.3261  0.0348
 6196TIP3    H140003   4.714   1.464   5.419 -0.1793 -0.6557  0.9422
 6196TIP3    H240004   4.598   1.371   5.450 -0.8495 -0.2598 -0.3247
 6197TIP3   OH240005   2.870   5.727  16.088  0.3295 -0.2902  0.3189
 6197TIP3    H140006   2.778   5.700  16.079  0.6416 -2.1585  2.0317
 6197TIP3    H240007   2.889   5.774  16.006 -2.2881  0.7026  0.1612
 6198TIP3   OH240008   3.534   1.923  14.529  0.3962 -0.1520  0.7196
 6198TIP3    H140009   3.503   1.992  14.470 -1.2853 -1.0107  0.5167
 6198TIP3    H240010   3.602   1.964  14.582  0.9148  1.0567 -0.8116
 6199TIP3   OH240011   6.396   3.225  15.637 -0.3945  0.2827  0.5869
 6199TIP3    H140012   6.379   3.233  15.543 -0.3017  0.1227  0.5543
 6199TIP3    H240013   6.333   3.284  15.678 -1.7000 -1.0053  0.5249
 6200TIP3   OH240014   0.246   4.507  11.552  0.2709  0.5034  0.2882
 6200TIP3    H140015   0.259   4.416  11.525  0.2535  0.0694  1.6772
 6200TIP3    H240016   0.278   4.558  11.478 -0.7364 -0.6168 -0.9892
 6201TIP3   OH240017   4.916   6.370  13.801 -0.0130 -0.0210  0.8589
 6201TIP3    H140018   4.981   6.300  13.809  1.4782  0.8871 -2.0990
 6201TIP3    H240019   4.841   6.339  13.852  0.8810 -3.3678  0.3453
 6202TIP3   OH240020   6.340   5.920   3.057  0.3929  0.3087  0.1933
 6202TIP3    H140021   6.276   5.957   3.117  0.2973  0.4964 -0.0248
 6202TIP3    H240022   6.416   5.976   3.065  0.0565  0.8799 -0.5411
 6203TIP3   OH240023   3.335   2.070  10.440 -0.2263  0.1544  0.3080
 6203TIP3    H140024   3.346   1.986  10.483 -2.4657  1.0150  2.8087
 6203TIP3    H240025   3.424   2.098  10.418  0.5470 -3.8823 -3.0796
 6204TIP3   OH240026   2.675   3.510  14.087 -0.2540 -0.8816 -0.1304
 6204TIP3    H140027   2.727   3.578  14.045  0.9346 -1.1491  0.8282
 6204TIP3    H240028   2.585   3.543  14.083  0.3158  0.9134  0.5802
 6205TIP3   OH240029   2.477   3.217   0.795  0.3114 -0.2693 -0.7605
 6205TIP3    H140030   2.420   3.172   0.858 -0.6543 -0.0999 -1.4914
 6205TIP3    H240031   2.551   3.158   0.784  0.5571 -0.2514  0.6170
 6206TIP3   OH240032   0.558   5.846   5.028 -0.3176  0.4149 -0.2173
 6206TIP3    H140033   0.577   5.828   5.120 -0.7826  2.3163  0.2963
 6206TIP3    H240034   0.476   5.800   5.011 -0.0165 -0.2864  0.1917
 6207TIP3   OH240035   4.273   2.510  14.864 -0.4079  0.2168 -0.0876
 6207TIP3    H140036   4.327   2.567  14.920  0.9862 -2.1777  1.1499
 6207TIP3    H240037   4.335   2.471  14.803 -1.0643 -1.0051  0.0033
 6208TIP3   OH240038   6.010   0.798   0.942 -0.5279  0.3598  0.4623
 6208TIP3    H140039   6.024   0.713   0.981  0.7281  0.1520 -0.3833
 6208TIP3    H240040   5.929   0.789   0.892 -0.7805 -0.1157  0.9602
 6209TIP3   OH240041   5.039   3.399  11.259 -0.5959  0.2020  1.1181
 6209TIP3    H140042   5.073   3.311  11.243 -1.3200  0.0444  0.3674
 6209TIP3    H240043   4.956   3.401  11.211 -0.6021  1.2861  1.1626
 6210TIP3   OH240044   2.199   6.674  17.024 -0.4801  0.2202  0.2800
 6210TIP3    H140045   2.130   6.608  17.021  1.4784 -1.9291 -0.4954
 6210TIP3    H240046   2.265   6.642  16.963  0.6024  2.9383 -0.1090
 6211TIP3   OH240047   2.749   2.402  15.625  0.9364  0.0175 -0.1360
 6211TIP3    H140048   2.687   2.465  15.660  2.3103  0.9880  0.6608
 6211TIP3    H240049   2.721   2.318  15.660  0.3548  0.5017  0.5752
 6212TIP3   OH240050   2.902   0.185   3.098 -0.5660 -0.4419  0.6498
 6212TIP3    H140051   2.889   0.256   3.161  1.3445  0.1107  0.4959
 6212TIP3    H240052   2.930   0.111   3.150 -1.4629 -0.7586  0.6931
 6213TIP3   OH240053   4.953   3.604  10.392  0.5947  0.5410  0.3162
 6213TIP3    H140054   4.869   3.648  10.396  0.8311  1.0356 -0.1035
 6213TIP3    H240055   4.994   3.622  10.477  0.3252  0.3883  0.4781
 6214TIP3   OH240056   0.065   1.360  12.131 -0.3405  0.0293  0.7841
 6214TIP3    H140057   0.046   1.267  12.144 -0.6821 -0.0292 -0.0595
 6214TIP3    H240058  -0.021   1.401  12.122 -0.1630  0.1543 -0.5474
 6215TIP3   OH240059   5.062   5.029   3.605 -0.5192  0.2712  0.1438
 6215TIP3    H140060   5.070   5.074   3.690  0.2884 -0.5011  0.4928
 6215TIP3    H240061   5.064   5.100   3.541  0.1800  0.7931  0.7175
 6216TIP3   OH240062   1.392   4.467  14.295 -0.2379  0.4534 -0.6476
 6216TIP3    H140063   1.376   4.384  14.340  0.1624 -0.0540 -1.4264
 6216TIP3    H240064   1.363   4.534  14.358 -0.5862 -0.2663 -0.0217
 6217TIP3   OH240065   2.004   1.104  10.771  0.5122  0.0142  0.1879
 6217TIP3    H140066   1.921   1.145  10.747  0.6052 -0.7519 -1.5705
 6217TIP3    H240067   2.051   1.096  10.689  1.5879 -1.2211  0.8926
 6218TIP3   OH240068   6.413   1.996  16.189 -0.2467 -0.0356 -0.0284
 6218TIP3    H140069   6.409   1.925  16.124 -1.4372  0.2012 -0.2422
 6218TIP3    H240070   6.463   2.065  16.146  0.4247 -0.5144 -0.0390
 6219TIP3   OH240071   3.285   4.455   3.882  0.4091 -0.1168 -0.5501
 6219TIP3    H140072   3.242   4.520   3.937 -2.1343 -0.9763 -1.3482
 6219TIP3    H240073   3.320   4.504   3.808 -2.4222  0.3321 -1.6980
 6220TIP3   OH240074   2.394   2.635  15.402 -0.1022  0.3799 -0.4956
 6220TIP3    H140075   2.408   2.591  15.486  0.3154  1.2907 -0.0692
 6220TIP3    H240076   2.454   2.592  15.341 -1.3484 -1.1747 -0.6706
 6221TIP3   OH240077   3.872   0.565   1.621 -0.5753  0.3028  0.6849
 6221TIP3    H140078   3.849   0.657   1.608 -1.0169  0.0866 -0.1096
 6221TIP3    H240079   3.865   0.551   1.715  1.6826  1.6566  1.1248
 6222TIP3   OH240080   5.344   2.605   1.894 -0.2909 -0.1751 -0.5317
 6222TIP3    H140081   5.409   2.534   1.892  0.7122  0.7260 -2.1614
 6222TIP3    H240082   5.395   2.685   1.879 -1.7690  0.5417 -2.1054
 6223TIP3   OH240083   3.236   6.109   0.036  0.5015  0.0968 -0.2612
 6223TIP3    H140084   3.149   6.142   0.013  1.5304  2.2212 -1.4037
 6223TIP3    H240085   3.272   6.078  -0.047  1.0863 -0.1606  0.0843
 6224TIP3   OH240086   6.628   3.534   0.567 -0.2015  0.4120 -0.2895
 6224TIP3    H140087   6.536   3.542   0.592 -0.6331  0.8202 -1.9063
 6224TIP3    H240088   6.629   3.544   0.472  1.6124  1.2174 -0.2407
 6225TIP3   OH240089   5.516   6.639   3.243  0.4494 -0.3482 -0.0256
 6225TIP3    H140090   5.423   6.653   3.261  0.2572 -1.2267 -0.2352
 6225TIP3    H240091   5.555   6.726   3.247 -0.0561 -0.1712  1.8166
 6226TIP3   OH240092   4.981   1.693   2.969  0.4666 -0.0017 -0.0055
 6226TIP3    H140093   5.064   1.710   3.015 -0.0041 -0.6116  1.1037
 6226TIP3    H240094   4.914   1.726   3.028 -0.0819  0.7633 -1.0344
 6227TIP3   OH240095   2.309   4.739  13.743  0.2280  0.2357  0.5200
 6227TIP3    H140096   2.306   4.758  13.649  0.3340 -1.4500  0.1270
 6227TIP3    H240097   2.223   4.702  13.762  0.3411  0.2118  1.0025
 6228TIP3   OH240098   0.498   3.225   6.383  0.5471 -0.5253 -0.0967
 6228TIP3    H140099   0.559   3.299   6.387  0.8843 -0.8414  1.8406
 6228TIP3    H240100   0.538   3.165   6.320  1.1298  0.2160 -0.4511
 6229TIP3   OH240101   2.088   2.077  15.606  0.6135  0.2074 -0.7764
 6229TIP3    H140102   2.017   2.141  15.602 -0.5205 -1.0319 -1.2826
 6229TIP3    H240103   2.079   2.037  15.692 -0.3183 -1.0115 -1.3987
 6230TIP3   OH240104   3.329   1.691   2.108 -0.8717 -0.7404 -0.0975
 6230TIP3    H140105   3.272   1.651   2.042 -0.4232  0.4554 -1.2717
 6230TIP3    H240106   3.300   1.654   2.191 -3.4105 -0.1251 -0.6290
 6231TIP3   OH240107   2.384   6.253   5.108  0.0868  0.5387  0.1010
 6231TIP3    H140108   2.378   6.235   5.201  2.2477 -2.4873 -0.2035
 6231TIP3    H240109   2.474   6.281   5.094  0.2078 -0.4099 -1.2201
 6232TIP3   OH240110   4.790   4.839   4.230 -0.5946 -0.3004  0.1464
 6232TIP3    H140111   4.842   4.866   4.155 -0.4412  1.7447  0.9287
 6232TIP3    H240112   4.853   4.828   4.301 -0.9675 -0.0856  0.5188
 6233TIP3   OH240113   4.304   3.810  12.231 -0.2037  0.0909  0.0862
 6233TIP3    H140114   4.263   3.735  12.275  0.6242  0.8451  2.2853
 6233TIP3    H240115   4.249   3.826  12.155 -1.9318 -1.1340  1.0052
 6234TIP3   OH240116   3.286   3.136  12.904 -0.7133  0.4106 -0.0658
 6234TIP3    H140117   3.257   3.068  12.965  0.8324 -0.7003 -0.5140
 6234TIP3    H240118   3.295   3.214  12.958  2.3080 -0.9419  1.6311
 6235TIP3   OH240119   3.289   0.273  14.262  0.5056  0.5803 -0.1248
 6235TIP3    H140120   3.363   0.214  14.244 -0.7645 -1.0966 -0.0314
 6235TIP3    H240121   3.278   0.322  14.180  1.0789  0.1127 -0.4932
 6236TIP3   OH240122   3.328   3.779  10.928 -0.0005  0.5775 -0.0371
 6236TIP3    H140123   3.345   3.742  10.841  0.8253 -1.2559  0.8532
 6236TIP3    H240124   3.361   3.869  10.922 -0.1516  0.5550 -1.6772
 6237TIP3   OH240125   2.830   6.033   2.692  0.7361 -1.1340 -0.5217
 6237TIP3    H140126   2.813   6.125   2.670 -0.3616 -1.3410 -0.6003
 6237TIP3    H240127   2.749   5.988   2.668  1.3938 -2.1818 -0.7955
 6238TIP3   OH240128   0.780   3.784   0.023  0.4743  0.0452 -0.3832
 6238TIP3    H140129   0.715   3.715   0.013 -0.0787  0.8159 -2.6213
 6238TIP3    H240130   0.858   3.740   0.058 -0.1463 -1.5111 -0.9113
 6239TIP3   OH240131   2.773   2.501  14.579  0.4842 -0.4993  0.4081
 6239TIP3    H140132   2.806   2.477  14.666  0.7601  0.9297  0.7219
 6239TIP3    H240133   2.823   2.579  14.555  0.0613 -0.5855 -0.8286
 6240TIP3   OH240134   1.131   0.775  15.614  0.2789  0.0248  0.0357
 6240TIP3    H140135   1.139   0.855  15.666  0.9494 -0.4342  0.6660
 6240TIP3    H240136   1.170   0.797  15.530  3.1077 -0.4233  1.1154
 6241TIP3   OH240137   0.573   5.542  16.737 -0.0843  0.0646 -0.5593
 6241TIP3    H140138   0.584   5.461  16.787  1.0276  0.2127 -0.5386
 6241TIP3    H240139   0.578   5.514  16.645  2.8122  0.3426 -0.5939
 6242TIP3   OH240140   3.263   0.901   4.185  0.0561  0.2657 -0.2569
 6242TIP3    H140141   3.191   0.961   4.207  0.0818  0.1060  0.2996
 6242TIP3    H240142   3.329   0.956   4.144 -0.5421  0.3502 -1.1307
 6243TIP3   OH240143   0.066   0.386  16.751  0.5359 -0.3434  0.0816
 6243TIP3    H140144   0.064   0.292  16.732 -0.4246  0.0390 -2.1304
 6243TIP3    H240145   0.159   0.408  16.755  0.8080 -1.1122 -1.2661
 6244TIP3   OH240146   6.166   4.352  13.237 -0.1653  0.1634  0.0552
 6244TIP3    H140147   6.187   4.278  13.180 -1.1707 -1.6426  1.8733
 6244TIP3    H240148   6.245   4.365  13.290  0.2775  0.9237 -0.7699
 6245TIP3   OH240149   3.645   2.981   0.905  0.0453 -0.8823 -0.1697
 6245TIP3    H140150   3.572   3.036   0.878  0.0260 -0.6638  0.3165
 6245TIP3    H240151   3.675   3.019   0.988  2.6992  0.9333 -1.8274
 6246TIP3   OH240152   4.449   2.678   3.929 -0.3069  0.0086 -0.4844
 6246TIP3    H140153   4.478   2.612   3.993  0.4131  1.0496  0.2950
 6246TIP3    H240154   4.531   2.715   3.895 -0.6971  0.0167 -1.4555
 6247TIP3   OH240155   6.026   3.595   1.753  0.0836 -0.0447  0.1330
 6247TIP3    H140156   5.962   3.651   1.797  0.9631  0.5504  0.6870
 6247TIP3    H240157   6.093   3.656   1.721  0.7565 -0.7302  0.2166
 6248TIP3   OH240158   3.016   4.859   4.937  0.0878 -0.2806  0.5386
 6248TIP3    H140159   3.053   4.946   4.924  0.5868 -0.3579  1.3535
 6248TIP3    H240160   2.932   4.861   4.891 -2.6151  2.5023  4.8170
 6249TIP3   OH240161   3.644   6.057   0.044  0.7360  0.2474  0.2714
 6249TIP3    H140162   3.575   5.993   0.060 -0.1698  1.2422  0.4474
 6249TIP3    H240163   3.628   6.126   0.108  0.4815  1.5854 -1.1669
 6250TIP3   OH240164   4.816   1.524  15.411  0.1025 -0.4272  0.9814
 6250TIP3    H140165   4.836   1.587  15.480  1.2071 -0.3092  0.5871
 6250TIP3    H240166   4.723   1.505  15.421  0.2911 -0.5742  2.6204
 6251TIP3   OH240167   0.664   0.620  12.257  0.6963  0.4262 -0.3961
 6251TIP3    H140168   0.596   0.593  12.195  2.0882  0.5380 -2.0402
 6251TIP3    H240169   0.633   0.704  12.292 -0.2271  0.2380 -0.7381
 6252TIP3   OH240170   2.576   5.714   0.233 -0.5605 -0.4597 -0.4483
 6252TIP3    H140171   2.662   5.681   0.207 -0.0434  0.6149 -0.1450
 6252TIP3    H240172   2.559   5.788   0.175 -0.6597  0.1858  0.3825
 6253TIP3   OH240173   3.990   4.943  12.493 -0.3109  0.2467  0.1600
 6253TIP3    H140174   4.032   5.029  12.489 -0.1008  0.1236 -0.5009
 6253TIP3    H240175   4.049   4.889  12.546 -0.3311  0.4480  0.3867
 6254TIP3   OH240176   2.733   4.436  12.463 -0.1994 -0.5715 -0.5876
 6254TIP3    H140177   2.810   4.487  12.440  0.3509 -1.5571 -0.9800
 6254TIP3    H240178   2.702   4.475  12.545  1.5729 -1.0742  0.3770
 6255TIP3   OH240179   3.389   5.913   0.617  0.4189  0.4650 -0.2095
 6255TIP3    H140180   3.400   5.918   0.522  2.4938 -0.1191 -0.0427
 6255TIP3    H240181   3.393   5.820   0.637  1.2413  0.6557  0.5621
 6256TIP3   OH240182   3.016   2.752  12.492  0.5198  0.3596  0.2344
 6256TIP3    H140183   2.944   2.695  12.519 -0.3801  1.2729 -0.1457
 6256TIP3    H240184   3.042   2.797  12.572 -1.5272  2.3854 -0.1265
 6257TIP3   OH240185   1.123   5.165   0.185  0.4335  0.0907  0.3078
 6257TIP3    H140186   1.072   5.096   0.142  0.5151 -0.3200  0.8563
 6257TIP3    H240187   1.182   5.198   0.117 -2.3679  2.5060 -1.2215
 6258TIP3   OH240188   3.504   2.927  13.572 -0.8001 -0.2349  0.0374
 6258TIP3    H140189   3.489   2.911  13.479 -1.1059 -0.4744  0.1283
 6258TIP3    H240190   3.598   2.947  13.578 -0.2774 -2.3581 -0.0435
 6259TIP3   OH240191   4.847   2.541  11.986  0.0998 -0.1251  0.4837
 6259TIP3    H140192   4.883   2.622  11.950 -0.9365  0.1896  0.1221
 6259TIP3    H240193   4.824   2.489  11.909 -1.6435  0.3309  0.6557
 6260TIP3   OH240194   3.524   1.390  13.427 -0.0936  0.1486 -0.8196
 6260TIP3    H140195   3.558   1.436  13.503  0.8496 -0.1368 -1.0535
 6260TIP3    H240196   3.446   1.345  13.459 -0.0394  0.5091 -0.1677
 6261TIP3   OH240197   1.195   6.742  15.076  0.8349  0.5138 -0.8061
 6261TIP3    H140198   1.172   6.779  15.161 -0.6300 -1.2958 -0.3538
 6261TIP3    H240199   1.176   6.812  15.013 -1.8482  0.6469  0.0116
 6262TIP3   OH240200   2.458   2.585   4.971 -0.1105  0.0007 -0.4804
 6262TIP3    H140201   2.500   2.602   5.055 -0.2517 -0.2438 -0.3604
 6262TIP3    H240202   2.528   2.598   4.906 -0.4620  2.1919 -0.5104
 6263TIP3   OH240203   3.801   5.963  16.149 -0.1718 -0.3358 -0.3794
 6263TIP3    H140204   3.851   6.025  16.202  0.5933 -0.4248 -0.9818
 6263TIP3    H240205   3.867   5.920  16.095 -0.3823 -2.9537  1.2495
 6264TIP3   OH240206   2.007   3.411   2.498 -0.2641 -0.1659  0.2461
 6264TIP3    H140207   2.072   3.461   2.448  0.6994  0.1452  1.7343
 6264TIP3    H240208   1.924   3.450   2.474  0.3334  1.0910  0.1278
 6265TIP3   OH240209   5.510   0.533   2.112  0.0919  0.0947 -0.4681
 6265TIP3    H140210   5.599   0.548   2.082  0.1916  0.0376 -0.2028
 6265TIP3    H240211   5.511   0.559   2.204 -0.2789  0.5300 -0.5805
 6266TIP3   OH240212   2.948   3.623  13.554 -0.7610 -0.0833 -0.0228
 6266TIP3    H140213   2.913   3.536  13.534  0.8789 -0.6665 -0.5068
 6266TIP3    H240214   2.956   3.666  13.469  0.1139 -0.1449  0.0161
 6267TIP3   OH240215   0.296   3.717  16.287 -0.4679 -0.2642  0.1900
 6267TIP3    H140216   0.264   3.781  16.350  0.5280  0.5094 -0.0675
 6267TIP3    H240217   0.321   3.769  16.210  0.1727 -0.9776 -0.1040
 6268TIP3   OH240218   1.768   3.461   6.512  0.4610  0.0182 -0.5385
 6268TIP3    H140219   1.779   3.525   6.442  0.8310  0.2275 -0.2965
 6268TIP3    H240220   1.857   3.431   6.531  0.3756  0.0293 -0.1031
 6269TIP3   OH240221   5.791   0.394  12.855 -0.2789  0.0992  1.0781
 6269TIP3    H140222   5.845   0.430  12.785 -2.1677 -0.3297 -0.7092
 6269TIP3    H240223   5.830   0.309  12.875  1.6485  1.1966  2.2641
 6270TIP3   OH240224   0.808   0.639   2.222  0.0117 -0.3764  0.3720
 6270TIP3    H140225   0.731   0.603   2.179 -0.7180 -0.2432  1.5310
 6270TIP3    H240226   0.774   0.706   2.281  1.0977  0.2781  0.2981
 6271TIP3   OH240227   5.436   5.500  16.744 -0.2111 -0.0633 -0.2657
 6271TIP3    H140228   5.466   5.521  16.656 -0.2932 -0.6794 -0.4415
 6271TIP3    H240229   5.422   5.405  16.743  0.7603 -0.2356  0.7043
 6272TIP3   OH240230   5.540   6.070  13.467 -0.5949  0.0101  0.1643
 6272TIP3    H140231   5.621   6.045  13.510  0.0553 -1.0146 -1.5335
 6272TIP3    H240232   5.565   6.088  13.376 -2.0042  1.3466 -0.0247
 6273TIP3   OH240233   4.694   0.427   0.656  0.3292 -0.3621 -0.4287
 6273TIP3    H140234   4.642   0.352   0.684 -0.1120  0.2658  0.4667
 6273TIP3    H240235   4.641   0.469   0.589 -0.0530 -0.0589  0.0627
 6274TIP3   OH240236   3.103   3.046   4.317  0.0541 -0.0200 -0.0152
 6274TIP3    H140237   3.061   2.989   4.382 -2.1592  1.0288 -0.4413
 6274TIP3    H240238   3.195   3.021   4.320 -0.6987 -3.2512  0.1806
 6275TIP3   OH240239   3.425   4.609   5.334  0.1554 -0.1119 -0.2209
 6275TIP3    H140240   3.406   4.605   5.428  1.7538  1.4998  0.2201
 6275TIP3    H240241   3.410   4.700   5.310  0.6189 -0.3191 -1.3529
 6276TIP3   OH240242   2.784   3.719   0.884  0.0152  0.1824  0.2185
 6276TIP3    H140243   2.756   3.630   0.902 -0.4066 -0.1015 -1.6433
 6276TIP3    H240244   2.876   3.711   0.860 -0.0106  0.2579  0.0941
 6277TIP3   OH240245   6.641   0.796   4.831 -0.3777  0.0474  0.2308
 6277TIP3    H140246   6.685   0.816   4.748  0.5406 -1.4406  0.3120
 6277TIP3    H240247   6.668   0.867   4.890 -0.5055  0.7597 -0.5501
 6278TIP3   OH240248   1.501   6.314   5.664  0.0401 -0.2111  0.2531
 6278TIP3    H140249   1.540   6.367   5.595  0.4254  1.0802  1.4194
 6278TIP3    H240250   1.491   6.228   5.625 -1.0946  0.8045 -1.9145
 6279TIP3   OH240251   2.218   4.969   4.983  0.4152  0.1381 -0.2783
 6279TIP3    H140252   2.128   4.997   4.970  0.2170  0.4396  1.4849
 6279TIP3    H240253   2.230   4.968   5.078  1.9687 -0.8637 -0.4339
 6280TIP3   OH240254   4.550   6.562   1.492 -0.4154 -0.0054 -0.7270
 6280TIP3    H140255   4.630   6.561   1.545 -0.0156  1.2277 -1.2796
 6280TIP3    H240256   4.555   6.644   1.443 -1.8558 -0.0847 -1.0296
 6281TIP3   OH240257   4.515   2.002  14.303  0.3124  0.3642  0.3070
 6281TIP3    H140258   4.607   1.998  14.326  1.2396  0.1468 -2.8924
 6281TIP3    H240259   4.486   1.911  14.300  0.7303  0.2574 -1.0793
 6282TIP3   OH240260   2.086   2.910  16.072 -0.1733  0.4286 -0.0155
 6282TIP3    H140261   2.146   2.984  16.064  0.0435  0.0569 -2.3256
 6282TIP3    H240262   2.000   2.951  16.084  0.0326  1.0427 -0.5658
 6283TIP3   OH240263   0.525   2.332  10.600  0.1728 -0.2033 -0.0648
 6283TIP3    H140264   0.459   2.398  10.621  0.6759  0.3434 -0.1698
 6283TIP3    H240265   0.608   2.380  10.600  0.5397 -0.8251 -0.2007
 6284TIP3   OH240266   5.268   5.689   4.181  0.2832 -0.0967  0.6557
 6284TIP3    H140267   5.339   5.676   4.118  1.0979 -1.5901  1.8092
 6284TIP3    H240268   5.198   5.730   4.130  2.0271  1.6287 -0.4561
 6285TIP3   OH240269   5.396   5.407  15.004  0.2927  0.4446 -0.0202
 6285TIP3    H140270   5.319   5.400  14.947 -1.4944 -1.5675  2.3439
 6285TIP3    H240271   5.388   5.494  15.044 -2.3275 -0.5252  1.9468
 6286TIP3   OH240272   5.745   5.608  15.706 -0.1174  0.1152 -0.1784
 6286TIP3    H140273   5.679   5.675  15.683 -1.3526 -0.6681  0.9460
 6286TIP3    H240274   5.705   5.559  15.777  2.4780  0.8152  1.9318
 6287TIP3   OH240275   2.281   6.437   0.058  0.2782  0.1476 -0.0239
 6287TIP3    H140276   2.231   6.452  -0.022 -1.1886 -0.4387  0.7339
 6287TIP3    H240277   2.218   6.397   0.118  1.6740 -0.6305  0.9946
 6288TIP3   OH240278   6.734   5.340   0.064 -0.9700  0.1207  0.1188
 6288TIP3    H140279   6.738   5.246   0.047 -0.0696  0.4422 -1.7021
 6288TIP3    H240280   6.642   5.363   0.054 -0.8747 -0.1996 -1.8810
 6289TIP3   OH240281   4.832   4.945   4.849 -0.1463 -0.2003 -0.0901
 6289TIP3    H140282   4.799   4.941   4.759  0.2656  1.8816 -0.3650
 6289TIP3    H240283   4.753   4.934   4.903 -0.2991 -2.3380 -0.6219
 6290TIP3   OH240284   6.112   0.923  14.514 -0.2925  0.7182 -0.2200
 6290TIP3    H140285   6.203   0.951  14.520  0.1295 -0.0077 -2.2053
 6290TIP3    H240286   6.116   0.828  14.518 -0.9216  0.6742 -0.5111
 6291TIP3   OH240287   5.888   2.670   0.770  0.5230 -0.1551  0.8586
 6291TIP3    H140288   5.814   2.669   0.831 -1.6780 -1.0288 -1.6764
 6291TIP3    H240289   5.897   2.579   0.742  1.9964  0.1059  0.4014
 6292TIP3   OH240290   0.829   2.735  15.345  0.5280 -0.3248 -0.5683
 6292TIP3    H140291   0.825   2.793  15.269 -0.0741  0.6731  0.1968
 6292TIP3    H240292   0.889   2.665  15.319  0.6577  0.2216 -1.8000
 6293TIP3   OH240293   2.971   3.631   3.510  0.3167  0.0625 -0.8005
 6293TIP3    H140294   2.887   3.655   3.469  0.6007  1.0122 -0.8634
 6293TIP3    H240295   3.025   3.709   3.499  0.6053  0.1272  0.8266
 6294TIP3   OH240296   0.381   2.628  12.794  0.1764  0.0563  0.5356
 6294TIP3    H140297   0.374   2.695  12.862 -1.0782  1.8924 -1.2528
 6294TIP3    H240298   0.411   2.676  12.717 -1.7368 -1.2019 -1.0956
 6295TIP3   OH240299   3.986   4.139   4.771  0.1566  0.2310 -0.1356
 6295TIP3    H140300   3.959   4.134   4.680  0.2923  1.7134 -0.2738
 6295TIP3    H240301   4.053   4.207   4.773  0.0885  0.2872  1.0874
 6296TIP3   OH240302   2.071   3.756  13.567  0.2942  0.0446 -0.2901
 6296TIP3    H140303   2.012   3.681  13.575 -1.0697  1.0775 -0.2255
 6296TIP3    H240304   2.131   3.747  13.641 -0.6658 -0.3050  0.4679
 6297TIP3   OH240305   0.903   6.711  11.577 -0.2777  0.5971 -0.3973
 6297TIP3    H140306   0.918   6.772  11.649 -1.6819 -1.4744  1.8048
 6297TIP3    H240307   0.988   6.704  11.532  0.8834  1.3102  1.5989
 6298TIP3   OH240308   5.070   4.131  11.725 -0.2522 -0.3702  0.0597
 6298TIP3    H140309   5.027   4.164  11.803  0.0311 -0.6548  0.3393
 6298TIP3    H240310   5.031   4.181  11.653  0.4916  0.8905  0.5033
 6299TIP3   OH240311   3.255   1.090  11.305 -0.4024 -0.1302  0.4405
 6299TIP3    H140312   3.315   1.138  11.249  0.2076  0.4410  1.5459
 6299TIP3    H240313   3.252   1.141  11.387  1.4083 -2.6594  2.2408
 6300TIP3   OH240314   4.562   2.777  11.621 -0.2816 -0.2326 -0.0568
 6300TIP3    H140315   4.554   2.803  11.713  0.3161  0.3409 -0.1584
 6300TIP3    H240316   4.655   2.755  11.610 -0.3898 -0.5044 -0.4721
 6301TIP3   OH240317   5.933   2.424   1.736 -0.3952  0.1324  0.3698
 6301TIP3    H140318   5.998   2.374   1.785  0.0973 -1.1472 -1.4912
 6301TIP3    H240319   5.871   2.359   1.704 -1.5477  1.1173  0.5089
 6302TIP3   OH240320   0.771   1.188  15.019 -0.3240 -0.7889  0.0196
 6302TIP3    H140321   0.799   1.117  15.077 -1.2022 -0.3329  1.0272
 6302TIP3    H240322   0.683   1.211  15.050 -0.5452 -0.0955 -1.0858
 6303TIP3   OH240323   3.723   0.929  14.426  0.2928  0.2080  0.1950
 6303TIP3    H140324   3.678   0.930  14.342  0.3817 -0.5166  0.1361
 6303TIP3    H240325   3.787   0.859  14.418  0.1404 -0.0244  0.9456
 6304TIP3   OH240326   3.100   3.818  15.992  0.4269 -0.2572  0.3650
 6304TIP3    H140327   3.170   3.763  16.028  1.8800 -0.3277 -2.3130
 6304TIP3    H240328   3.145   3.894  15.956 -1.0075  0.3094 -0.3145
 6305TIP3   OH240329   2.280   3.009   3.833 -0.0051  0.4879  0.3187
 6305TIP3    H140330   2.251   2.918   3.824  1.3557  0.1878 -1.4036
 6305TIP3    H240331   2.262   3.049   3.748 -1.0794  2.0218  1.2056
 6306TIP3   OH240332   0.517   2.792  10.673 -0.4464 -0.5992 -0.0880
 6306TIP3    H140333   0.442   2.842  10.642  0.0765 -0.5479 -1.3261
 6306TIP3    H240334   0.571   2.857  10.719  0.2002  0.0068 -1.6312
 6307TIP3   OH240335   3.612   6.109  11.222  1.1990 -0.8132 -0.2382
 6307TIP3    H140336   3.585   6.200  11.238 -0.5272 -1.0109 -1.7917
 6307TIP3    H240337   3.606   6.067  11.307  0.8547  0.2389  0.2773
 6308TIP3   OH240338   2.360   5.537   6.834 -0.1655 -0.4405  0.0762
 6308TIP3    H140339   2.288   5.600   6.833 -0.2626 -0.5493  0.1501
 6308TIP3    H240340   2.365   5.503   6.745 -1.4149 -1.8059  0.4983
 6309TIP3   OH240341   6.574   4.078  13.799  0.8349 -0.0323 -0.3453
 6309TIP3    H140342   6.541   4.017  13.733  0.9627  0.2113 -0.6369
 6309TIP3    H240343   6.621   4.145  13.749  1.5091 -0.2102  0.0412
 6310TIP3   OH240344   0.161   6.535  15.500  0.2555  0.0432 -0.4885
 6310TIP3    H140345   0.136   6.457  15.550 -1.5022  0.7663 -0.1845
 6310TIP3    H240346   0.109   6.606  15.538  1.0233  1.1764 -1.4654
 6311TIP3   OH240347   1.391   6.137   3.010 -0.3124  0.0417  0.1697
 6311TIP3    H140348   1.462   6.075   2.997 -1.5872 -1.2620 -1.0284
 6311TIP3    H240349   1.432   6.214   3.049  1.2234 -1.8527  2.5949
 6312TIP3   OH240350   0.218   1.136   5.486  0.6880  0.7686 -0.2684
 6312TIP3    H140351   0.287   1.086   5.530  0.1694  1.3201  1.2218
 6312TIP3    H240352   0.265   1.200   5.433  1.3649  1.3413  0.9599
 6313TIP3   OH240353   1.115   2.054  14.055  0.2039  0.1486 -0.7218
 6313TIP3    H140354   1.157   2.077  14.138  1.4319  1.9820 -1.7813
 6313TIP3    H240355   1.162   1.976  14.026 -1.2171 -1.4136  0.9399
 6314TIP3   OH240356   6.405   2.382  16.174  0.5663  0.0953  0.1848
 6314TIP3    H140357   6.351   2.311  16.139  0.3914  0.5260 -0.4368
 6314TIP3    H240358   6.427   2.354  16.263  1.8293 -1.4849 -0.5751
 6315TIP3   OH240359   5.635   6.085  14.323 -0.6915  0.1854  0.0140
 6315TIP3    H140360   5.712   6.137  14.347 -0.0417 -0.4997 -0.5118
 6315TIP3    H240361   5.669   5.997  14.309 -1.7115 -0.3105  0.5253
 6316TIP3   OH240362   1.924   0.185   0.345  0.3105 -0.1979 -0.0207
 6316TIP3    H140363   2.004   0.231   0.319  0.2445  1.8991  3.0208
 6316TIP3    H240364   1.854   0.246   0.322 -0.1289 -0.5045  0.5036
 6317TIP3   OH240365   6.256   4.984   1.528 -0.5301  0.4951  0.5709
 6317TIP3    H140366   6.199   5.059   1.546 -1.5393 -0.4013  1.2486
 6317TIP3    H240367   6.223   4.915   1.586 -0.5682 -0.9226 -1.0742
 6318TIP3   OH240368   6.781   6.064   5.416  0.6685 -0.3610 -0.6667
 6318TIP3    H140369   6.784   6.105   5.503  2.5247 -1.4972 -0.1290
 6318TIP3    H240370   6.872   6.046   5.395  0.1456 -1.3878 -2.2384
 6319TIP3   OH240371   3.629   5.082   6.474  0.3686 -0.3982  0.2336
 6319TIP3    H140372   3.687   5.030   6.529  1.3766  0.8075  0.3541
 6319TIP3    H240373   3.620   5.032   6.393  0.8581 -1.0210  0.5653
 6320TIP3   OH240374   5.845   0.922  15.155  0.0534 -0.2693 -0.0057
 6320TIP3    H140375   5.756   0.908  15.189 -0.1375 -1.3708 -0.9259
 6320TIP3    H240376   5.843   1.011  15.119 -0.3070  0.1750  1.0488
 6321TIP3   OH240377   6.022   3.351   4.644 -0.4789  0.0797  0.2297
 6321TIP3    H140378   5.945   3.293   4.637  0.0810 -0.6308 -0.1975
 6321TIP3    H240379   6.096   3.291   4.651  0.2729  0.7059 -1.8311
 6322TIP3   OH240380   2.091   4.147   1.600 -0.1996  0.3239 -0.0226
 6322TIP3    H140381   2.092   4.072   1.541  0.9145  1.5313 -1.6310
 6322TIP3    H240382   2.012   4.195   1.576  0.7238  1.3002 -1.2474
 6323TIP3   OH240383   0.486   1.566   3.390  0.3414  0.0539 -0.0402
 6323TIP3    H140384   0.443   1.584   3.306  0.9359  0.1745 -0.3243
 6323TIP3    H240385   0.416   1.533   3.446 -0.0993  0.1440 -0.5289
 6324TIP3   OH240386   1.093   3.902  14.309  0.0454  0.0570  0.1139
 6324TIP3    H140387   1.154   3.954  14.361  0.7686  0.8565 -1.4658
 6324TIP3    H240388   1.104   3.813  14.343 -0.5676  0.7300  2.2628
 6325TIP3   OH240389   2.927   1.557   4.043 -0.5034  0.0458 -0.3006
 6325TIP3    H140390   3.020   1.579   4.033 -0.5423  1.5832  1.8882
 6325TIP3    H240391   2.912   1.486   3.981  1.9239  0.3073 -1.3081
 6326TIP3   OH240392   6.226   6.271   3.072 -0.8578  0.0654  0.4035
 6326TIP3    H140393   6.220   6.216   3.150 -0.1181  1.0803  1.2176
 6326TIP3    H240394   6.311   6.248   3.033 -1.8328 -1.4527 -0.9393
 6327TIP3   OH240395   4.707   1.989  12.383  0.1869  0.1666 -0.5083
 6327TIP3    H140396   4.662   2.072  12.368 -0.4179  0.0133  0.3967
 6327TIP3    H240397   4.734   1.992  12.474  1.5024 -0.0093 -0.8633
 6328TIP3   OH240398   0.634   5.175   2.736 -0.0475 -0.4793  0.5438
 6328TIP3    H140399   0.626   5.134   2.822  1.0852 -0.0691  0.8783
 6328TIP3    H240400   0.701   5.123   2.691 -2.9022 -2.7687 -1.4322
 6329TIP3   OH240401   1.445   6.042  16.808  0.8055 -0.0790  0.2917
 6329TIP3    H140402   1.532   6.047  16.768  0.5395 -1.3441 -0.4832
 6329TIP3    H240403   1.390   6.004  16.741 -0.8104  2.3929  0.0873
 6330TIP3   OH240404   6.527   6.643   5.626 -0.3589 -0.2653  0.0133
 6330TIP3    H140405   6.446   6.688   5.604 -0.7027 -0.4679  0.8605
 6330TIP3    H240406   6.504   6.550   5.627 -0.6870 -0.2242  2.4334
 6331TIP3   OH240407   4.161   1.810   1.088  0.6131 -0.1382  0.4050
 6331TIP3    H140408   4.098   1.742   1.064  0.8936  0.4564 -2.3136
 6331TIP3    H240409   4.230   1.763   1.135 -0.7542 -1.1467  1.4909
 6332TIP3   OH240410   0.976   2.600   1.448  0.2062  0.7889  0.5607
 6332TIP3    H140411   0.934   2.558   1.523  0.4567 -1.4008 -0.4448
 6332TIP3    H240412   1.066   2.617   1.478  0.4601 -0.5551  0.6171
 6333TIP3   OH240413   3.148   4.748  16.525  0.3165  0.6981  0.4697
 6333TIP3    H140414   3.139   4.814  16.594  1.3486  1.7531 -0.3708
 6333TIP3    H240415   3.233   4.767  16.485 -0.2982  0.1622 -1.1517
 6334TIP3   OH240416   2.823   6.170  14.919 -0.2816  0.0449 -0.0567
 6334TIP3    H140417   2.789   6.258  14.902 -0.1458  0.6764  2.5215
 6334TIP3    H240418   2.918   6.182  14.921 -0.2897  0.5860  3.1720
 6335TIP3   OH240419   4.775   5.567  12.991  0.6001  0.0979 -0.0755
 6335TIP3    H140420   4.689   5.546  12.956  0.5280  1.3122 -0.6698
 6335TIP3    H240421   4.758   5.629  13.062  0.8653 -1.1123  1.0748
 6336TIP3   OH240422   3.823   2.896  16.553  0.2173 -0.1402 -0.2205
 6336TIP3    H140423   3.863   2.899  16.466  0.9896  0.8160  0.1483
 6336TIP3    H240424   3.895   2.916  16.614 -0.3257 -0.7069  0.6306
 6337TIP3   OH240425   4.952   0.368   0.604  0.8286  0.5497 -0.1291
 6337TIP3    H140426   4.963   0.420   0.524  1.6375 -1.5518 -1.4971
 6337TIP3    H240427   4.858   0.354   0.610  0.7113  1.1827 -0.4081
 6338TIP3   OH240428   0.053   4.351  15.340  0.3285  0.7028 -0.5638
 6338TIP3    H140429   0.126   4.386  15.289  1.6000 -0.0108  0.6972
 6338TIP3    H240430   0.091   4.279  15.391 -1.5330 -0.4892 -0.7708
 6339TIP3   OH240431   3.954   4.249   6.286 -0.4590  0.0338 -0.3268
 6339TIP3    H140432   3.912   4.195   6.353  0.9807 -0.3486  0.2931
 6339TIP3    H240433   3.923   4.337   6.304 -1.3595 -0.2952 -0.1886
 6340TIP3   OH240434   4.498   0.220  14.470 -0.0041 -0.5819  0.0699
 6340TIP3    H140435   4.446   0.157  14.520  0.5426 -0.9889  0.1362
 6340TIP3    H240436   4.525   0.172  14.391  2.1183 -1.1299  1.0681
 6341TIP3   OH240437   0.859   4.865   2.150  0.3984  0.0639  0.6232
 6341TIP3    H140438   0.929   4.896   2.208  1.2180 -0.4365 -0.0748
 6341TIP3    H240439   0.779   4.870   2.203  0.7549  1.8333  1.0288
 6342TIP3   OH240440   6.328   4.034  16.642  0.0212 -0.4125  0.5276
 6342TIP3    H140441   6.367   4.121  16.637 -1.0180 -0.0159 -1.8522
 6342TIP3    H240442   6.401   3.974  16.631  0.3212  0.2908 -1.9740
 6343TIP3   OH240443   3.332   4.792  16.755 -0.4446  0.4939  0.2440
 6343TIP3    H140444   3.276   4.800  16.833  0.5502  2.5306  0.8189
 6343TIP3    H240445   3.364   4.702  16.758 -0.8199  0.3794  1.9200
 6344TIP3   OH240446   3.057   2.173  13.986  0.7933  0.1048 -0.1333
 6344TIP3    H140447   3.133   2.137  14.029  0.2899  0.1831  0.8537
 6344TIP3    H240448   3.082   2.263  13.963  0.1680  1.0536  2.5650
 6345TIP3   OH240449   2.603   3.822  14.264  0.3012 -0.2342 -0.1665
 6345TIP3    H140450   2.580   3.886  14.331 -2.2436 -0.0442 -1.1181
 6345TIP3    H240451   2.692   3.794  14.287 -0.4263 -0.1759  3.2534
 6346TIP3   OH240452   1.192   0.974   3.495  0.1632  0.2233 -0.2776
 6346TIP3    H140453   1.107   0.994   3.534  0.1665  1.9939 -1.0867
 6346TIP3    H240454   1.190   1.017   3.409  1.4649 -0.6422 -0.7772
 6347TIP3   OH240455   0.525   1.047  11.722  0.1944  0.0400  0.3819
 6347TIP3    H140456   0.612   1.027  11.689 -0.8294 -0.3712 -2.3697
 6347TIP3    H240457   0.471   0.973  11.695 -1.7162  1.9461 -1.4280
 6348TIP3   OH240458   5.481   1.605   0.354 -0.6340 -0.7007  0.0207
 6348TIP3    H140459   5.530   1.631   0.432 -0.2570 -1.3283 -0.0007
 6348TIP3    H240460   5.427   1.681   0.334  2.2446  1.1449 -1.5264
 6349TIP3   OH240461   5.663   5.208   3.029 -0.3763 -0.4658  0.6054
 6349TIP3    H140462   5.718   5.284   3.047 -0.4386 -0.3534  0.3288
 6349TIP3    H240463   5.581   5.245   2.996  0.0938 -0.6949 -0.8613
 6350TIP3   OH240464   5.610   3.283  11.536  0.4846  0.0057 -0.5882
 6350TIP3    H140465   5.524   3.324  11.528  0.7493  0.2706 -2.5170
 6350TIP3    H240466   5.648   3.325  11.613 -1.4193 -0.7733  0.8649
 6351TIP3   OH240467   2.602   4.361   5.570 -0.5560 -0.3822  0.2102
 6351TIP3    H140468   2.650   4.340   5.490 -1.6290 -0.6956 -0.3730
 6351TIP3    H240469   2.634   4.298   5.634 -0.6022 -0.9720 -0.3325
 6352TIP3   OH240470   1.345   3.000   1.437 -0.4213 -0.5485  0.0845
 6352TIP3    H140471   1.305   3.086   1.423 -0.2279 -0.5848 -0.6853
 6352TIP3    H240472   1.406   2.989   1.365  1.5948 -0.1696  1.6274
 6353TIP3   OH240473   0.470   4.694   1.868  0.0636  0.0811  0.2828
 6353TIP3    H140474   0.423   4.767   1.907  0.7720  1.0766 -0.6515
 6353TIP3    H240475   0.415   4.618   1.884 -1.6585  1.1321 -0.4073
 6354TIP3   OH240476   1.470   5.987  15.320 -0.3612 -0.0369 -0.3138
 6354TIP3    H140477   1.377   5.976  15.337 -0.5937  2.2721  0.1789
 6354TIP3    H240478   1.476   5.996  15.225 -0.7358  0.5922 -0.2790
 6355TIP3   OH240479   1.727   2.296  15.902  0.7382  0.3942 -0.3458
 6355TIP3    H140480   1.658   2.331  15.958  0.4889  0.0532 -0.4359
 6355TIP3    H240481   1.786   2.252  15.963  1.4978  1.6647 -0.1339
 6356TIP3   OH240482   5.964   0.171   0.718  0.5919 -0.1491 -0.2010
 6356TIP3    H140483   5.889   0.229   0.733  0.4082 -0.9513  2.7330
 6356TIP3    H240484   5.925   0.083   0.713  1.1315 -0.3342 -1.5051
 6357TIP3   OH240485   4.401   3.562  11.781  0.2261 -0.1843  0.3213
 6357TIP3    H140486   4.373   3.583  11.870 -0.4315 -0.1120  0.1084
 6357TIP3    H240487   4.321   3.531  11.738  1.0827 -2.9374  0.5575
 6358TIP3   OH240488   0.068   5.500  16.912  0.4290 -0.8139  0.1881
 6358TIP3    H140489   0.159   5.472  16.905  0.1769 -1.4414 -0.9602
 6358TIP3    H240490   0.057   5.562  16.840 -0.8086 -3.0679 -1.7088
 6359TIP3   OH240491   6.237   2.397  11.705  0.0818 -0.1214  0.4632
 6359TIP3    H140492   6.196   2.319  11.669  0.4155  0.4211 -1.2045
 6359TIP3    H240493   6.325   2.398  11.666 -0.2465  1.5569 -0.3429
 6360TIP3   OH240494   6.014   1.303  10.864 -0.1935 -0.2645  0.8586
 6360TIP3    H140495   5.980   1.214  10.874 -0.5916 -0.4425 -1.6057
 6360TIP3    H240496   6.080   1.311  10.933 -0.8783 -2.0873  1.7783
 6361TIP3   OH240497   4.157   6.574  12.108 -0.0990  0.0739 -0.5171
 6361TIP3    H140498   4.249   6.551  12.116  0.5570  2.1417 -1.4360
 6361TIP3    H240499   4.112   6.490  12.100  1.4270 -1.0813  1.9680
 6362TIP3   OH240500   0.417   2.270   2.682 -0.2502 -0.0063 -0.3962
 6362TIP3    H140501   0.407   2.186   2.727  0.8124  0.2285  0.3345
 6362TIP3    H240502   0.473   2.321   2.741 -1.3306  1.4145 -0.5729
 6363TIP3   OH240503   6.091   3.461   4.374 -0.0601 -0.0851  0.2730
 6363TIP3    H140504   6.050   3.544   4.349  1.2118  0.7132  0.7432
 6363TIP3    H240505   6.070   3.450   4.466 -1.6808 -1.1922 -0.1888
 6364TIP3   OH240506   4.737   3.176  11.310  0.2056  0.3225  0.6794
 6364TIP3    H140507   4.731   3.260  11.265 -0.5369 -0.1094 -0.0479
 6364TIP3    H240508   4.683   3.187  11.388  3.5009  1.9478  2.9892
 6365TIP3   OH240509   1.867   2.218  13.094  0.3806 -0.2852  0.1674
 6365TIP3    H140510   1.793   2.175  13.138  0.6619  0.3983  1.3483
 6365TIP3    H240511   1.827   2.288  13.043  0.0240 -1.2422 -0.9179
 6366TIP3   OH240512   1.905   5.657   3.960 -1.1711 -0.9397  0.2437
 6366TIP3    H140513   1.900   5.607   4.042  1.0457 -2.3327 -0.3622
 6366TIP3    H240514   1.975   5.613   3.911 -0.0879  1.9253 -0.9696
 6367TIP3   OH240515   2.099   4.948   2.844  0.7759  0.0659  0.1290
 6367TIP3    H140516   2.128   4.927   2.932  1.5921 -0.6395 -0.2959
 6367TIP3    H240517   2.133   4.877   2.790  0.5404  0.6442 -0.7995
 6368TIP3   OH240518   4.516   4.364   2.254  0.1418 -0.1864 -0.1787
 6368TIP3    H140519   4.446   4.410   2.299 -0.9805 -1.2361 -0.7805
 6368TIP3    H240520   4.526   4.410   2.170  1.4037  1.0270  0.6005
 6369TIP3   OH240521   4.167   6.793   5.099  0.0140  0.2519  0.0857
 6369TIP3    H140522   4.214   6.795   5.015 -1.9361  0.5483 -1.0557
 6369TIP3    H240523   4.181   6.704   5.131 -1.0084 -0.6235 -1.6912
 6370TIP3   OH240524   1.773   3.221   5.060  0.0520 -0.2540 -0.0523
 6370TIP3    H140525   1.740   3.144   5.014 -0.0147  0.7321 -1.7413
 6370TIP3    H240526   1.694   3.270   5.084  0.1361 -0.0835 -0.1229
 6371TIP3   OH240527   2.281   4.719   3.378  0.1349 -0.4699 -0.4415
 6371TIP3    H140528   2.345   4.779   3.341 -0.3622  0.4844  0.1987
 6371TIP3    H240529   2.293   4.726   3.473 -0.3404 -0.9140 -0.3412
 6372TIP3   OH240530   0.878   1.256  17.039 -0.3938 -0.0311 -0.2508
 6372TIP3    H140531   0.841   1.196  16.975 -0.7823 -0.1878  0.1254
 6372TIP3    H240532   0.942   1.204  17.087 -0.5880 -0.0937 -0.0574
 6373TIP3   OH240533   1.911   5.715  16.980  0.5560  0.0611  0.1885
 6373TIP3    H140534   1.945   5.670  17.057 -0.1905 -0.7205  0.0839
 6373TIP3    H240535   1.830   5.757  17.010  0.6555  0.3853  0.0086
 6374TIP3   OH240536   1.961   0.151  14.735  0.2605 -0.2721 -0.6149
 6374TIP3    H140537   1.879   0.122  14.694 -0.2039 -0.5072  0.4529
 6374TIP3    H240538   1.967   0.244  14.713 -0.4699 -0.1709 -0.4130
 6375TIP3   OH240539   5.387   6.086  16.033  0.1580 -0.5380  1.0397
 6375TIP3    H140540   5.316   6.065  15.973 -0.7579  1.8626  1.1764
 6375TIP3    H240541   5.467   6.070  15.982 -0.5741  0.3191 -0.4290
 6376TIP3   OH240542   6.518   2.646  16.641  0.8312  0.0686  0.2654
 6376TIP3    H140543   6.431   2.666  16.674  1.3297  0.8748  1.1162
 6376TIP3    H240544   6.502   2.591  16.564 -0.3339 -1.9366  1.8758
 6377TIP3   OH240545   2.011   0.284  15.777 -0.0283 -0.0321  0.6298
 6377TIP3    H140546   1.975   0.226  15.710  1.4450 -0.0052 -0.2428
 6377TIP3    H240547   2.035   0.226  15.850 -1.0991 -0.1400  0.9020
 6378TIP3   OH240548   4.302   4.684  12.167 -0.5060  0.2266 -0.5384
 6378TIP3    H140549   4.237   4.623  12.201 -1.1059  0.0434 -1.9495
 6378TIP3    H240550   4.343   4.721  12.245 -0.7330 -1.3185  0.3661
 6379TIP3   OH240551   5.039   4.764  14.897  0.5464 -0.1159  0.4524
 6379TIP3    H140552   5.113   4.803  14.849  1.4434 -2.1463  0.0802
 6379TIP3    H240553   5.011   4.691  14.842  0.2853 -1.2690  2.0451
 6380TIP3   OH240554   1.281   1.502  14.469 -0.3444  0.3189  0.9615
 6380TIP3    H140555   1.214   1.499  14.538 -0.6585 -1.9247  0.6411
 6380TIP3    H240556   1.349   1.442  14.499 -0.7483 -1.1472 -0.9028
 6381TIP3   OH240557   0.237   6.786  13.311  0.5401  0.0738 -0.1016
 6381TIP3    H140558   0.320   6.763  13.352  0.2137  0.1226  0.6074
 6381TIP3    H240559   0.187   6.830  13.381 -0.5208 -0.9801 -0.1656
 6382TIP3   OH240560   2.904   3.702  12.754  0.0668  0.1428 -0.5533
 6382TIP3    H140561   2.996   3.690  12.731 -0.1148  0.2299 -1.3389
 6382TIP3    H240562   2.861   3.727  12.672 -0.5076  0.9633 -0.0198
 6383TIP3   OH240563   1.865   0.884  13.034  0.2439  0.0918 -0.3402
 6383TIP3    H140564   1.863   0.928  12.949 -0.2715  0.9278  0.0992
 6383TIP3    H240565   1.815   0.941  13.092 -0.5691 -1.1465  0.2153
 6384TIP3   OH240566   5.771   2.254  13.983 -0.1393  0.3740  0.4515
 6384TIP3    H140567   5.839   2.274  14.047 -0.1613 -0.4552  0.7523
 6384TIP3    H240568   5.804   2.289  13.901 -0.8720  2.9911  1.1916
 6385TIP3   OH240569   6.424   2.201   5.582 -0.1700  0.2897 -0.3704
 6385TIP3    H140570   6.510   2.160   5.591  0.7548  2.1508 -0.2256
 6385TIP3    H240571   6.429   2.249   5.500 -0.4781  1.6814  0.3897
 6386TIP3   OH240572   5.212   4.408  11.758 -0.0348  0.2679  0.6915
 6386TIP3    H140573   5.286   4.382  11.703 -0.9163  0.4297 -0.6318
 6386TIP3    H240574   5.243   4.486  11.805  1.4143 -1.0441  2.0088
 6387TIP3   OH240575   1.184   6.592  10.338 -0.5002  0.4529 -0.5981
 6387TIP3    H140576   1.135   6.674  10.324 -0.3155  0.4755 -1.1142
 6387TIP3    H240577   1.159   6.565  10.426  0.8840  2.0669  0.3429
 6388TIP3   OH240578   5.916   5.000   3.733 -0.4598  0.2415  0.1205
 6388TIP3    H140579   5.866   4.921   3.754 -3.1232  0.8749 -3.1137
 6388TIP3    H240580   5.958   4.980   3.649  1.6903  1.1600  0.9014
 6389TIP3   OH240581   4.176   1.902  12.751 -0.3371  0.9843 -0.4463
 6389TIP3    H140582   4.262   1.863  12.733 -0.6017  0.6907 -1.0645
 6389TIP3    H240583   4.132   1.906  12.666 -2.2844 -2.0452  0.2660
 6390TIP3   OH240584   4.749   3.500   0.600 -0.0399  0.1805 -0.5223
 6390TIP3    H140585   4.835   3.531   0.630 -0.6730  1.3769  0.1647
 6390TIP3    H240586   4.704   3.580   0.572 -1.1459 -0.3397 -0.2691
 6391TIP3   OH240587   5.185   4.143   5.132  0.1594  0.2527 -0.1116
 6391TIP3    H140588   5.122   4.215   5.137  0.7523  0.9215 -1.5592
 6391TIP3    H240589   5.132   4.063   5.136 -0.6451  0.7902  0.0095
 6392TIP3   OH240590   3.656   0.842   2.119  0.7018 -0.2123 -0.3109
 6392TIP3    H140591   3.672   0.920   2.065 -2.6025  0.5322 -0.4395
 6392TIP3    H240592   3.636   0.773   2.055  0.0688 -0.1829 -0.1583
 6393TIP3   OH240593   4.561   2.058   4.372 -0.2182  0.0741  0.7402
 6393TIP3    H140594   4.617   2.118   4.323 -3.0065  1.7153 -0.7439
 6393TIP3    H240595   4.474   2.071   4.334 -1.3185 -3.6762  1.6220
 6394TIP3   OH240596   0.521   4.480   0.147 -0.2071  0.2807  0.3437
 6394TIP3    H140597   0.481   4.393   0.138 -0.4913  0.4036  0.3901
 6394TIP3    H240598   0.459   4.539   0.104  0.1250  0.4262  0.0636
 6395TIP3   OH240599   6.427   3.004   3.644 -0.1982  0.0188 -0.3505
 6395TIP3    H140600   6.398   2.923   3.684  0.1275 -0.3868 -0.9234
 6395TIP3    H240601   6.356   3.066   3.661  0.1817  0.0350  1.3511
 6396TIP3   OH240602   1.748   0.166   5.234  0.4361 -0.1287  0.0902
 6396TIP3    H140603   1.693   0.243   5.224  1.4124  0.8954  1.9906
 6396TIP3    H240604   1.834   0.193   5.201  0.3634 -1.0075 -0.8698
 6397TIP3   OH240605   0.022   2.524   3.277 -0.2887  0.3155 -0.1733
 6397TIP3    H140606   0.086   2.594   3.266  1.1776 -1.0009 -0.2984
 6397TIP3    H240607  -0.043   2.539   3.208 -0.5195  2.0428  0.3615
 6398TIP3   OH240608   5.638   5.494   0.430  0.1443 -0.1529 -0.2457
 6398TIP3    H140609   5.710   5.505   0.492  0.4348 -0.7521 -0.4672
 6398TIP3    H240610   5.560   5.490   0.486  0.0968  1.9705 -0.0970
 6399TIP3   OH240611   3.022   6.183   4.572 -0.3849  0.3135 -0.9787
 6399TIP3    H140612   2.975   6.246   4.627  0.8835  1.1225 -0.7688
 6399TIP3    H240613   3.034   6.229   4.488  1.8073  0.9939 -0.3675
 6400TIP3   OH240614   6.026   1.101   4.875 -0.3240  0.4762  0.2210
 6400TIP3    H140615   6.059   1.051   4.950  2.1906  0.5067 -0.7331
 6400TIP3    H240616   6.010   1.188   4.909  0.2871  0.3475  0.8689
 6401TIP3   OH240617   2.811   1.593  14.232 -0.1028 -0.5652 -0.0830
 6401TIP3    H140618   2.784   1.630  14.148  1.2884  1.4086  0.2477
 6401TIP3    H240619   2.900   1.561  14.216  0.3652  0.2757  0.7025
 6402TIP3   OH240620   0.161   3.518  15.308  0.1355  0.4603 -0.3284
 6402TIP3    H140621   0.190   3.492  15.220 -0.7549  1.3050 -0.8985
 6402TIP3    H240622   0.099   3.589  15.292  1.8516  2.3707  1.0992
 6403TIP3   OH240623   6.749   0.677  13.354  0.9905  0.0375  0.2419
 6403TIP3    H140624   6.773   0.592  13.318  1.7672  0.3027  0.1104
 6403TIP3    H240625   6.735   0.661  13.447 -2.9734 -1.0599 -0.3838
 6404TIP3   OH240626   4.022   3.076  14.207 -0.9589 -0.0341 -0.3340
 6404TIP3    H140627   4.016   3.114  14.295  0.8517  1.9185 -0.9824
 6404TIP3    H240628   3.933   3.046  14.188 -1.6044  0.4232  1.7611
 6405TIP3   OH240629   3.604   1.660  16.253 -0.1783  0.2207 -0.2185
 6405TIP3    H140630   3.614   1.663  16.157 -0.3143  0.5929 -0.2240
 6405TIP3    H240631   3.509   1.664  16.267 -0.2818 -1.8163 -0.1236
 6406TIP3   OH240632   2.934   6.317  11.326 -0.3196  0.3035  0.1851
 6406TIP3    H140633   3.020   6.301  11.286 -0.0199  0.0086  0.9258
 6406TIP3    H240634   2.899   6.392  11.278  0.8637  1.1705  0.6110
 6407TIP3   OH240635   6.073   1.591   4.332  0.1276  0.1052 -0.0580
 6407TIP3    H140636   6.131   1.515   4.340 -0.5135 -0.5135 -1.0147
 6407TIP3    H240637   6.040   1.605   4.421  2.3096  0.9775  0.6926
 6408TIP3   OH240638   5.414   3.016  13.204  0.7018 -0.3390 -0.0235
 6408TIP3    H140639   5.443   2.993  13.293  1.2397  1.0288  0.1854
 6408TIP3    H240640   5.494   3.040  13.158  0.2751  0.3338 -0.4421
 6409TIP3   OH240641   5.580   6.055   4.688  0.0480 -0.0526  0.3209
 6409TIP3    H140642   5.559   6.135   4.736  0.4383  0.2575 -0.0079
 6409TIP3    H240643   5.586   5.987   4.755 -1.4849 -0.0600  0.4711
 6410TIP3   OH240644   1.797   6.743  10.929 -0.1704 -0.4538  0.1140
 6410TIP3    H140645   1.785   6.796  11.008  1.1432 -0.4849  0.3725
 6410TIP3    H240646   1.747   6.788  10.861 -0.8954 -0.1416  0.8480
 6411TIP3   OH240647   1.425   0.826  11.942 -0.3502  0.1780  0.0031
 6411TIP3    H140648   1.494   0.780  11.988  0.6789  2.0049  0.3827
 6411TIP3    H240649   1.384   0.882  12.008 -1.1819  0.2405 -0.5437
 6412TIP3   OH240650   1.048   4.983   3.290 -0.2142 -0.0183  0.8311
 6412TIP3    H140651   1.085   4.900   3.261 -0.3233 -0.1877  1.1697
 6412TIP3    H240652   1.083   5.048   3.229  0.5777 -0.1869  1.1013
 6413TIP3   OH240653   3.988   6.334  12.720 -0.1826 -0.3040  0.2030
 6413TIP3    H140654   3.895   6.354  12.723  0.0909  0.9246  1.9048
 6413TIP3    H240655   3.999   6.283  12.640 -2.2799 -0.3650 -0.0972
 6414TIP3   OH240656   1.351   3.289   2.000 -0.2452 -0.2162  0.0536
 6414TIP3    H140657   1.276   3.312   2.054 -1.4789  1.0173 -2.0174
 6414TIP3    H240658   1.396   3.372   1.985  1.3706 -0.8879  0.9659
 6415TIP3   OH240659   2.136   4.225  15.929  0.1536 -0.2336 -0.4142
 6415TIP3    H140660   2.053   4.217  15.977  0.6985  0.3279  0.6682
 6415TIP3    H240661   2.128   4.308  15.882 -1.0825 -1.5969 -2.7686
 6416TIP3   OH240662   5.624   5.536   5.669 -0.0962  0.4559 -0.2872
 6416TIP3    H140663   5.628   5.623   5.630 -0.6816  0.4618 -0.3477
 6416TIP3    H240664   5.533   5.508   5.655 -0.3383  0.4876  1.1170
 6417TIP3   OH240665   0.064   2.200   1.139  0.2658 -0.2964  0.2518
 6417TIP3    H140666   0.014   2.187   1.220  1.1479  2.6076  1.4050
 6417TIP3    H240667   0.155   2.193   1.166  0.5660  0.5011 -0.5269
 6418TIP3   OH240668   4.659   5.499  13.351 -0.2816  0.0791  0.1039
 6418TIP3    H140669   4.747   5.461  13.348 -0.3161 -0.0544  0.7983
 6418TIP3    H240670   4.620   5.473  13.267  0.5921  0.7640 -0.5292
 6419TIP3   OH240671   5.405   4.995   2.298 -0.5036 -0.3056  0.3861
 6419TIP3    H140672   5.444   5.027   2.217  0.1404 -1.8202  0.0696
 6419TIP3    H240673   5.423   4.901   2.298 -0.1167 -0.2758  2.5023
 6420TIP3   OH240674   5.804   3.120   1.945 -0.1417  0.5822  0.0026
 6420TIP3    H140675   5.866   3.192   1.955 -0.5545  1.1673 -1.3279
 6420TIP3    H240676   5.767   3.108   2.032  0.1099  1.8293  0.3066
 6421TIP3   OH240677   0.021   0.837  12.489  0.2191  0.1438  0.1002
 6421TIP3    H140678  -0.068   0.865  12.467  0.2951 -1.5861 -2.9482
 6421TIP3    H240679   0.028   0.853  12.583 -3.4100  0.1438  0.5268
 6422TIP3   OH240680   4.177   3.027   5.551  1.3362  0.0859  0.6555
 6422TIP3    H140681   4.167   2.932   5.549  0.5388  0.1107 -3.0217
 6422TIP3    H240682   4.268   3.042   5.575  2.6694 -1.8578 -2.6575
 6423TIP3   OH240683   3.535   5.832   2.947 -0.2769 -0.0692 -0.1674
 6423TIP3    H140684   3.522   5.757   3.006 -2.7229 -0.3681 -0.9782
 6423TIP3    H240685   3.505   5.908   2.998  0.3795  0.1030 -0.0268
 6424TIP3   OH240686   0.941   2.803   3.487 -0.2949  0.3066 -0.6929
 6424TIP3    H140687   0.994   2.852   3.549  0.1968 -0.0481 -0.8253
 6424TIP3    H240688   0.986   2.813   3.403 -0.8013  0.5534 -0.9409
 6425TIP3   OH240689   4.418   1.404  14.721 -0.2311 -0.5277  0.2059
 6425TIP3    H140690   4.384   1.340  14.658 -2.4317 -0.0835  0.8665
 6425TIP3    H240691   4.469   1.465  14.668  0.7938 -2.0390 -0.6286
 6426TIP3   OH240692   0.128   4.373  12.458  0.0897  0.0040  0.2757
 6426TIP3    H140693   0.203   4.349  12.404  0.4734  1.3659  0.1771
 6426TIP3    H240694   0.084   4.442  12.408 -1.7950 -1.4188 -0.1250
 6427TIP3   OH240695   0.122   3.612  15.722  0.4232  0.0099 -0.1662
 6427TIP3    H140696   0.054   3.632  15.786  0.2271  0.3060 -0.4616
 6427TIP3    H240697   0.182   3.686  15.726  1.1463 -0.6033  0.6307
 6428TIP3   OH240698   1.103   2.509  15.930  0.1726 -0.2707  0.2358
 6428TIP3    H140699   1.071   2.529  16.018 -0.5406 -0.8228  0.1147
 6428TIP3    H240700   1.189   2.550  15.926  1.0686 -1.8379  1.8843
 6429TIP3   OH240701   6.353   3.544   5.107 -0.2491  0.1630 -0.1446
 6429TIP3    H140702   6.302   3.534   5.027 -1.3978 -0.7767  0.6740
 6429TIP3    H240703   6.329   3.469   5.161  0.1998  0.9760  1.2430
 6430TIP3   OH240704   4.276   0.279   5.972 -0.4612  0.8104  0.7233
 6430TIP3    H140705   4.297   0.294   5.880 -1.1267  0.2799  0.4745
 6430TIP3    H240706   4.185   0.307   5.981 -0.6973 -0.0268  0.9956
 6431TIP3   OH240707   3.361   5.977   0.346  0.1981  0.0876  0.2223
 6431TIP3    H140708   3.266   5.983   0.356  0.4067  1.8772  1.5147
 6431TIP3    H240709   3.375   5.987   0.252 -0.9879 -2.8578 -0.3889
 6432TIP3   OH240710   2.448   6.265  11.732 -0.2934  0.2024 -0.0632
 6432TIP3    H140711   2.401   6.181  11.731  0.1040 -0.1351  2.2189
 6432TIP3    H240712   2.384   6.329  11.701 -0.5736 -0.9216 -1.9381
 6433TIP3   OH240713   3.927   3.927  16.731  0.3751 -0.1103 -0.3216
 6433TIP3    H140714   3.953   3.963  16.816 -1.2062  0.4709 -0.0544
 6433TIP3    H240715   3.943   3.833  16.740  0.9339  0.0356  0.3468
 6434TIP3   OH240716   2.560   4.303  15.476  0.1686  0.3337  0.1607
 6434TIP3    H140717   2.557   4.395  15.449 -0.2599  0.8072  1.7125
 6434TIP3    H240718   2.508   4.300  15.556  1.2287 -1.0097  0.8405
 6435TIP3   OH240719   0.592   5.261  15.381  0.4822 -0.0036  0.3568
 6435TIP3    H140720   0.582   5.238  15.474  2.0049 -1.3786  0.2286
 6435TIP3    H240721   0.633   5.348  15.383  3.5751 -1.3454  1.1183
 6436TIP3   OH240722   5.353   0.097  14.214 -0.1013  0.0938 -0.0118
 6436TIP3    H140723   5.393   0.169  14.166  0.9262 -0.2602  0.2760
 6436TIP3    H240724   5.267   0.129  14.240  1.0620  1.9995  1.8406
 6437TIP3   OH240725   1.984   0.098  14.052  0.4794 -0.3163 -0.3164
 6437TIP3    H140726   2.030   0.022  14.088  0.6311  0.3482  0.9296
 6437TIP3    H240727   2.054   0.158  14.026  0.3749  0.9031  2.0269
 6438TIP3   OH240728   6.320   6.429   2.008 -0.1843 -0.1019 -0.1441
 6438TIP3    H140729   6.316   6.334   1.997 -0.3308  0.0108 -1.1195
 6438TIP3    H240730   6.271   6.464   1.934  1.0192  0.7739 -0.5500
 6439TIP3   OH240731   6.596   1.782  16.513  0.3520  0.0811 -0.0361
 6439TIP3    H140732   6.565   1.717  16.451  1.6634 -1.5290  0.9165
 6439TIP3    H240733   6.544   1.860  16.494  0.2300 -0.5457 -2.6552
 6440TIP3   OH240734   4.141   4.645   6.566 -0.1052 -0.1595  0.3657
 6440TIP3    H140735   4.045   4.643   6.573 -0.3946 -0.8580 -2.5685
 6440TIP3    H240736   4.170   4.569   6.616 -1.1067 -0.2208  0.8834
 6441TIP3   OH240737   6.209   2.596  12.214 -0.1284  0.3969 -0.0103
 6441TIP3    H140738   6.191   2.634  12.128 -0.3245  0.3474  0.0072
 6441TIP3    H240739   6.127   2.608  12.263 -0.1518  0.0616  0.0343
 6442TIP3   OH240740   5.349   3.169   1.658 -0.4188  0.4614 -0.4895
 6442TIP3    H140741   5.389   3.124   1.733 -1.0678  0.8126  0.0821
 6442TIP3    H240742   5.376   3.118   1.582 -0.8023 -0.6600  0.1052
 6443TIP3   OH240743   0.142   3.493   5.428  0.4048 -0.4272  0.9226
 6443TIP3    H140744   0.224   3.526   5.391  1.3764 -1.8820  1.6616
 6443TIP3    H240745   0.162   3.403   5.453 -1.1211 -0.4724  2.1187
 6444TIP3   OH240746   3.838   4.180   2.002 -1.0934 -0.2327 -0.1348
 6444TIP3    H140747   3.830   4.153   2.093  2.6925 -0.9739  0.1524
 6444TIP3    H240748   3.855   4.099   1.954  2.1264  0.5441 -0.5632
 6445TIP3   OH240749   2.262   3.458  12.765  0.1962 -0.7974 -0.2225
 6445TIP3    H140750   2.349   3.427  12.791  1.3417  1.4694 -1.1125
 6445TIP3    H240751   2.241   3.527  12.828 -0.4886 -0.6142 -0.6476
 6446TIP3   OH240752   2.290   5.484   3.181 -0.3663  0.4441  0.1912
 6446TIP3    H140753   2.229   5.415   3.206 -0.4795 -0.1421 -1.5470
 6446TIP3    H240754   2.239   5.565   3.189 -0.9928  0.0788 -0.0612
 6447TIP3   OH240755   0.073   6.635  14.556  0.1969  0.1564 -0.4294
 6447TIP3    H140756  -0.011   6.663  14.591  0.9587  0.0716  1.5949
 6447TIP3    H240757   0.065   6.646  14.461 -1.7991  0.8859 -0.2086
 6448TIP3   OH240758   6.057   4.984  10.629 -0.4721  0.1947  0.0633
 6448TIP3    H140759   6.104   4.951  10.706 -1.2008  0.0778  0.4633
 6448TIP3    H240760   6.090   4.931  10.557 -0.2459 -0.1238  0.3967
 6449TIP3   OH240761   1.474   5.244   2.936 -0.2768  0.1316 -0.7095
 6449TIP3    H140762   1.519   5.324   2.911 -2.3031  1.7211  0.4296
 6449TIP3    H240763   1.388   5.249   2.894 -0.5474 -1.3286 -0.4173
 6450TIP3   OH240764   0.621   2.791   4.619  0.0961 -0.1288 -0.3229
 6450TIP3    H140765   0.593   2.880   4.639  1.0240  0.3236 -0.9452
 6450TIP3    H240766   0.543   2.748   4.584  0.0852  1.0383 -1.8557
 6451TIP3   OH240767   4.604   5.710   1.616 -0.0918  0.8716 -0.1972
 6451TIP3    H140768   4.572   5.643   1.555  0.5106  1.3920 -1.1115
 6451TIP3    H240769   4.675   5.666   1.663 -0.1711  0.6494 -0.2812
 6452TIP3   OH240770   1.633   5.334  11.142  0.1322  0.1668 -0.0895
 6452TIP3    H140771   1.619   5.243  11.168 -2.5566  0.1714 -1.2323
 6452TIP3    H240772   1.648   5.331  11.048  0.1604  0.9083 -0.1184
 6453TIP3   OH240773   0.012   5.724  13.521 -0.0172  0.3460 -0.2562
 6453TIP3    H140774   0.006   5.819  13.522 -1.5277  0.2761 -0.3489
 6453TIP3    H240775   0.080   5.705  13.457 -0.5991  1.3558 -1.2130
 6454TIP3   OH240776   1.827   6.066  12.311  0.0103 -0.7500  0.0152
 6454TIP3    H140777   1.732   6.078  12.317  0.2017  0.4451  0.9363
 6454TIP3    H240778   1.864   6.150  12.336  1.3293 -1.2914 -0.0334
 6455TIP3   OH240779   5.770   1.737  16.521 -0.2674 -0.0967 -0.2903
 6455TIP3    H140780   5.678   1.759  16.534 -0.6487 -0.4636 -2.0204
 6455TIP3    H240781   5.813   1.821  16.510 -0.4701  0.0610  0.0928
 6456TIP3   OH240782   6.720   5.046   3.976 -0.2334  0.2943 -0.1034
 6456TIP3    H140783   6.768   4.986   4.032 -1.7098  0.1208  1.0465
 6456TIP3    H240784   6.645   4.995   3.945  1.2429 -0.0671 -3.4507
 6457TIP3   OH240785   2.255   3.425   0.415  0.0647 -0.5682 -0.2049
 6457TIP3    H140786   2.201   3.500   0.443 -1.2050 -1.2790 -0.6631
 6457TIP3    H240787   2.330   3.426   0.474 -2.1565 -1.6197  2.8804
 6458TIP3   OH240788   4.704   1.717  17.002 -0.6434 -0.2334 -0.3201
 6458TIP3    H140789   4.763   1.664  16.948  2.1009  0.7401  1.4539
 6458TIP3    H240790   4.686   1.661  17.078  2.0353  1.0110  1.4210
 6459TIP3   OH240791   4.331   5.894  13.313  0.1359 -0.3492 -0.1992
 6459TIP3    H140792   4.356   5.802  13.323 -0.1140 -0.2982  1.0041
 6459TIP3    H240793   4.238   5.891  13.292  0.2431 -0.3807 -0.6893
 6460TIP3   OH240794   0.789   3.574   1.465 -0.3193  0.2632  0.3801
 6460TIP3    H140795   0.759   3.577   1.555 -0.6951 -1.2199  0.3408
 6460TIP3    H240796   0.730   3.513   1.421 -1.2711  2.3019 -1.3537
 6461TIP3   OH240797   6.442   4.511  12.357 -0.4224  0.3141  0.5070
 6461TIP3    H140798   6.475   4.585  12.408  0.0409 -0.5439  1.4938
 6461TIP3    H240799   6.351   4.501  12.386 -0.8877  1.2342 -0.5312
 6462TIP3   OH240800   6.002   2.000  13.147 -0.1756  0.3533 -0.1243
 6462TIP3    H140801   5.981   1.929  13.208 -0.2366  1.0692  0.7056
 6462TIP3    H240802   5.976   1.966  13.061  1.2318 -1.2237  0.0369
 6463TIP3   OH240803   3.029   4.694   5.551 -0.0444 -0.0396  0.4002
 6463TIP3    H140804   3.050   4.777   5.507 -0.1866 -0.3511 -0.2560
 6463TIP3    H240805   3.043   4.713   5.644  0.6428  0.5063  0.1923
 6464TIP3   OH240806   0.090   1.190  12.926  0.5746  0.2884 -0.1878
 6464TIP3    H140807   0.080   1.179  13.020  1.6073 -0.8242 -0.1853
 6464TIP3    H240808   0.155   1.260  12.917 -0.7829  1.6338 -0.1341
 6465TIP3   OH240809   0.958   0.635   4.736 -0.0772 -0.4308 -0.3400
 6465TIP3    H140810   0.924   0.696   4.802 -0.4655 -0.5965 -0.3882
 6465TIP3    H240811   0.980   0.691   4.661 -3.1662 -0.6232 -1.5337
 6466TIP3   OH240812   1.847   5.167  14.577 -0.6897  0.1723  0.2005
 6466TIP3    H140813   1.839   5.216  14.659 -2.0619  1.8001 -0.8394
 6466TIP3    H240814   1.772   5.108  14.576 -0.8732  0.4060 -0.0295
 6467TIP3   OH240815   2.971   2.983  12.974  0.1952 -0.0241 -0.2197
 6467TIP3    H140816   2.901   3.033  13.016  0.1799 -1.1648  1.2031
 6467TIP3    H240817   3.045   2.991  13.034  0.6198 -0.5397 -0.6678
 6468TIP3   OH240818   5.196   0.722   0.192 -0.0646  0.3000 -0.2428
 6468TIP3    H140819   5.277   0.672   0.184 -0.0923  0.3911 -1.1966
 6468TIP3    H240820   5.168   0.708   0.283  0.9014  0.1030  0.0295
 6469TIP3   OH240821   4.532   5.121  10.433 -0.3053 -0.2342  0.0154
 6469TIP3    H140822   4.534   5.036  10.478  0.1184 -0.5232 -0.5380
 6469TIP3    H240823   4.454   5.165  10.468 -0.6958 -0.9691  0.0832
 6470TIP3   OH240824   3.706   0.785  16.922  0.4346 -0.3132  1.0653
 6470TIP3    H140825   3.738   0.826  16.841  0.0506  0.1192  1.1238
 6470TIP3    H240826   3.625   0.741  16.896  0.1630  0.0597  1.2643
 6471TIP3   OH240827   2.888   0.002  14.974  0.6050  0.2884  0.1020
 6471TIP3    H140828   2.800   0.039  14.968  1.1510  1.6437  0.0988
 6471TIP3    H240829   2.909  -0.025  14.884  0.1117 -0.2461  0.1451
 6472TIP3   OH240830   3.201   1.954  15.955  0.4632 -0.5649 -0.1874
 6472TIP3    H140831   3.242   2.002  15.883  0.5898  1.0472  0.9224
 6472TIP3    H240832   3.123   2.006  15.977  0.4619 -1.0010  0.8874
 6473TIP3   OH240833   4.039   1.167   0.357  0.1390  0.0876 -0.5820
 6473TIP3    H140834   4.113   1.171   0.418 -1.8585  0.6590  1.9750
 6473TIP3    H240835   4.013   1.075   0.357 -0.6020  0.2738  0.4725
 6474TIP3   OH240836   4.779   0.601  13.598 -0.0504  0.6121 -0.4892
 6474TIP3    H140837   4.854   0.621  13.542  0.5186  1.8868  0.6613
 6474TIP3    H240838   4.815   0.547  13.668  0.1100  2.3119  0.7855
 6475TIP3   OH240839   6.478   5.232  14.314 -0.1514  0.0733 -0.0825
 6475TIP3    H140840   6.481   5.177  14.236 -0.1876 -0.1850  0.0973
 6475TIP3    H240841   6.527   5.311  14.290 -1.5622  0.7191 -0.9318
 6476TIP3   OH240842   3.021   4.256   1.263  0.5584 -0.0863 -0.0182
 6476TIP3    H140843   2.992   4.345   1.283  0.8886  0.2793 -1.1029
 6476TIP3    H240844   3.039   4.217   1.349  0.9049  1.0581  0.4516
 6477TIP3   OH240845   2.086   5.795  15.162 -0.1238  0.0393 -0.0341
 6477TIP3    H140846   2.127   5.712  15.137 -0.0963 -0.1068  0.4705
 6477TIP3    H240847   2.120   5.859  15.100  2.3168  0.2812  1.4261
 6478TIP3   OH240848   1.249   6.098  12.460  0.1072 -0.6074 -0.4019
 6478TIP3    H140849   1.335   6.059  12.441  0.0404 -1.3035  0.6221
 6478TIP3    H240850   1.193   6.023  12.481  0.0674  0.0221  1.9977
 6479TIP3   OH240851   3.998   2.285   2.370 -0.6314 -0.6864 -0.2471
 6479TIP3    H140852   3.923   2.343   2.358 -0.0121 -0.0534 -1.2022
 6479TIP3    H240853   3.986   2.217   2.304  0.2672  0.1235 -1.2935
 6480TIP3   OH240854   3.433   4.187  12.957 -0.2403  0.6349  0.4799
 6480TIP3    H140855   3.356   4.243  12.943 -0.8323 -0.3532 -0.3451
 6480TIP3    H240856   3.458   4.158  12.869  1.2137  1.0874  0.7129
 6481TIP3   OH240857   5.809   3.650  12.989  0.0003 -0.3104 -0.4186
 6481TIP3    H140858   5.851   3.672  13.073  0.4954 -0.6315 -0.5773
 6481TIP3    H240859   5.876   3.667  12.923 -0.1404 -0.7572 -0.6849
 6482TIP3   OH240860   1.171   3.076   2.948 -0.0277 -0.0096 -0.2173
 6482TIP3    H140861   1.104   3.110   3.009  1.5267  0.8286  1.1079
 6482TIP3    H240862   1.166   2.981   2.958 -1.0612  0.0354 -0.1876
 6483TIP3   OH240863   0.623   1.405   2.983 -0.0252  0.1641  0.4210
 6483TIP3    H140864   0.612   1.437   3.073  1.3298  0.5126  0.4887
 6483TIP3    H240865   0.715   1.421   2.963 -0.1582 -0.4826 -0.8198
 6484TIP3   OH240866   3.232   4.036  14.771  0.2925 -0.7928 -0.1617
 6484TIP3    H140867   3.142   4.007  14.756 -0.2817 -0.4295  2.1840
 6484TIP3    H240868   3.234   4.126  14.739 -0.3963 -0.5815  0.3655
 6485TIP3   OH240869   1.221   0.877   5.183 -0.2123 -0.3452  0.1369
 6485TIP3    H140870   1.296   0.819   5.198 -1.5331 -1.7192  1.9576
 6485TIP3    H240871   1.252   0.963   5.211  0.7050 -0.8822  0.8541
 6486TIP3   OH240872   1.230   3.088   4.681  0.0956 -0.5049  0.3114
 6486TIP3    H140873   1.179   3.047   4.612  0.6084  0.1539 -0.4819
 6486TIP3    H240874   1.319   3.054   4.669  0.3202  0.0890  0.2423
 6487TIP3   OH240875   5.752   6.102   2.940  0.1336  0.3216  0.6355
 6487TIP3    H140876   5.778   6.013   2.963 -1.0851 -0.5013 -0.9774
 6487TIP3    H240877   5.669   6.115   2.985 -0.7617 -0.2023 -0.7711
 6488TIP3   OH240878   5.267   0.443   1.050  0.2552  0.0790 -0.1884
 6488TIP3    H140879   5.351   0.402   1.031 -0.1251  0.0816 -1.9965
 6488TIP3    H240880   5.218   0.438   0.969 -0.5545  2.3577  0.0706
 6489TIP3   OH240881   2.495   6.649  15.166  0.1671  0.2903  0.0472
 6489TIP3    H140882   2.510   6.572  15.111 -0.2530  2.2093 -2.9893
 6489TIP3    H240883   2.581   6.674  15.198  0.8622  0.6135 -1.9713
 6490TIP3   OH240884   2.778   3.686  12.487  0.1296  0.3437  0.0216
 6490TIP3    H140885   2.685   3.695  12.465  0.3709  0.8112 -0.8591
 6490TIP3    H240886   2.824   3.727  12.414  1.0310  0.2483  0.5196
 6491TIP3   OH240887   6.604   2.984  13.838  0.5796  0.3788 -0.1360
 6491TIP3    H140888   6.552   3.023  13.908  0.5780 -2.0475  1.3435
 6491TIP3    H240889   6.553   2.909  13.808 -0.0063  1.9733 -3.7216
 6492TIP3   OH240890   2.626   2.940   2.110 -0.2304  0.2706  0.0388
 6492TIP3    H140891   2.717   2.965   2.097 -0.3924  1.3551  0.7873
 6492TIP3    H240892   2.575   3.007   2.064 -0.6605  0.6557  1.0270
 6493TIP3   OH240893   4.203   2.115  16.385 -0.3733 -0.0595 -0.5097
 6493TIP3    H140894   4.132   2.147  16.442 -0.4862 -0.0876 -0.6348
 6493TIP3    H240895   4.160   2.051  16.328  0.2281 -2.0527  1.1242
 6494TIP3   OH240896   4.828   1.111   1.129  0.1306 -0.2033  0.0072
 6494TIP3    H140897   4.752   1.058   1.153 -0.0815  0.1348  0.0872
 6494TIP3    H240898   4.902   1.069   1.173  0.1827 -1.2225 -0.9942
 6495TIP3   OH240899   4.696   6.008  16.899  0.6463  0.0388 -0.1299
 6495TIP3    H140900   4.687   5.968  16.985  1.7074 -0.1366 -0.0837
 6495TIP3    H240901   4.790   6.021  16.888  0.3435  2.8255 -0.0303
 6496TIP3   OH240902   3.335   5.394   2.506  0.4610  0.1064  0.1302
 6496TIP3    H140903   3.263   5.445   2.545  0.0988  0.2880 -0.7542
 6496TIP3    H240904   3.346   5.432   2.419  1.3555 -0.2008  0.1075
 6497TIP3   OH240905   1.069   0.066  11.791 -0.1115  0.2424  0.0710
 6497TIP3    H140906   1.081   0.160  11.802 -1.3390  0.4781 -0.3449
 6497TIP3    H240907   1.132   0.041  11.724 -0.4090  0.9614 -0.4951
 6498TIP3   OH240908   5.019   1.679  17.108  0.4354 -0.5641  0.6973
 6498TIP3    H140909   5.013   1.747  17.175  0.4334  0.2033 -0.0621
 6498TIP3    H240910   4.986   1.722  17.028  1.8855 -0.9784 -0.1458
 6499TIP3   OH240911   1.986   4.500   5.001  0.3812 -0.0432  0.2703
 6499TIP3    H140912   1.904   4.452   4.986  0.3745 -1.1096  3.0576
 6499TIP3    H240913   2.005   4.542   4.917 -1.4237 -2.1909 -1.3463
 6500TIP3   OH240914   0.987   5.513   2.560  0.0750 -0.0670  0.0989
 6500TIP3    H140915   1.017   5.530   2.649 -0.4469  0.3916  0.1936
 6500TIP3    H240916   0.898   5.480   2.571  0.0272 -0.0597 -0.2506
 6501TIP3   OH240917   1.573   3.511   4.779  0.4362 -0.0197 -0.1069
 6501TIP3    H140918   1.541   3.553   4.699  0.3697  1.1021  0.4889
 6501TIP3    H240919   1.516   3.545   4.849  0.5117 -0.9548  0.4322
 6502TIP3   OH240920   0.460   2.254   4.182 -0.0001 -0.4172 -0.6841
 6502TIP3    H140921   0.504   2.196   4.120 -0.7332 -0.3755 -1.2580
 6502TIP3    H240922   0.498   2.232   4.267  0.6513 -0.8305 -1.0783
 6503TIP3   OH240923   0.916   1.400   3.582 -0.8461  0.7424 -0.2608
 6503TIP3    H140924   0.946   1.414   3.493 -0.1821  0.5160 -0.0783
 6503TIP3    H240925   0.886   1.309   3.584 -0.5518  0.6459 -0.1706
 6504TIP3   OH240926   4.915   5.141  14.920 -0.9709  0.2643  0.6913
 6504TIP3    H140927   4.918   5.081  14.845  0.1396  0.1466  0.8094
 6504TIP3    H240928   4.849   5.206  14.895 -1.4529 -0.4197  0.1197
 6505TIP3   OH240929   5.213   6.467  12.756 -0.0085 -0.3980 -0.4871
 6505TIP3    H140930   5.303   6.470  12.789  0.1173 -0.6273 -0.8010
 6505TIP3    H240931   5.191   6.374  12.755 -0.3007 -0.3312 -0.2759
 6506TIP3   OH240932   4.948   6.160   4.959  0.3254 -0.0958 -0.2078
 6506TIP3    H140933   4.908   6.167   5.045 -1.6137 -0.6970 -1.0174
 6506TIP3    H240934   4.876   6.173   4.898  1.7571  0.9249 -1.7663
 6507TIP3   OH240935   5.224   4.527   3.067 -0.0460 -0.5678 -0.1224
 6507TIP3    H140936   5.172   4.526   3.148 -1.1133 -0.9276 -0.7879
 6507TIP3    H240937   5.279   4.605   3.075 -0.5857 -0.2529  0.6813
 6508TIP3   OH240938   1.736   3.969  16.157 -0.1662 -0.2262 -0.5535
 6508TIP3    H140939   1.731   3.916  16.077 -1.2220 -1.2264  0.1323
 6508TIP3    H240940   1.680   3.922  16.219 -1.2760  1.7782  0.0485
 6509TIP3   OH240941   0.125   6.109  12.120  0.2543  0.2858 -0.0018
 6509TIP3    H140942   0.110   6.146  12.207 -0.6851  1.0680 -0.4814
 6509TIP3    H240943   0.216   6.131  12.100  0.0398  1.3854  0.1863
 6510TIP3   OH240944   5.141   1.243  12.583  0.3917  0.4270  0.0534
 6510TIP3    H140945   5.149   1.313  12.648 -1.2396 -0.7616  1.6110
 6510TIP3    H240946   5.051   1.250  12.552 -0.2202 -1.7099  1.1803
 6511TIP3   OH240947   3.559   6.043  13.540 -0.1873 -0.1490  0.0433
 6511TIP3    H140948   3.553   6.130  13.501 -2.3316  0.0808  0.7663
 6511TIP3    H240949   3.469   6.012  13.544  0.2190 -1.2645  2.3306
 6512TIP3   OH240950   2.406   2.684   3.859  0.7851  0.2234 -0.1130
 6512TIP3    H140951   2.471   2.640   3.914  0.3309  1.1860  1.2562
 6512TIP3    H240952   2.439   2.674   3.770  1.4119 -1.6155  0.2923
 6513TIP3   OH240953   6.622   4.507   4.015  0.3204  0.0579  0.4978
 6513TIP3    H140954   6.587   4.418   4.020  1.2768 -0.4659 -1.2158
 6513TIP3    H240955   6.714   4.495   3.992  0.2284  1.4994 -0.7450
 6514TIP3   OH240956   4.242   6.363  13.360  0.3173 -0.0549 -0.6255
 6514TIP3    H140957   4.310   6.406  13.412 -0.5256 -0.7794  1.1317
 6514TIP3    H240958   4.271   6.375  13.269  2.5837 -0.0238  0.0417
 6515TIP3   OH240959   2.269   3.070  13.174 -0.1963 -0.3400 -0.2781
 6515TIP3    H140960   2.195   3.013  13.150 -0.5821  0.4591 -1.0345
 6515TIP3    H240961   2.329   3.063  13.100  1.0036 -1.7728  0.7718
 6516TIP3   OH240962   5.311   0.767   1.679  0.0319  0.1815 -0.1625
 6516TIP3    H140963   5.264   0.693   1.717 -0.2102 -0.3115 -1.3827
 6516TIP3    H240964   5.316   0.831   1.750 -0.6137 -0.6098  0.6199
 6517TIP3   OH240965   0.028   1.342  11.558  0.0513  0.0008  0.3645
 6517TIP3    H140966   0.003   1.403  11.489  0.7285 -0.1274 -0.0097
 6517TIP3    H240967   0.019   1.255  11.518 -0.0946 -0.1048  0.6208
 6518TIP3   OH240968   6.555   1.491  13.093 -0.5433 -0.1260  0.0345
 6518TIP3    H140969   6.519   1.501  13.181 -0.0318  1.4924  0.0988
 6518TIP3    H240970   6.569   1.397  13.082  3.0630 -0.1791  3.1913
 6519TIP3   OH240971   2.180   2.414  15.786  0.2316  0.0030  0.3619
 6519TIP3    H140972   2.182   2.321  15.763  1.4495 -0.0615  0.6634
 6519TIP3    H240973   2.258   2.450  15.743  0.6419  0.5571  1.5268
 6520TIP3   OH240974   4.160   1.947   2.393 -0.0612  0.4633 -0.1213
 6520TIP3    H140975   4.139   2.025   2.340  0.7086  0.0330 -1.0901
 6520TIP3    H240976   4.239   1.911   2.352 -0.4901 -0.9171  0.2138
 6521TIP3   OH240977   6.571   5.965  16.907  0.7306 -0.1349 -0.4971
 6521TIP3    H140978   6.649   5.935  16.954  0.9829 -0.6150 -1.2025
 6521TIP3    H240979   6.604   6.035  16.850  0.7901 -0.7645 -1.2651
 6522TIP3   OH240980   6.432   5.078   5.110 -0.2688  0.4000 -0.2749
 6522TIP3    H140981   6.387   5.029   5.179 -0.7633 -0.0976 -0.9290
 6522TIP3    H240982   6.384   5.056   5.030  1.6451 -0.8633 -1.1645
 6523TIP3   OH240983   0.821   6.462   0.507  0.9140  0.3026 -0.2046
 6523TIP3    H140984   0.809   6.557   0.510  0.9304  0.3026  1.9151
 6523TIP3    H240985   0.793   6.437   0.420  0.0651  2.1513 -0.5203
 6524TIP3   OH240986   5.134   5.890  12.193 -0.1121  0.1656 -0.1625
 6524TIP3    H140987   5.163   5.919  12.280 -2.1335  1.2082  0.2299
 6524TIP3    H240988   5.092   5.806  12.209 -1.8314  1.0530  0.1701
 6525TIP3   OH240989   4.620   2.606   1.841 -0.3357 -0.4069  0.4759
 6525TIP3    H140990   4.544   2.589   1.784 -0.4086  0.8093  0.1673
 6525TIP3    H240991   4.693   2.563   1.797 -0.2796  0.9882 -0.8843
 6526TIP3   OH240992   5.685   3.639   4.781  0.3383  0.7238 -0.4261
 6526TIP3    H140993   5.688   3.713   4.843 -0.1222  0.7327 -0.4182
 6526TIP3    H240994   5.623   3.666   4.714  0.0423  0.2677 -0.3339
 6527TIP3   OH240995   3.216   3.158   5.992  0.0777  0.0337 -0.0791
 6527TIP3    H140996   3.188   3.238   6.037  0.9021  0.5114 -0.4026
 6527TIP3    H240997   3.303   3.179   5.958  0.3960 -1.0794  0.0258
 6528TIP3   OH240998   1.767   6.632   1.394  0.2322 -0.3464  0.3355
 6528TIP3    H140999   1.739   6.722   1.407  0.4037  0.1780 -2.3216
 6528TIP3    H241000   1.847   6.623   1.446 -0.0359  0.8863  0.9816
 6529TIP3   OH241001   3.476   0.925   4.436  0.1384  0.2497 -0.4183
 6529TIP3    H141002   3.562   0.966   4.445 -0.1409  0.7382  0.0922
 6529TIP3    H241003   3.488   0.857   4.369  1.5207 -1.3712  1.3666
 6530TIP3   OH241004   0.903   4.624  10.982  0.1130 -0.0636 -0.2306
 6530TIP3    H141005   0.927   4.532  10.995  0.8430  0.3275  1.3661
 6530TIP3    H241006   0.811   4.620  10.953  0.0753 -1.2784 -0.0005
 6531TIP3   OH241007   6.673   3.030   4.073  0.3753 -0.6831 -0.1201
 6531TIP3    H141008   6.597   3.081   4.103  0.0656 -1.3068  0.1972
 6531TIP3    H241009   6.740   3.046   4.139 -0.1168 -1.6039  0.6274
 6532TIP3   OH241010   4.190   2.496  13.851  0.4622 -0.4806  0.2174
 6532TIP3    H141011   4.152   2.409  13.862 -0.7658 -0.3187 -2.0937
 6532TIP3    H241012   4.281   2.479  13.828  0.3763 -1.1272  0.3368
 6533TIP3   OH241013   5.955   1.789  16.170 -0.1649 -0.2212  0.2076
 6533TIP3    H141014   5.890   1.778  16.101 -1.9088 -0.5314  1.8337
 6533TIP3    H241015   5.924   1.865  16.220  1.9199  0.9902 -0.2136
 6534TIP3   OH241016   2.719   6.136  13.180  0.2301 -0.0387  0.0899
 6534TIP3    H141017   2.656   6.192  13.134 -0.2447  1.7273  2.6443
 6534TIP3    H241018   2.669   6.099  13.253  1.8209  0.5265  1.5347
 6535TIP3   OH241019   3.414   4.919  12.525 -0.1703  0.9081  0.1360
 6535TIP3    H141020   3.451   4.936  12.611  2.0113  1.5764 -0.8629
 6535TIP3    H241021   3.452   4.986  12.468  0.0061 -0.6715 -1.7424
 6536TIP3   OH241022   6.449   2.920  13.250 -0.2358  0.2445  0.7660
 6536TIP3    H141023   6.526   2.974  13.232  0.1588 -0.3993  0.5059
 6536TIP3    H241024   6.375   2.977  13.230  0.1604 -0.0266 -1.8846
 6537TIP3   OH241025   0.555   3.292  15.587  0.4693  0.4609 -0.1113
 6537TIP3    H141026   0.572   3.224  15.522 -3.6324 -0.6350 -0.2868
 6537TIP3    H241027   0.506   3.359  15.539  0.3368  1.2762  1.1305
 6538TIP3   OH241028   2.979   2.636  13.079 -0.4717 -0.0471  0.0155
 6538TIP3    H141029   2.983   2.611  13.172 -2.0222  0.7936  0.3440
 6538TIP3    H241030   3.068   2.665  13.059 -0.6432  2.2288  2.0074
 6539TIP3   OH241031   5.526   0.980   3.005 -0.1215  0.0970  0.1484
 6539TIP3    H141032   5.543   1.050   3.068 -0.1889  0.2747 -0.0290
 6539TIP3    H241033   5.557   0.900   3.049 -0.6061  0.1517  0.5940
 6540TIP3   OH241034   5.263   5.840   3.739  0.7567 -0.7458 -0.4744
 6540TIP3    H141035   5.341   5.791   3.763 -0.3006 -1.5120  1.5889
 6540TIP3    H241036   5.261   5.835   3.643  4.6527  1.6210 -0.9121
 6541TIP3   OH241037   2.724   1.841  12.149  0.2009 -0.6666 -0.8204
 6541TIP3    H141038   2.653   1.855  12.212  1.3005 -2.5849  0.9639
 6541TIP3    H241039   2.801   1.879  12.192  1.4059 -3.8670  0.1206
 6542TIP3   OH241040   0.198   2.256  16.473 -0.2290  0.5394 -0.8101
 6542TIP3    H141041   0.221   2.165  16.489  0.4505  1.0171  1.2972
 6542TIP3    H241042   0.106   2.254  16.449 -0.2765 -0.6758 -0.5715
 6543TIP3   OH241043   4.498   6.375   2.448 -0.0060  0.1902  0.4889
 6543TIP3    H141044   4.503   6.449   2.387  1.2804  0.0816  0.4318
 6543TIP3    H241045   4.404   6.358   2.458 -0.2703  0.5572 -1.0419
 6544TIP3   OH241046   6.468   0.124   4.554  0.1422 -0.1972  0.7763
 6544TIP3    H141047   6.553   0.086   4.576 -0.3634 -2.1825 -0.3562
 6544TIP3    H241048   6.454   0.192   4.619  2.1183 -0.5356  1.6349
 6545TIP3   OH241049   0.700   3.960  15.009  0.2451  0.0375  0.5121
 6545TIP3    H141050   0.757   4.022  14.963  0.1494  0.3138  0.7615
 6545TIP3    H241051   0.622   4.011  15.031 -0.6849 -0.6724 -0.9777
 6546TIP3   OH241052   3.295   0.942   2.112 -0.1346 -0.5266 -0.2969
 6546TIP3    H141053   3.238   1.008   2.073 -1.2302 -2.2593 -1.8099
 6546TIP3    H241054   3.280   0.951   2.207  0.2315  1.7340 -0.3992
 6547TIP3   OH241055   2.518   0.142  16.125  0.5986  0.1241  0.2465
 6547TIP3    H141056   2.503   0.048  16.114  0.0841  0.3817 -1.8342
 6547TIP3    H241057   2.505   0.158  16.218 -2.3154 -1.3759  0.1992
 6548TIP3   OH241058   6.228   0.594   1.366 -0.1412  0.2290 -0.8733
 6548TIP3    H141059   6.256   0.666   1.309  0.3655  1.6989  1.1098
 6548TIP3    H241060   6.167   0.635   1.427  1.5179 -0.5792  1.4365
 6549TIP3   OH241061   0.245   5.405   4.495  0.3319 -0.4297  0.4611
 6549TIP3    H141062   0.151   5.415   4.477  0.4009 -1.3203 -0.5024
 6549TIP3    H241063   0.286   5.402   4.408  1.3129  0.3592  0.8782
 6550TIP3   OH241064   1.841   0.244   3.839  0.6915  0.4772 -0.0408
 6550TIP3    H141065   1.785   0.229   3.762 -0.6539  2.4288  0.4681
 6550TIP3    H241066   1.793   0.203   3.911  1.5501 -0.6424 -0.0858
 6551TIP3   OH241067   5.932   4.649  11.143  0.4781  0.2780  0.0258
 6551TIP3    H141068   6.024   4.655  11.117  0.4671  1.7104  0.2191
 6551TIP3    H241069   5.920   4.719  11.208 -0.8378  0.3856 -0.2877
 6552TIP3   OH241070   0.940   0.220   4.117  0.4611  0.0009 -0.1265
 6552TIP3    H141071   0.871   0.223   4.051 -0.6657 -0.0569  1.0005
 6552TIP3    H241072   0.957   0.127   4.129  1.2720  0.0368 -0.9233
 6553TIP3   OH241073   6.578   2.761   1.422  0.4027 -0.1830 -0.5160
 6553TIP3    H141074   6.531   2.717   1.493 -0.1098  2.1659  0.7083
 6553TIP3    H241075   6.555   2.711   1.343 -0.7284 -1.6142  0.6603
 6554TIP3   OH241076   4.427   5.125   5.613  0.3622 -0.0826 -0.0243
 6554TIP3    H141077   4.355   5.169   5.658  0.7015  0.2944  0.1632
 6554TIP3    H241078   4.495   5.192   5.607  0.9115 -0.5988  0.3145
 6555TIP3   OH241079   2.997   0.114  12.269  0.3384 -0.0270 -0.3615
 6555TIP3    H141080   3.031   0.202  12.283  0.9987 -0.1961 -0.8610
 6555TIP3    H241081   3.037   0.085  12.186  0.8679 -1.1470  0.2579
 6556TIP3   OH241082   3.793   0.524   1.105 -0.2069 -0.1225  0.0528
 6556TIP3    H141083   3.833   0.591   1.049 -1.3725 -0.4516 -1.2400
 6556TIP3    H241084   3.699   0.546   1.105 -0.3448 -0.6409  1.1928
 6557TIP3   OH241085   4.627   4.639   4.134  0.8663 -0.7985 -0.2882
 6557TIP3    H141086   4.678   4.715   4.163  0.5117 -0.7377  0.1862
 6557TIP3    H241087   4.560   4.675   4.076  2.2681 -1.0402 -2.1529
 6558TIP3   OH241088   0.032   3.867  16.195  0.3303  0.1344 -0.0683
 6558TIP3    H141089   0.094   3.926  16.237  0.3643  0.3052 -0.3561
 6558TIP3    H241090   0.085   3.812  16.137  0.2695 -0.0205  0.0214
 6559TIP3   OH241091   2.566   1.266   2.047 -0.4287 -0.5656 -0.3764
 6559TIP3    H141092   2.553   1.173   2.063  0.1196 -0.5735  0.0538
 6559TIP3    H241093   2.624   1.295   2.118 -0.0569 -0.0402 -0.8813
 6560TIP3   OH241094   0.380   4.243  11.701  0.2663 -0.0370 -0.2857
 6560TIP3    H141095   0.392   4.150  11.682  1.1445  0.3087 -1.5724
 6560TIP3    H241096   0.433   4.258  11.780 -1.1596 -0.9253  0.8874
 6561TIP3   OH241097   4.750   1.011   4.281 -0.4706 -0.4452  0.7976
 6561TIP3    H141098   4.836   0.977   4.302 -0.7367 -2.1159 -0.6066
 6561TIP3    H241099   4.703   1.013   4.364  0.8031  0.1949  1.5172
 6562TIP3   OH241100   1.864   5.370   4.598 -0.1380  0.2542  0.2655
 6562TIP3    H141101   1.848   5.435   4.666  0.8445 -0.2958  1.0464
 6562TIP3    H241102   1.841   5.415   4.517 -1.3272  0.9233  0.9477
 6563TIP3   OH241103   3.416   4.794   0.282 -0.3962 -0.2521  0.2179
 6563TIP3    H141104   3.327   4.791   0.246 -0.1852 -0.9798 -0.2694
 6563TIP3    H241105   3.414   4.865   0.346 -1.0122  0.5308 -0.6418
 6564TIP3   OH241106   3.511   4.881   5.353  0.4014  0.1837 -0.2943
 6564TIP3    H141107   3.541   4.846   5.437  0.2205 -0.6597 -0.5756
 6564TIP3    H241108   3.571   4.845   5.289 -0.5636 -0.6852 -0.7421
 6565TIP3   OH241109   1.648   3.382  11.399  0.6441 -0.4892  0.1825
 6565TIP3    H141110   1.702   3.313  11.435 -2.0468 -2.1900  1.2678
 6565TIP3    H241111   1.563   3.341  11.383 -0.5127  2.0857 -1.0455
 6566TIP3   OH241112   5.891   4.809  16.907 -0.3514  0.8442 -0.5403
 6566TIP3    H141113   5.884   4.903  16.894  3.6273  1.2043 -1.2575
 6566TIP3    H241114   5.907   4.798  17.001 -1.9515  0.6969 -0.2503
 6567TIP3   OH241115   1.865   4.924  10.699 -0.0439 -0.2874 -0.2981
 6567TIP3    H141116   1.885   4.969  10.617  0.8474 -0.6190 -0.2743
 6567TIP3    H241117   1.845   4.995  10.761  0.9785  0.0689 -0.3568
 6568TIP3   OH241118   5.366   3.269  16.193  0.1461  0.3607 -0.2266
 6568TIP3    H141119   5.449   3.229  16.218 -1.1996 -1.8537  1.0442
 6568TIP3    H241120   5.311   3.260  16.271 -1.1078  2.3536 -0.8183
 6569TIP3   OH241121   0.499   4.791   3.553  0.0838  0.2045  0.4780
 6569TIP3    H141122   0.563   4.856   3.524  1.3798 -0.6619  1.3208
 6569TIP3    H241123   0.429   4.843   3.593  0.5893  1.1211  0.2019
 6570TIP3   OH241124   1.796   1.508   0.728 -0.1829  0.0727  0.0188
 6570TIP3    H141125   1.855   1.505   0.803  0.0148  2.0914  0.0162
 6570TIP3    H241126   1.708   1.500   0.766 -0.0228 -0.2023  0.3316
 6571TIP3   OH241127   3.395   5.377  16.215 -0.1224 -0.5109 -0.0258
 6571TIP3    H141128   3.411   5.445  16.281 -2.1388 -0.9414  0.9987
 6571TIP3    H241129   3.467   5.315  16.227  0.2451  0.0680  0.9034
 6572TIP3   OH241130   2.536   4.214   0.736  0.8275  0.2198  0.3180
 6572TIP3    H141131   2.542   4.306   0.763  1.2759  0.1010  0.6216
 6572TIP3    H241132   2.623   4.178   0.751  0.5229 -0.3889  0.6680
 6573TIP3   OH241133   2.287   1.282   2.198  0.0231  0.2583  0.0875
 6573TIP3    H141134   2.343   1.358   2.183  0.6964 -0.5290 -1.6764
 6573TIP3    H241135   2.341   1.222   2.249 -0.3568  0.7608  1.1061
 6574TIP3   OH241136   1.167   4.260   2.120 -0.0130  0.2376  0.1949
 6574TIP3    H141137   1.231   4.256   2.048  1.1637  1.4417  1.1347
 6574TIP3    H241138   1.215   4.301   2.192 -2.4043  3.0593  0.3442
 6575TIP3   OH241139   4.160   3.452   4.024 -0.2406 -0.0834  0.1646
 6575TIP3    H141140   4.124   3.490   3.944 -1.0020 -0.9676  0.0613
 6575TIP3    H241141   4.159   3.357   4.008  0.5204 -0.2154  0.8459
 6576TIP3   OH241142   2.432   5.876  12.113 -0.2217  0.0469  0.1645
 6576TIP3    H141143   2.367   5.867  12.183 -0.9438  2.0351 -0.1956
 6576TIP3    H241144   2.503   5.818  12.139 -1.7343 -1.5240  1.0381
 6577TIP3   OH241145   0.886   6.037   3.867 -0.1253 -0.2384  0.1590
 6577TIP3    H141146   0.912   6.102   3.932 -0.3187  0.5399 -0.5310
 6577TIP3    H241147   0.792   6.047   3.859 -0.1292 -0.4653 -0.0947
 6578TIP3   OH241148   4.340   0.385   2.790 -0.4912 -0.1755 -0.1404
 6578TIP3    H141149   4.354   0.335   2.710 -2.8822  0.3463 -0.9451
 6578TIP3    H241150   4.271   0.338   2.836  1.3555 -0.9121  2.0942
 6579TIP3   OH241151   2.833   0.195  16.453 -0.2934  0.2147 -0.1952
 6579TIP3    H141152   2.741   0.220  16.448 -0.1355  0.7705 -0.3988
 6579TIP3    H241153   2.874   0.264  16.506 -0.2473 -0.7682  1.1080
 6580TIP3   OH241154   5.028   4.834  11.550  0.7687  0.3175  0.1684
 6580TIP3    H141155   5.115   4.796  11.537  0.6776  0.7791 -2.3693
 6580TIP3    H241156   5.041   4.901  11.616  1.8431 -1.0957  1.4760
 6581TIP3   OH241157   3.943   5.449   4.916 -0.0577 -0.1821  0.0414
 6581TIP3    H141158   3.885   5.526   4.917  0.2132  0.0444 -0.6271
 6581TIP3    H241159   4.028   5.483   4.945 -0.2664 -0.5313  1.1010
 6582TIP3   OH241160   4.847   0.798   0.902  0.2692 -0.0295  0.0056
 6582TIP3    H141161   4.935   0.774   0.929  0.2532  0.3589  0.4282
 6582TIP3    H241162   4.804   0.826   0.983  0.2862  1.3735 -0.4361
 6583TIP3   OH241163   1.227   5.632   1.041  0.4135  0.0666 -0.1951
 6583TIP3    H141164   1.227   5.610   1.134  0.7923 -1.5273 -0.5446
 6583TIP3    H241165   1.135   5.639   1.017  0.2631 -1.4183 -0.1034
 6584TIP3   OH241166   6.773   0.899   2.554 -0.2921 -0.1458 -0.0724
 6584TIP3    H141167   6.854   0.855   2.578  0.3306  1.6366  1.3094
 6584TIP3    H241168   6.774   0.902   2.458 -0.3629 -3.0198 -0.2398
 6585TIP3   OH241169   5.981   2.191   0.830  0.3630  0.4045 -0.3072
 6585TIP3    H141170   5.907   2.164   0.776  0.0790  1.9767 -0.7580
 6585TIP3    H241171   5.947   2.262   0.884  0.4572 -1.5534  2.4961
 6586TIP3   OH241172   3.760   2.822  14.507  0.1456 -0.0722  0.3089
 6586TIP3    H141173   3.753   2.832  14.602 -0.0864 -0.1479  0.3008
 6586TIP3    H241174   3.724   2.903  14.471  1.7994  0.7123  0.3075
 6587TIP3   OH241175   4.041   4.702  15.367 -0.1395  0.3827 -0.2334
 6587TIP3    H141176   4.106   4.718  15.299 -1.1014 -0.5508 -1.4255
 6587TIP3    H241177   4.001   4.788  15.383 -0.0675  0.5714 -1.0284
 6588TIP3   OH241178   4.442   3.879   0.483 -0.0035  0.0831 -0.1122
 6588TIP3    H141179   4.365   3.823   0.485 -0.6957  0.8955 -1.8850
 6588TIP3    H241180   4.495   3.850   0.557 -1.6176 -1.0340  0.6531
 6589TIP3   OH241181   1.763   2.927   5.864 -0.6694 -0.0297 -0.3753
 6589TIP3    H141182   1.805   2.948   5.947 -0.8402  0.7769 -0.4906
 6589TIP3    H241183   1.770   2.832   5.858 -0.1184 -0.0399  0.2722
 6590TIP3   OH241184   5.751   6.135  16.809 -0.3476 -0.6548  0.4647
 6590TIP3    H141185   5.766   6.050  16.849  0.1838  0.5871  3.1141
 6590TIP3    H241186   5.675   6.170  16.855  0.3772  0.9069  0.5520
 6591TIP3   OH241187   4.638   2.960  15.967  0.5127  0.3017  0.0124
 6591TIP3    H141188   4.644   2.873  16.007 -0.0584 -0.8347 -2.1801
 6591TIP3    H241189   4.712   2.963  15.906  0.4472  1.3079 -0.0281
 6592TIP3   OH241190   6.629   6.145  15.620  0.2008 -0.0057  0.5834
 6592TIP3    H141191   6.639   6.050  15.606 -0.6194  0.1540 -1.3236
 6592TIP3    H241192   6.583   6.152  15.704 -0.5322 -1.3301  0.3193
 6593TIP3   OH241193   4.271   6.145  15.806 -0.2788  0.6424  0.4508
 6593TIP3    H141194   4.346   6.184  15.851  0.5412  0.0241 -0.3356
 6593TIP3    H241195   4.274   6.181  15.718  0.4293 -1.0414 -0.2573
 6594TIP3   OH241196   4.348   4.187   6.032  0.5545 -0.2885  0.6716
 6594TIP3    H141197   4.400   4.259   6.066 -0.1875  0.1880  0.8247
 6594TIP3    H241198   4.402   4.109   6.047  1.6397  0.2974 -0.0902
 6595TIP3   OH241199   3.132   2.925  14.574  0.2198 -0.3036  0.1135
 6595TIP3    H141200   3.100   2.991  14.635  0.7743 -1.3708  1.6247
 6595TIP3    H241201   3.177   2.861  14.629 -0.9930 -2.3931 -1.1665
 6596TIP3   OH241202   3.208   4.974   1.939 -0.4922  0.4567  0.1796
 6596TIP3    H141203   3.154   4.938   2.009  0.8598 -2.5479 -0.1596
 6596TIP3    H241204   3.272   5.030   1.983  1.4350 -2.6917  1.7650
 6597TIP3   OH241205   0.053   4.834  13.252  0.0918  0.3972  0.0223
 6597TIP3    H141206  -0.019   4.867  13.199  0.7515  1.0368 -0.5099
 6597TIP3    H241207   0.122   4.814  13.189  0.2103 -0.6827  0.4761
 6598TIP3   OH241208   1.329   6.490   1.919  0.4261  0.0106  0.6579
 6598TIP3    H141209   1.370   6.437   1.850  0.5238  0.3562  0.4438
 6598TIP3    H241210   1.257   6.534   1.875  0.9658  0.8411  0.5799
 6599TIP3   OH241211   2.799   6.564  11.803  0.1966  0.3710 -0.7764
 6599TIP3    H141212   2.712   6.577  11.842  0.8844 -0.4344  1.1211
 6599TIP3    H241213   2.819   6.649  11.763 -0.0592  1.6988  1.7185
 6600TIP3   OH241214   5.651   5.090   3.443  0.1304  0.2743 -0.8878
 6600TIP3    H141215   5.709   5.165   3.438 -1.7107  1.7402 -1.2831
 6600TIP3    H241216   5.584   5.107   3.377 -1.6219 -0.5458  0.5880
 6601TIP3   OH241217   2.310   1.187   0.088 -0.5801 -0.8898  0.2964
 6601TIP3    H141218   2.292   1.095   0.068  1.6166 -1.0125 -1.5496
 6601TIP3    H241219   2.263   1.204   0.170 -0.1586 -3.9567  1.2887
 6602TIP3   OH241220   4.187   5.257   4.729 -0.3742 -0.1316 -0.3365
 6602TIP3    H141221   4.137   5.245   4.810 -0.8028 -0.0136 -0.5791
 6602TIP3    H241222   4.125   5.299   4.669  0.2179  0.6138 -0.4396
 6603TIP3   OH241223   1.119   5.847  12.489  0.2857  0.0870 -0.1829
 6603TIP3    H141224   1.053   5.864  12.556 -1.0742 -1.9673 -0.9092
 6603TIP3    H241225   1.178   5.783  12.529  0.2046 -0.1771 -0.4776
 6604TIP3   OH241226   4.130   3.395   2.468  0.7708  0.0480  0.1890
 6604TIP3    H141227   4.190   3.461   2.433  0.2940  0.6453  0.4951
 6604TIP3    H241228   4.187   3.337   2.520  1.1679  0.2925  0.0316
 6605TIP3   OH241229   5.053   5.929   1.425 -0.5654  0.4000  0.2648
 6605TIP3    H141230   4.964   5.953   1.396 -0.8332 -2.4600 -1.7481
 6605TIP3    H241231   5.042   5.901   1.515 -1.6510  0.3650  0.1390
 6606TIP3   OH241232   2.023   2.127   1.589 -0.2086  0.0440  0.0256
 6606TIP3    H141233   1.949   2.187   1.603  0.9055  1.5688 -0.2953
 6606TIP3    H241234   2.014   2.099   1.498  0.4065  1.4210 -0.4873
 6607TIP3   OH241235   1.945   3.365  15.475  0.5995 -0.2973 -0.0466
 6607TIP3    H141236   2.030   3.352  15.517  0.5670 -1.3689 -0.2892
 6607TIP3    H241237   1.890   3.401  15.545  0.5453 -2.0707  0.8744
 6608TIP3   OH241238   4.811   1.622  14.331 -0.1035  0.5420  0.1835
 6608TIP3    H141239   4.754   1.624  14.254 -1.1166  1.8888  0.9349
 6608TIP3    H241240   4.896   1.651  14.299 -0.2980  0.2980 -0.5759
 6609TIP3   OH241241   4.281   0.788   0.193 -0.6352  0.0338 -0.4395
 6609TIP3    H141242   4.197   0.768   0.235 -1.6937  2.8360 -1.0264
 6609TIP3    H241243   4.293   0.882   0.205  1.6732 -0.0043 -1.7599
 6610TIP3   OH241244   4.969   0.086   4.121  0.5519 -0.0416  0.2148
 6610TIP3    H141245   4.915   0.026   4.069  0.8246 -0.4127  0.3587
 6610TIP3    H241246   4.943   0.072   4.211 -0.3887  1.0741  0.1438
 6611TIP3   OH241247   3.520   4.146   6.192 -0.1288  0.1634 -0.2490
 6611TIP3    H141248   3.546   4.056   6.172 -0.6373 -0.2770  0.9545
 6611TIP3    H241249   3.475   4.140   6.276 -1.5415  1.3249 -0.8711
 6612TIP3   OH241250   0.143   2.070  12.319  0.8759  0.0129  0.5202
 6612TIP3    H141251   0.073   2.037  12.375  0.1494  0.2773 -0.2104
 6612TIP3    H241252   0.124   2.164  12.312  1.1088  0.0237  0.0452
 6613TIP3   OH241253   2.616   2.228   0.059  0.1705  0.8540  0.4098
 6613TIP3    H141254   2.711   2.214   0.052 -0.0366 -1.3627  1.2471
 6613TIP3    H241255   2.608   2.303   0.119  1.4420 -0.4143  2.3079
 6614TIP3   OH241256   3.318   5.574  14.721  0.0596 -0.4046 -0.0379
 6614TIP3    H141257   3.318   5.593  14.815 -0.9027 -0.2674 -0.0493
 6614TIP3    H241258   3.280   5.653  14.681  2.6759  0.5703 -0.7995
 6615TIP3   OH241259   3.943   1.189   3.479 -0.1658  0.3623 -0.0957
 6615TIP3    H141260   4.005   1.116   3.474 -0.4455  0.1997 -1.6171
 6615TIP3    H241261   3.999   1.267   3.482  0.1408  0.1179  1.9468
 6616TIP3   OH241262   0.500   4.708  11.132 -0.0608  0.2900  0.0250
 6616TIP3    H141263   0.556   4.681  11.060  0.3005  0.7762  0.1212
 6616TIP3    H241264   0.436   4.767  11.092  0.2792  0.7404  0.1373
 6617TIP3   OH241265   5.150   1.537  15.077 -0.5208 -0.4234 -0.4217
 6617TIP3    H141266   5.182   1.453  15.112 -2.9826 -0.4486  2.1004
 6617TIP3    H241267   5.221   1.599  15.095  0.1466 -1.4034  0.4575
 6618TIP3   OH241268   5.139   3.098   4.065 -0.1420  0.4278  0.0864
 6618TIP3    H141269   5.095   3.182   4.054  1.1432  0.9891 -1.0882
 6618TIP3    H241270   5.200   3.094   3.992 -0.7980 -1.9463 -0.4208
 6619TIP3   OH241271   3.711   1.309  13.223  0.4953  0.0181  0.6233
 6619TIP3    H141272   3.679   1.283  13.137 -0.5629 -2.1763  1.5977
 6619TIP3    H241273   3.645   1.370  13.256  1.0440  1.0871 -0.1655
 6620TIP3   OH241274   0.616   3.179  16.202 -0.1440 -0.8077  0.9407
 6620TIP3    H141275   0.677   3.130  16.146 -0.8008  0.2538 -0.7997
 6620TIP3    H241276   0.670   3.216  16.271  0.9038 -1.2653  0.3845
 6621TIP3   OH241277   4.030   5.101   5.332  0.4488 -0.2332 -0.1242
 6621TIP3    H141278   3.985   5.180   5.363  1.3121  0.1406  0.2311
 6621TIP3    H241279   3.974   5.029   5.361 -0.1485  0.2287 -0.0949
 6622TIP3   OH241280   5.280   0.979   2.320 -0.1141 -0.3989  0.3319
 6622TIP3    H141281   5.218   1.041   2.282  1.5012  0.8609 -0.3530
 6622TIP3    H241282   5.326   0.942   2.244  1.9356  0.8322  0.9097
 6623TIP3   OH241283   5.847   3.688   5.637 -0.6399  0.3615 -0.4027
 6623TIP3    H141284   5.813   3.756   5.695 -0.8605  0.6068 -0.8118
 6623TIP3    H241285   5.866   3.734   5.555  1.1639  0.3319 -0.0360
 6624TIP3   OH241286   5.955   5.872   2.471 -0.1311 -0.0881  0.4801
 6624TIP3    H141287   5.896   5.927   2.419  0.3975  0.6192  0.6069
 6624TIP3    H241288   6.037   5.871   2.422 -0.4117 -1.5366  0.0162
 6625TIP3   OH241289   3.277   2.192  10.691 -0.2968  0.3269 -0.3336
 6625TIP3    H141290   3.197   2.245  10.682 -0.9622 -0.2950  1.4141
 6625TIP3    H241291   3.290   2.154  10.605 -2.9165 -0.9366 -0.2736
 6626TIP3   OH241292   2.795   1.952   1.688 -0.7957 -0.5997  0.7933
 6626TIP3    H141293   2.830   1.985   1.771  0.7726  2.5469 -0.9727
 6626TIP3    H241294   2.758   2.028   1.645  0.6422 -1.5414 -2.4367
 6627TIP3   OH241295   0.474   1.951  14.370  0.5481  0.1038  0.0276
 6627TIP3    H141296   0.499   1.871  14.417 -1.4072 -1.0977 -0.8415
 6627TIP3    H241297   0.514   2.022  14.421 -0.6318 -1.1524  2.9951
 6628TIP3   OH241298   4.348   6.189   5.545 -0.3976 -0.4015  0.0969
 6628TIP3    H141299   4.367   6.223   5.457 -1.0982 -0.7403 -0.1931
 6628TIP3    H241300   4.254   6.205   5.556 -0.3371 -0.4950  0.7271
 6629TIP3   OH241301   0.796   2.992   4.450 -0.8106  0.0721  0.1671
 6629TIP3    H141302   0.801   2.989   4.546 -0.6964  0.9849  0.2053
 6629TIP3    H241303   0.778   2.902   4.424 -0.1858 -0.3170  1.0125
 6630TIP3   OH241304   6.547   6.124   0.594 -0.5775 -0.5759 -0.0210
 6630TIP3    H141305   6.519   6.110   0.685 -1.6979 -0.4710 -0.3348
 6630TIP3    H241306   6.470   6.101   0.542 -0.0132 -0.4194 -0.9349
 6631TIP3   OH241307   3.291   3.145  11.262  0.7489 -0.6125  0.4761
 6631TIP3    H141308   3.315   3.212  11.198  0.0464  0.0918  0.9340
 6631TIP3    H241309   3.217   3.100  11.223 -0.2304  0.3763  1.1341
 6632TIP3   OH241310   5.746   0.460   1.065  0.3611 -0.8555  0.1884
 6632TIP3    H141311   5.682   0.465   1.136 -0.6812 -0.5750 -0.7307
 6632TIP3    H241312   5.823   0.505   1.099  1.1549 -3.5734  2.3685
 6633TIP3   OH241313   4.440   1.452   5.245  0.2781  0.0058 -0.3810
 6633TIP3    H141314   4.496   1.469   5.321 -0.5451 -0.8435  0.4435
 6633TIP3    H241315   4.352   1.445   5.282 -0.2552  0.4640 -1.5436
 6634TIP3   OH241316   5.585   0.484   4.703  0.2123  0.1409 -0.7221
 6634TIP3    H141317   5.611   0.547   4.770 -0.1939 -0.6692  0.2169
 6634TIP3    H241318   5.663   0.432   4.686  0.3683  0.4706 -1.0269
 6635TIP3   OH241319   4.260   6.594  15.496  0.1427  0.2747 -0.1003
 6635TIP3    H141320   4.205   6.588  15.573  2.1185  0.8713  1.4312
 6635TIP3    H241321   4.199   6.591  15.422 -1.8018 -0.2282  1.4572
 6636TIP3   OH241322   4.329   6.104   5.056 -0.2285  0.5376  0.2218
 6636TIP3    H141323   4.307   6.137   4.969 -0.4398 -0.9170 -0.3098
 6636TIP3    H241324   4.424   6.091   5.054 -0.0516  1.6332  0.6427
 6637TIP3   OH241325   0.634   4.869  14.331  0.0959  0.1190  0.0947
 6637TIP3    H141326   0.659   4.846  14.242  0.9385  0.2522  0.2941
 6637TIP3    H241327   0.592   4.790  14.365 -0.7756  0.2643 -0.6120
 6638TIP3   OH241328   2.164   3.623   4.593  0.2870  0.0988 -0.0891
 6638TIP3    H141329   2.234   3.562   4.616  2.1121  1.1197 -2.5394
 6638TIP3    H241330   2.196   3.708   4.620  0.6716  0.7641 -2.4843
 6639TIP3   OH241331   5.871   4.115  15.311 -0.2040 -0.7489 -0.4210
 6639TIP3    H141332   5.935   4.171  15.267 -1.5835  0.6070 -0.8266
 6639TIP3    H241333   5.803   4.100  15.245 -1.6390  0.1656  0.7643
 6640TIP3   OH241334   3.230   0.631   2.675 -0.2397 -0.0543  0.0572
 6640TIP3    H141335   3.216   0.647   2.768 -1.6708  4.6544 -0.6969
 6640TIP3    H241336   3.152   0.583   2.646 -1.4168  1.3296  0.8049
 6641TIP3   OH241337   2.747   3.853   2.578 -0.1487  0.0195  0.6745
 6641TIP3    H141338   2.772   3.774   2.627 -1.3818 -0.5903  0.3461
 6641TIP3    H241339   2.803   3.922   2.615 -0.8881 -0.4607  2.8268
 6642TIP3   OH241340   2.053   1.788  14.079  0.0073 -0.5469  0.5814
 6642TIP3    H141341   2.085   1.864  14.126  0.1042 -0.9691  1.2082
 6642TIP3    H241342   2.084   1.713  14.130 -0.5879 -0.9928  0.3066
 6643TIP3   OH241343   6.157   3.709   1.058  0.2732  0.6768  0.1747
 6643TIP3    H141344   6.075   3.666   1.078 -0.0082  1.2417  0.2535
 6643TIP3    H241345   6.132   3.796   1.027  0.8624  1.1366  0.9381
 6644TIP3   OH241346   2.068   0.413   6.014 -0.0864 -0.0187  0.0035
 6644TIP3    H141347   2.039   0.480   6.076 -2.2836 -1.3554  0.5191
 6644TIP3    H241348   2.125   0.356   6.066  2.5268  1.8208 -0.6554
 6645TIP3   OH241349   2.258   1.819   6.284 -1.0961  0.1611 -0.8288
 6645TIP3    H141350   2.182   1.829   6.227 -0.3102  2.0530 -1.6061
 6645TIP3    H241351   2.261   1.901   6.334  0.1690 -0.0758 -0.4890
 6646TIP3   OH241352   1.537   3.950   4.059 -0.6376  0.0438 -0.2325
 6646TIP3    H141353   1.445   3.961   4.033 -0.2480  1.7513 -0.9855
 6646TIP3    H241354   1.583   4.019   4.012  0.7410  0.5570  1.7965
 6647TIP3   OH241355   2.108   5.265   1.215  0.3379  0.0750  0.4692
 6647TIP3    H141356   2.095   5.197   1.149  0.9212  0.0655  0.3555
 6647TIP3    H241357   2.036   5.327   1.202  0.9501  0.5503 -0.7857
 6648TIP3   OH241358   4.231   3.580  13.456 -0.4058 -0.0316 -0.1317
 6648TIP3    H141359   4.307   3.559  13.401 -0.1496 -0.2084  0.2846
 6648TIP3    H241360   4.165   3.516  13.431 -0.0087 -0.6371  0.3411
 6649TIP3   OH241361   3.373   6.444  14.541 -0.0308  0.3535  0.0421
 6649TIP3    H141362   3.408   6.448  14.452 -0.0575  2.5320  0.0739
 6649TIP3    H241363   3.322   6.363  14.543  1.0783 -0.4279 -1.4879
 6650TIP3   OH241364   3.501   2.758  16.313  0.0570 -0.0051  0.0857
 6650TIP3    H141365   3.497   2.664  16.294  1.0267 -0.1631  0.5868
 6650TIP3    H241366   3.462   2.766  16.400 -0.0310  0.0535  0.0413
 6651TIP3   OH241367   2.820   2.138   6.303  0.1656  0.5386  0.1585
 6651TIP3    H141368   2.871   2.100   6.232  0.8987  0.4269  0.7202
 6651TIP3    H241369   2.736   2.093   6.300  0.8025 -0.7250  0.4451
 6652TIP3   OH241370   2.072   6.789  13.641  0.1179  0.7721 -0.0631
 6652TIP3    H141371   2.104   6.758  13.556  0.9782 -0.8373  0.8070
 6652TIP3    H241372   2.085   6.715  13.700  0.6949  2.2597  1.7719
 6653TIP3   OH241373   3.285   0.310   0.012  0.3179 -0.0919  0.8404
 6653TIP3    H141374   3.254   0.387  -0.035 -0.0135 -0.8439 -0.2140
 6653TIP3    H241375   3.205   0.264   0.038  0.5029  0.1591  1.8961
 6654TIP3   OH241376   3.508   2.113  15.802 -0.3770 -0.2714 -0.1738
 6654TIP3    H141377   3.513   2.203  15.770  0.6764  0.4297  1.7902
 6654TIP3    H241378   3.437   2.073  15.751 -1.9916  2.1411 -0.0060
 6655TIP3   OH241379   6.040   2.516  14.682  0.4994  0.9486  0.3545
 6655TIP3    H141380   6.031   2.462  14.761  2.2710 -1.1682 -0.7518
 6655TIP3    H241381   5.961   2.499  14.632  1.5368 -1.8007 -0.5419
 6656TIP3   OH241382   2.518   5.744   0.513  0.0802  0.1210  0.0855
 6656TIP3    H141383   2.559   5.763   0.428 -0.0721  0.0138 -0.0131
 6656TIP3    H241384   2.425   5.729   0.492  0.3629 -1.7855 -0.0002
 6657TIP3   OH241385   1.009   4.824   3.497 -0.2578  0.2376 -0.0190
 6657TIP3    H141386   0.928   4.775   3.486  0.1021 -0.4577  0.3681
 6657TIP3    H241387   0.992   4.909   3.455 -0.2130 -0.9070 -2.5403
 6658TIP3   OH241388   3.372   6.788  16.182 -0.4408  0.1798 -0.4422
 6658TIP3    H141389   3.298   6.801  16.242 -0.5637  2.2648 -0.9689
 6658TIP3    H241390   3.446   6.832  16.225 -0.1115  0.2202 -1.0359
 6659TIP3   OH241391   3.611   1.707  15.463 -0.4058  0.6948 -0.4960
 6659TIP3    H141392   3.635   1.759  15.386 -1.1932 -0.9287 -1.8994
 6659TIP3    H241393   3.694   1.672  15.494 -0.2642 -0.3090 -1.8947
 6660TIP3   OH241394   4.018   0.731   3.707 -0.2416  0.5627  0.5275
 6660TIP3    H141395   4.054   0.818   3.727  1.8263 -0.5275  1.9577
 6660TIP3    H241396   4.091   0.682   3.671 -1.0092 -0.9568  0.9350
 6661TIP3   OH241397   1.728   2.232   3.068 -0.2247 -0.0505  0.1227
 6661TIP3    H141398   1.688   2.146   3.081 -0.3343  0.2245  1.8407
 6661TIP3    H241399   1.665   2.294   3.104  0.1065  0.7077 -0.5694
 6662TIP3   OH241400   1.933   5.011   4.907  0.3475  0.3127 -0.5153
 6662TIP3    H141401   1.909   5.087   4.854 -2.0321  0.3075  0.4155
 6662TIP3    H241402   1.918   4.936   4.850 -0.5880  0.3921 -0.3866
 6663TIP3   OH241403   3.040   6.544  11.544 -0.3523  0.7260  0.0642
 6663TIP3    H141404   3.007   6.619  11.594 -1.2039  0.8161 -0.6177
 6663TIP3    H241405   3.111   6.581  11.491 -1.6555  1.3917 -1.2959
 6664TIP3   OH241406   0.501   5.767   2.141 -0.4429  0.0487 -0.2678
 6664TIP3    H141407   0.548   5.709   2.201 -0.3283 -0.9516 -1.2841
 6664TIP3    H241408   0.566   5.831   2.113 -1.1130  2.1325  2.5746
 6665TIP3   OH241409   1.876   5.756   0.208  0.1379  0.2295  0.0155
 6665TIP3    H141410   1.782   5.755   0.223  0.1675 -0.4719  0.2083
 6665TIP3    H241411   1.908   5.678   0.254  0.6307 -0.3017 -1.1821
 6666TIP3   OH241412   5.282   0.617   4.412  0.2369 -0.4025 -0.3296
 6666TIP3    H141413   5.374   0.615   4.439  0.3991  1.0602 -0.6960
 6666TIP3    H241414   5.279   0.564   4.333  1.2791  1.4439 -1.6826
 6667TIP3   OH241415   4.966   3.735   0.376  0.0787 -0.5214 -0.1643
 6667TIP3    H141416   5.031   3.686   0.325  1.9821  0.0881  1.5485
 6667TIP3    H241417   5.011   3.759   0.457 -1.3934  2.3213 -0.0344
 6668TIP3   OH241418   5.885   0.907  15.497 -0.4932 -0.2604 -0.1370
 6668TIP3    H141419   5.873   1.002  15.502 -2.1702 -0.5008  1.9164
 6668TIP3    H241420   5.820   0.872  15.558  1.3014 -2.6544  0.5092
 6669TIP3   OH241421   1.802   2.908  14.359 -0.5098 -0.6923 -0.1833
 6669TIP3    H141422   1.835   2.954  14.436  0.1178 -0.2181 -0.7285
 6669TIP3    H241423   1.756   2.976  14.309  1.2899 -0.3667 -1.5036
 6670TIP3   OH241424   2.439   1.209  15.119  0.3077  0.2401 -0.6589
 6670TIP3    H141425   2.437   1.134  15.179 -0.3528 -0.4373 -1.5053
 6670TIP3    H241426   2.402   1.281  15.170 -0.2980 -0.3382 -0.2573
 6671TIP3   OH241427   4.728   4.846  12.581  0.0894  0.1270  0.0967
 6671TIP3    H141428   4.633   4.836  12.580  0.0420  0.2318 -2.3079
 6671TIP3    H241429   4.760   4.767  12.624 -1.0645 -0.5926 -0.3179
 6672TIP3   OH241430   4.504   2.372  11.360 -0.8582  0.3089  0.4831
 6672TIP3    H141431   4.588   2.343  11.325 -1.2628  1.3648 -1.4877
 6672TIP3    H241432   4.508   2.350  11.453  1.5040  0.1810  0.4002
 6673TIP3   OH241433   0.186   5.600  15.580 -0.0143 -0.0009  0.5628
 6673TIP3    H141434   0.263   5.643  15.618  1.1970 -0.7234 -0.9696
 6673TIP3    H241435   0.181   5.635  15.491 -0.1373 -1.5508 -0.0709
 6674TIP3   OH241436   2.441   0.065   3.181  0.1654  0.1120 -0.4411
 6674TIP3    H141437   2.368   0.039   3.237  0.1304  2.5643  0.7990
 6674TIP3    H241438   2.400   0.112   3.108  0.3838 -0.4480 -0.9270
 6675TIP3   OH241439   3.809   3.919   5.598 -0.0891 -0.1819  0.0474
 6675TIP3    H141440   3.779   3.991   5.653 -1.7021 -0.7745 -0.0067
 6675TIP3    H241441   3.888   3.953   5.555 -1.0838  1.7396 -0.3686
 6676TIP3   OH241442   0.852   2.004   0.766 -0.1505  0.6244 -0.2910
 6676TIP3    H141443   0.786   2.007   0.835 -0.5148  0.1479 -0.6203
 6676TIP3    H241444   0.820   2.065   0.699 -3.2696 -3.5841 -3.1182
 6677TIP3   OH241445   6.251   6.394   2.785 -0.0326 -0.0252  0.1993
 6677TIP3    H141446   6.317   6.389   2.854 -0.1754  1.5571  0.4959
 6677TIP3    H241447   6.301   6.403   2.704  0.1742 -3.2033 -0.1402
 6678TIP3   OH241448   1.493   0.186  12.001 -0.6641  0.0251 -0.1159
 6678TIP3    H141449   1.490   0.269  12.049 -1.0497  1.2956 -2.1737
 6678TIP3    H241450   1.402   0.158  11.996 -1.0328  1.3881 -2.3937
 6679TIP3   OH241451   4.902   3.064   6.216  0.3787  0.4508 -0.3086
 6679TIP3    H141452   4.962   3.136   6.236  0.4594  0.5798 -1.0106
 6679TIP3    H241453   4.927   2.994   6.277 -0.7531  1.5709  1.5193
 6680TIP3   OH241454   1.694   2.276  15.397 -0.1461 -0.2125  0.1529
 6680TIP3    H141455   1.615   2.248  15.352 -1.9564  0.6411  2.6298
 6680TIP3    H241456   1.710   2.208  15.462  0.7279  0.0389  0.2233
 6681TIP3   OH241457   2.920   2.862   2.933  0.2963 -0.2683  0.5137
 6681TIP3    H141458   2.885   2.775   2.955 -0.0483 -0.0444  0.8765
 6681TIP3    H241459   2.997   2.845   2.879 -1.2861 -0.7735 -1.7274
 6682TIP3   OH241460   3.433   2.626  13.358  0.1077  0.1101 -0.4663
 6682TIP3    H141461   3.389   2.709  13.339  0.3376  0.7879  1.7335
 6682TIP3    H241462   3.364   2.561  13.351 -0.8290  0.9076  0.8940
 6683TIP3   OH241463   2.767   4.079  11.917  0.0829 -0.2513  0.0419
 6683TIP3    H141464   2.851   4.115  11.949 -2.0591  1.3616  4.9350
 6683TIP3    H241465   2.745   4.011  11.981 -2.6349 -0.0932 -0.6196
 6684TIP3   OH241466   2.343   5.766  17.171  0.6223  0.1503 -0.1878
 6684TIP3    H141467   2.401   5.834  17.140  0.4967 -0.0738 -0.9354
 6684TIP3    H241468   2.296   5.736  17.093  1.0105 -1.1116  0.0303
 6685TIP3   OH241469   2.451   0.258   1.931  0.7152 -0.2703 -0.1127
 6685TIP3    H141470   2.416   0.343   1.904 -0.1398 -0.9035 -1.0748
 6685TIP3    H241471   2.495   0.224   1.853  0.8521 -0.8135  0.1933
 6686TIP3   OH241472   2.672   0.727  16.901 -0.9578 -0.0734  0.0708
 6686TIP3    H141473   2.586   0.769  16.902  0.1182  2.3466  1.2886
 6686TIP3    H241474   2.703   0.734  16.992  0.6198 -0.6514 -0.3834
 6687TIP3   OH241475   6.020   4.078  14.516  0.3241  0.4350  0.1002
 6687TIP3    H141476   5.991   4.152  14.569  1.3960  0.7246  0.3172
 6687TIP3    H241477   5.966   4.005  14.545 -0.0430  0.9015  0.6184
 6688TIP3   OH241478   3.216   0.877  13.865 -0.2870  0.5455  0.0098
 6688TIP3    H141479   3.163   0.952  13.840 -0.2028  0.6084  0.0232
 6688TIP3    H241480   3.285   0.872  13.799 -0.2402  0.5336  0.0590
 6689TIP3   OH241481   2.717   6.568  14.739  1.0908 -0.2194  0.1467
 6689TIP3    H141482   2.698   6.659  14.714 -1.5435 -0.9581 -0.8922
 6689TIP3    H241483   2.709   6.519  14.657 -0.9767 -1.8178  1.2248
 6690TIP3   OH241484   5.757   0.654  15.979  0.2281 -0.4171  0.5586
 6690TIP3    H141485   5.832   0.712  15.965  0.1026 -0.1590  0.9336
 6690TIP3    H241486   5.712   0.691  16.055 -2.0570  1.3152 -1.4596
 6691TIP3   OH241487   3.175   6.726  15.030 -0.0290 -0.1967 -0.4375
 6691TIP3    H141488   3.101   6.698  14.976 -1.5915  0.6266  1.1910
 6691TIP3    H241489   3.199   6.648  15.080  1.9412 -1.2033 -2.7038
 6692TIP3   OH241490   4.322   4.645   1.096  0.0535 -0.2984 -1.0116
 6692TIP3    H141491   4.294   4.698   1.022  0.9442  1.9987  0.1990
 6692TIP3    H241492   4.242   4.609   1.132 -0.7537  1.4149 -1.0238
 6693TIP3   OH241493   1.611   2.592  14.467  0.3630  0.4251 -0.0895
 6693TIP3    H141494   1.691   2.608  14.418 -0.2987  0.6102 -1.1567
 6693TIP3    H241495   1.580   2.679  14.493  1.1943  0.2765  1.5047
 6694TIP3   OH241496   4.992   2.647   3.856 -0.4291 -0.3077  0.4206
 6694TIP3    H141497   5.059   2.618   3.794  1.2020 -0.4578  2.1559
 6694TIP3    H241498   5.018   2.736   3.880 -1.4324  0.0117  0.3914
 6695TIP3   OH241499   5.499   4.170   0.097  0.4177  0.1801  0.0485
 6695TIP3    H141500   5.509   4.226   0.020 -1.9962 -1.4382 -1.5878
 6695TIP3    H241501   5.548   4.091   0.076 -0.8314 -0.5609 -0.2117
 6696TIP3   OH241502   3.549   1.068   1.311 -0.5819  0.3754 -0.3708
 6696TIP3    H141503   3.523   1.153   1.275  0.1434  0.7604  0.0076
 6696TIP3    H241504   3.483   1.050   1.378 -1.3948  0.0979 -1.2255
 6697TIP3   OH241505   1.431   3.980   6.088  0.3275 -0.4099 -0.5107
 6697TIP3    H141506   1.403   3.959   6.177  0.2206 -0.1777 -0.4886
 6697TIP3    H241507   1.418   3.899   6.039  1.3338 -0.8479 -0.0908
 6698TIP3   OH241508   6.091   0.852   5.883  0.0618 -0.0603 -0.5678
 6698TIP3    H141509   6.171   0.801   5.872 -0.2681 -0.4582 -1.2486
 6698TIP3    H241510   6.037   0.800   5.943  0.2700  0.1511 -0.2000
 6699TIP3   OH241511   3.380   5.844  12.904  0.4742  0.1576  0.1288
 6699TIP3    H141512   3.285   5.853  12.919  0.5752  1.8195 -0.0009
 6699TIP3    H241513   3.391   5.856  12.810  0.8077 -0.1818  0.1219
 6700TIP3   OH241514   0.556   4.616  12.315 -0.1202  0.0434 -0.2703
 6700TIP3    H141515   0.534   4.570  12.395  0.5268  0.0487 -0.0839
 6700TIP3    H241516   0.474   4.659  12.288 -0.6325 -0.8859 -0.2399
 6701TIP3   OH241517   1.301   1.665  12.333 -0.7062 -0.2675  0.1804
 6701TIP3    H141518   1.391   1.643  12.353  0.3991  2.5312 -1.1338
 6701TIP3    H241519   1.249   1.621  12.400  1.7179 -0.9791  1.6920
 6702TIP3   OH241520   3.524   1.933  16.867 -0.5841  0.0922 -0.0028
 6702TIP3    H141521   3.617   1.943  16.888 -1.0241  0.8030  1.7428
 6702TIP3    H241522   3.523   1.883  16.785  1.2888 -1.8892  1.0860
 6703TIP3   OH241523   3.704   3.576   0.876  0.2519 -0.7852  0.6334
 6703TIP3    H141524   3.650   3.630   0.818 -0.2070 -0.1924  1.5912
 6703TIP3    H241525   3.794   3.593   0.849  0.0171 -0.9809 -0.2903
 6704TIP3   OH241526   1.084   2.755   2.154  0.0067  0.9627 -0.0024
 6704TIP3    H141527   1.073   2.666   2.187 -0.8464  0.8806 -0.4908
 6704TIP3    H241528   1.164   2.787   2.197 -0.3014  0.3644  1.0344
 6705TIP3   OH241529   0.428   3.877   1.591 -0.8328 -0.7174  0.4489
 6705TIP3    H141530   0.417   3.800   1.647 -1.5359 -0.6038  0.4738
 6705TIP3    H241531   0.367   3.941   1.626 -0.5298 -0.2755  0.1883
 6706TIP3   OH241532   4.724   0.084  16.798 -0.0359  0.5000  0.5814
 6706TIP3    H141533   4.759  -0.000  16.771  0.1408  0.7305  0.0760
 6706TIP3    H241534   4.681   0.119  16.719 -2.4685 -0.2890  1.4637
 6707TIP3   OH241535   0.935   0.345   0.909  0.0350  0.5551 -0.4740
 6707TIP3    H141536   1.004   0.347   0.975 -0.1475  0.6211 -0.2835
 6707TIP3    H241537   0.979   0.370   0.827  0.3079  0.2497 -0.4231
 6708TIP3   OH241538   1.859   1.918  16.689 -0.2042 -0.0776 -0.2131
 6708TIP3    H141539   1.938   1.883  16.649  0.1824  0.8365 -0.2721
 6708TIP3    H241540   1.791   1.855  16.666  0.2951 -0.3181 -1.0779
 6709TIP3   OH241541   4.665   4.151  15.290 -0.5826 -0.2747 -0.0510
 6709TIP3    H141542   4.582   4.103  15.286  0.4243 -2.3196  1.3533
 6709TIP3    H241543   4.699   4.149  15.201 -1.5515 -0.3897 -0.4205
 6710TIP3   OH241544   4.733   4.926  16.095  0.0796  0.4260 -0.7745
 6710TIP3    H141545   4.658   4.872  16.121  1.3339 -1.0475 -0.0432
 6710TIP3    H241546   4.696   4.991  16.035 -1.8110 -0.0877 -0.2353
 6711TIP3   OH241547   0.989   3.981   2.081  0.6349 -0.3036  0.9106
 6711TIP3    H141548   1.041   4.010   2.006  0.3871  0.1237  0.9006
 6711TIP3    H241549   0.967   4.061   2.128 -3.2194  0.1038 -1.1232
 6712TIP3   OH241550   0.470   4.921  16.546 -0.1256  0.0402 -0.1566
 6712TIP3    H141551   0.392   4.967  16.515  0.5136  1.6069  0.4668
 6712TIP3    H241552   0.471   4.936  16.640 -0.1791 -1.7555  0.1651
 6713TIP3   OH241553   3.816   0.078  15.867 -0.6113 -0.4885 -0.3848
 6713TIP3    H141554   3.821   0.131  15.947 -0.4560 -0.8586 -0.1492
 6713TIP3    H241555   3.748   0.013  15.886  0.6036 -1.6533  0.0933
 6714TIP3   OH241556   2.962   0.102  14.480 -0.3774 -0.1334  0.0961
 6714TIP3    H141557   2.959   0.181  14.426 -0.7267 -0.2633 -0.0794
 6714TIP3    H241558   2.897   0.044  14.441 -0.6430 -0.2249  0.6589
 6715TIP3   OH241559   2.692   1.600  11.965  0.2806  0.1586 -0.4436
 6715TIP3    H141560   2.773   1.567  11.924  0.5566 -1.2686  1.1136
 6715TIP3    H241561   2.722   1.654  12.037 -0.1380 -0.4621  0.2078
 6716TIP3   OH241562   5.806   2.868   1.855 -0.1396  0.1808 -0.4136
 6716TIP3    H141563   5.716   2.881   1.824  0.1213  0.2123 -1.1803
 6716TIP3    H241564   5.831   2.952   1.891  0.0478  0.5853 -1.4438
 6717TIP3   OH241565   5.295   0.656  14.671  0.3225  0.0447  0.4610
 6717TIP3    H141566   5.354   0.640  14.598 -0.4668 -1.3009  0.0808
 6717TIP3    H241567   5.276   0.750  14.667  0.6931  0.0809 -0.7422
 6718TIP3   OH241568   1.963   3.009  10.790 -0.2228  0.1840 -0.5002
 6718TIP3    H141569   1.876   3.035  10.756  0.4421  3.1036 -0.2421
 6718TIP3    H241570   1.945   2.972  10.876 -1.1534  2.4196  0.3394
 6719TIP3   OH241571   4.260   0.611  12.276 -0.6957  0.2223  0.0033
 6719TIP3    H141572   4.225   0.698  12.297 -0.9393 -0.2787  1.8645
 6719TIP3    H241573   4.239   0.558  12.353  1.3003 -0.9434 -0.1964
 6720TIP3   OH241574   6.715   5.202   3.003 -0.1586 -0.5990 -0.6170
 6720TIP3    H141575   6.778   5.164   3.065 -0.3747 -0.3205 -0.2259
 6720TIP3    H241576   6.755   5.189   2.917 -0.0518 -1.3769 -0.4590
 6721TIP3   OH241577   4.121   1.095  15.015 -0.5475  0.1319  0.0852
 6721TIP3    H141578   4.129   1.188  14.999 -4.3704  0.3457 -1.8162
 6721TIP3    H241579   4.105   1.088  15.109 -1.0669  1.4925  0.1186
 6722TIP3   OH241580   1.700   1.597  15.953  0.0769 -0.2216  0.6121
 6722TIP3    H141581   1.718   1.503  15.949  0.3818 -0.2063  1.4380
 6722TIP3    H241582   1.786   1.639  15.948  0.0256 -0.0302  1.1868
 6723TIP3   OH241583   5.030   2.262  12.225 -0.2489 -0.1848  0.0338
 6723TIP3    H141584   5.099   2.229  12.168 -0.4162  0.7795 -0.7615
 6723TIP3    H241585   5.048   2.224  12.311  1.7686  0.7255  0.0538
 6724TIP3   OH241586   2.521   6.001  11.515  0.2924  0.2573  0.1632
 6724TIP3    H141587   2.596   6.055  11.491  0.2940  0.8903  1.4728
 6724TIP3    H241588   2.456   6.018  11.447 -0.5511  3.7066  1.6483
 6725TIP3   OH241589   1.140   0.281  13.663 -0.0109  0.3371 -0.4741
 6725TIP3    H141590   1.111   0.259  13.751  0.2789  1.1004 -0.1783
 6725TIP3    H241591   1.065   0.325  13.623 -0.4589 -0.8279 -0.9333
 6726TIP3   OH241592   4.528   6.134  11.187  0.3546  0.0154  0.3073
 6726TIP3    H141593   4.605   6.188  11.200  1.2784 -0.6822 -1.9561
 6726TIP3    H241594   4.561   6.051  11.153 -1.3405 -0.4972 -0.2210
 6727TIP3   OH241595   5.703   3.348   4.790 -0.3075 -0.2565  0.2307
 6727TIP3    H141596   5.676   3.439   4.792  0.3086 -0.0795  0.5166
 6727TIP3    H241597   5.627   3.301   4.754 -0.7657  0.3127  0.4508
 6728TIP3   OH241598   2.775   0.879  14.576 -0.0871  0.0280 -0.3418
 6728TIP3    H141599   2.822   0.953  14.615 -1.2425  0.0881  1.0099
 6728TIP3    H241600   2.711   0.919  14.517 -1.3634  0.2053  1.1062
 6729TIP3   OH241601   0.713   4.061   2.490  0.0578 -0.2613  0.3870
 6729TIP3    H141602   0.728   4.022   2.404  0.2390 -0.4654  0.5102
 6729TIP3    H241603   0.795   4.049   2.537  0.8663  2.1118 -0.2709
 6730TIP3   OH241604   1.971   1.087   6.357  0.1332  1.0362  0.1370
 6730TIP3    H141605   1.886   1.101   6.398  0.7380  0.3285  1.7047
 6730TIP3    H241606   1.949   1.053   6.270 -1.1925  0.7297  0.5597
 6731TIP3   OH241607   2.962   1.355  12.176 -0.2289 -0.3521  0.0317
 6731TIP3    H141608   2.868   1.366  12.190 -0.4189 -0.7887 -0.8447
 6731TIP3    H241609   2.976   1.261  12.184 -0.2329 -0.5446 -1.8995
 6732TIP3   OH241610   3.199   4.430   4.911 -0.2909 -0.4044  0.3732
 6732TIP3    H141611   3.230   4.450   4.999  0.8691 -1.4727  0.2344
 6732TIP3    H241612   3.247   4.490   4.854  0.1006 -0.7477  0.3369
 6733TIP3   OH241613   0.171   3.806   5.017  0.4553 -0.3514  0.1586
 6733TIP3    H141614   0.167   3.836   4.926  0.9190  1.4870  0.7114
 6733TIP3    H241615   0.262   3.780   5.030  0.3092 -0.9502  0.0054
 6734TIP3   OH241616   3.676   0.351   3.559  0.2667 -0.0570 -0.4178
 6734TIP3    H141617   3.716   0.278   3.608  1.6024  0.8742 -0.0533
 6734TIP3    H241618   3.626   0.399   3.625  0.2006 -0.0935 -0.4420
 6735TIP3   OH241619   6.495   5.165  14.021  0.4302 -0.1881  0.8908
 6735TIP3    H141620   6.405   5.195  14.006  0.2458 -1.1830 -0.1644
 6735TIP3    H241621   6.515   5.110  13.945  1.4801 -1.0249  1.7355
 6736TIP3   OH241622   1.356   5.348  15.089  0.5186  0.0892 -0.0504
 6736TIP3    H141623   1.374   5.271  15.144 -0.9348  0.6087  1.2328
 6736TIP3    H241624   1.299   5.315  15.020 -1.0425  0.1642  1.1417
 6737TIP3   OH241625   3.914   2.568   4.931 -0.7585  0.0468  0.1351
 6737TIP3    H141626   3.915   2.522   5.014  1.0102  0.6828  0.5078
 6737TIP3    H241627   3.941   2.503   4.866 -1.0975 -0.1671  0.2037
 6738TIP3   OH241628   2.245   0.275   4.023  0.4639 -0.2253 -0.2715
 6738TIP3    H141629   2.278   0.191   3.990 -0.1136 -0.9655  0.9780
 6738TIP3    H241630   2.235   0.262   4.117 -1.8726  0.4880 -0.3671
 6739TIP3   OH241631   1.831   3.303  11.176  0.3516 -0.0728 -0.7798
 6739TIP3    H141632   1.758   3.324  11.235  0.9531  0.9573 -0.3594
 6739TIP3    H241633   1.816   3.358  11.099  1.7869  1.8235  0.2052
 6740TIP3   OH241634   5.141   2.599  11.012  0.3405  0.2283 -0.1991
 6740TIP3    H141635   5.221   2.574  11.058  1.4589 -0.3323 -2.3317
 6740TIP3    H241636   5.157   2.688  10.981 -0.6189  0.8120  0.8997
 6741TIP3   OH241637   2.260   0.342  11.065 -0.0010 -0.3321 -0.2064
 6741TIP3    H141638   2.335   0.327  11.008  0.6222 -0.5437  0.6509
 6741TIP3    H241639   2.296   0.392  11.138 -0.7433 -0.2669  0.1170
 6742TIP3   OH241640   2.034   6.354   0.738 -0.6007 -0.2117 -0.6793
 6742TIP3    H141641   2.024   6.349   0.643 -1.3211  0.5102 -0.6594
 6742TIP3    H241642   2.006   6.268   0.769  0.4070 -0.7301 -1.1633
 6743TIP3   OH241643   3.618   2.976   3.955  0.0106 -0.0560 -0.2709
 6743TIP3    H141644   3.713   2.961   3.953 -0.1697 -1.5261 -2.7363
 6743TIP3    H241645   3.593   2.959   4.045  1.8811 -1.3150  0.0756
 6744TIP3   OH241646   6.378   4.418  13.718  0.7975  0.5373  0.5186
 6744TIP3    H141647   6.288   4.447  13.732  0.3247  1.3999 -3.2650
 6744TIP3    H241648   6.371   4.325  13.700  0.5348  0.7185 -0.3687
 6745TIP3   OH241649   3.430   6.773  14.910 -0.2435  0.1136  0.1056
 6745TIP3    H141650   3.464   6.689  14.879  0.7795 -0.0732  1.6236
 6745TIP3    H241651   3.339   6.755  14.932 -0.4070 -0.2481 -0.8222
 6746TIP3   OH241652   4.036   6.103  11.074 -0.2099  0.1841  0.0231
 6746TIP3    H141653   3.950   6.080  11.039 -0.2105 -1.1254  0.8143
 6746TIP3    H241654   4.029   6.087  11.168  1.2106 -0.9997 -0.0428
 6747TIP3   OH241655   1.344   1.225   5.634 -0.4662 -0.1521  0.1067
 6747TIP3    H141656   1.356   1.227   5.729  0.6245  0.1422 -0.0219
 6747TIP3    H241657   1.324   1.316   5.610 -1.3686 -0.3372  0.1143
 6748TIP3   OH241658   6.472   4.804   1.942 -0.3860  0.6402 -0.0807
 6748TIP3    H141659   6.471   4.708   1.936  1.9593  0.3027  2.6160
 6748TIP3    H241660   6.507   4.833   1.858  1.0216 -1.0603 -0.1313
 6749TIP3   OH241661   3.358   4.727  16.113 -0.1659 -0.0153 -0.2413
 6749TIP3    H141662   3.283   4.672  16.137  0.2631  0.1159  1.5940
 6749TIP3    H241663   3.422   4.665  16.077 -0.3340 -0.4737  0.2225
 6750TIP3   OH241664   6.657   1.171  12.720 -0.0819 -0.7587  0.5565
 6750TIP3    H141665   6.742   1.162  12.762 -0.4680 -0.0198  1.5430
 6750TIP3    H241666   6.597   1.125  12.778 -0.3441 -1.4381 -0.2299
 6751TIP3   OH241667   2.956   3.465   1.399 -0.1062  0.0631 -0.0060
 6751TIP3    H141668   2.946   3.518   1.319  1.1051 -0.1084 -0.2819
 6751TIP3    H241669   3.044   3.429   1.393 -0.2944 -0.5945  1.0353
 6752TIP3   OH241670   1.796   2.957  12.258 -0.5760 -0.1290 -0.3794
 6752TIP3    H141671   1.748   2.936  12.339  0.4572  0.6491  0.4732
 6752TIP3    H241672   1.728   2.980  12.195 -1.3313  1.5077  0.9538
 6753TIP3   OH241673   6.490   3.140  13.593 -0.1413 -0.9021 -0.4962
 6753TIP3    H141674   6.547   3.161  13.519 -2.1542  1.8145 -1.4327
 6753TIP3    H241675   6.549   3.109  13.661  2.5637  2.2229 -1.1866
 6754TIP3   OH241676   2.919   4.818   2.996 -0.9650  0.0360  0.4676
 6754TIP3    H141677   2.915   4.747   2.932 -0.9176 -0.5459  1.1018
 6754TIP3    H241678   2.844   4.874   2.975 -2.1647 -1.2398  1.1492
 6755TIP3   OH241679   2.317   2.382   2.153  0.3409 -0.2611  0.3121
 6755TIP3    H141680   2.233   2.399   2.112 -0.2876  0.6268  1.8625
 6755TIP3    H241681   2.296   2.334   2.233  1.4499 -1.2478  0.0572
 6756TIP3   OH241682   0.864   4.356   0.813  0.2403  0.0726  0.4189
 6756TIP3    H141683   0.822   4.319   0.735  0.9134  2.1758 -1.0284
 6756TIP3    H241684   0.939   4.300   0.829 -0.4890 -0.9952  0.2159
 6757TIP3   OH241685   1.559   1.017  11.492  0.7757 -0.0320 -0.3652
 6757TIP3    H141686   1.557   0.933  11.446  0.1430 -0.4311  0.3630
 6757TIP3    H241687   1.652   1.037  11.502  0.9252 -0.3704 -1.0310
 6758TIP3   OH241688   3.638   3.458  15.864  0.1563 -0.5595  0.0848
 6758TIP3    H141689   3.622   3.483  15.774  2.2176 -1.8181 -0.7075
 6758TIP3    H241690   3.654   3.540  15.911 -1.1278  0.1109 -0.6251
 6759TIP3   OH241691   0.548   1.351  16.006 -0.0951 -0.3004  0.1360
 6759TIP3    H141692   0.639   1.370  16.029 -0.2184  0.1799  0.2426
 6759TIP3    H241693   0.546   1.353  15.910 -0.2311  0.8729  0.1536
 6760TIP3   OH241694   1.306   5.451   3.883 -0.4719 -0.2656  0.6414
 6760TIP3    H141695   1.252   5.510   3.830 -1.5122 -0.9840  0.8707
 6760TIP3    H241696   1.379   5.428   3.826  0.1370  1.4943  0.6651
 6761TIP3   OH241697   4.619   5.248  12.658  0.8064  0.0179 -0.7025
 6761TIP3    H141698   4.676   5.275  12.586  1.6279  0.3481  0.0557
 6761TIP3    H241699   4.532   5.242  12.618  1.3403 -0.4404 -1.8747
 6762TIP3   OH241700   5.505   5.326   0.084  0.0478  0.1322  0.6126
 6762TIP3    H141701   5.488   5.337  -0.010  0.4184  1.1053  0.6537
 6762TIP3    H241702   5.418   5.321   0.124 -0.1274  1.1486  0.3757
 6763TIP3   OH241703   0.233   2.509  11.190 -0.0285  0.3868  0.1243
 6763TIP3    H141704   0.312   2.493  11.242 -0.6568  1.0979  1.3532
 6763TIP3    H241705   0.164   2.522  11.256 -0.7710  1.7528 -0.8690
 6764TIP3   OH241706   1.987   2.646   4.265  0.0146 -0.2489  0.3146
 6764TIP3    H141707   2.077   2.620   4.284 -0.1981 -0.1765  1.5524
 6764TIP3    H241708   1.970   2.613   4.177  1.3522  0.0204 -0.0716
 6765TIP3   OH241709   1.759   2.962  10.602 -0.7474 -0.0879  0.2527
 6765TIP3    H141710   1.684   2.907  10.581 -0.0660 -0.9368 -0.0037
 6765TIP3    H241711   1.787   2.998  10.518 -0.5757 -0.1556  0.2805
 6766TIP3   OH241712   5.580   5.741   5.472  0.1349 -0.3624 -0.2390
 6766TIP3    H141713   5.542   5.692   5.399 -1.7637 -1.0198  1.0890
 6766TIP3    H241714   5.602   5.826   5.435 -1.0345 -0.5799 -1.5293
 6767TIP3   OH241715   5.215   4.220  14.889 -0.2152  0.1781  0.1410
 6767TIP3    H141716   5.300   4.264  14.883 -1.0611  2.2615  1.9874
 6767TIP3    H241717   5.213   4.184  14.977  0.3214 -3.5590 -1.2152
 6768TIP3   OH241718   4.903   3.731  15.822  0.2415 -0.4078  0.2528
 6768TIP3    H141719   4.938   3.799  15.881 -1.4831  0.8203 -0.0586
 6768TIP3    H241720   4.809   3.732  15.838  0.1351 -2.5684  0.0045
 6769TIP3   OH241721   1.818   0.063  10.552 -0.4231 -0.1719 -0.3608
 6769TIP3    H141722   1.890   0.028  10.499  0.9098  0.4187  0.9688
 6769TIP3    H241723   1.848   0.150  10.578 -0.9389 -0.5030  1.4860
 6770TIP3   OH241724   2.109   0.151  10.671 -0.0791 -0.3063 -0.1555
 6770TIP3    H141725   2.179   0.216  10.677 -0.2484 -0.1429  0.1056
 6770TIP3    H241726   2.061   0.161  10.754  0.3975 -1.3520  0.2659
 6771TIP3   OH241727   3.475   4.632  12.829  0.1692 -0.3003  0.0934
 6771TIP3    H141728   3.391   4.596  12.804 -0.8408  0.4920  2.1311
 6771TIP3    H241729   3.472   4.723  12.797  1.0025 -0.7360 -1.3375
 6772TIP3   OH241730   2.602   5.558  14.184  0.2875 -0.1657 -0.2138
 6772TIP3    H141731   2.618   5.646  14.150  0.5339  0.3717  1.2208
 6772TIP3    H241732   2.542   5.572  14.257 -1.1904 -1.4093 -1.1359
 6773TIP3   OH241733   6.492   0.425  13.604 -0.5600  0.4026 -0.3498
 6773TIP3    H141734   6.564   0.375  13.566 -0.9472 -2.1845  2.0306
 6773TIP3    H241735   6.418   0.409  13.545  0.0287  0.5828 -1.1600
 6774TIP3   OH241736   4.454   4.031   1.804 -0.0429 -0.4751 -0.0477
 6774TIP3    H141737   4.427   3.948   1.766 -0.1837  0.0776 -1.1945
 6774TIP3    H241738   4.429   4.025   1.896 -0.8654 -1.3487 -0.3197
 6775TIP3   OH241739   2.550   0.201  16.714  0.1253  0.2432  0.2531
 6775TIP3    H141740   2.612   0.274  16.712 -1.4924  1.6669 -1.7427
 6775TIP3    H241741   2.504   0.211  16.797 -0.8570  2.2663 -0.4724
 6776TIP3   OH241742   2.102   4.082  12.090  0.2077 -0.0236 -0.4744
 6776TIP3    H141743   2.136   4.170  12.080  0.0544  0.0017 -0.7943
 6776TIP3    H241744   2.008   4.090  12.070 -0.0733 -0.0211  0.7248
 6777TIP3   OH241745   3.941   1.740   2.158  0.1096 -0.1978 -0.1592
 6777TIP3    H141746   3.931   1.653   2.119  1.6828 -0.5927  0.2536
 6777TIP3    H241747   4.022   1.774   2.120  1.8274 -0.6759  2.8164
 6778TIP3   OH241748   2.219   5.229  15.639  0.5837  0.1919  0.1820
 6778TIP3    H141749   2.179   5.184  15.565  0.1910  0.3653  0.2805
 6778TIP3    H241750   2.279   5.293  15.600  1.0497 -0.3292  0.0403
 6779TIP3   OH241751   3.787   4.619  11.442  0.2475 -0.0188  0.4022
 6779TIP3    H141752   3.799   4.711  11.420 -0.6414  0.0279  0.0787
 6779TIP3    H241753   3.699   4.598  11.412 -0.6514 -0.2374  2.9149
 6780TIP3   OH241754   4.687   2.283   1.171 -0.1027 -0.1574  0.0019
 6780TIP3    H141755   4.690   2.242   1.085 -0.2266 -1.4864  0.6017
 6780TIP3    H241756   4.601   2.258   1.206  0.8908 -1.7695  1.4695
 6781TIP3   OH241757   5.463   0.865   5.731  0.1582  0.1380  0.7337
 6781TIP3    H141758   5.410   0.850   5.809 -1.5930  0.2176 -0.3813
 6781TIP3    H241759   5.453   0.959   5.713  0.2096  0.0432  0.1887
 6782TIP3   OH241760   5.777   0.179   3.659 -0.0447 -0.0015  1.1586
 6782TIP3    H141761   5.858   0.147   3.699  1.6915  1.0447 -1.2898
 6782TIP3    H241762   5.794   0.271   3.640 -1.4327 -0.0037 -0.3188
 6783TIP3   OH241763   2.571   1.687  13.126  0.0111 -0.0962 -0.6501
 6783TIP3    H141764   2.525   1.771  13.134  1.2134  0.4941  0.4517
 6783TIP3    H241765   2.531   1.631  13.192 -0.4293 -0.2328 -1.0248
 6784TIP3   OH241766   6.332   5.326  11.462 -0.2094 -0.2220  0.1877
 6784TIP3    H141767   6.242   5.358  11.470 -0.0768 -0.1788  1.9275
 6784TIP3    H241768   6.333   5.245  11.513  0.7810 -0.1185  0.3598
 6785TIP3   OH241769   0.769   5.644   5.996  0.0060  0.5290 -0.2135
 6785TIP3    H141770   0.733   5.557   6.011 -0.4932  0.4852 -1.5525
 6785TIP3    H241771   0.770   5.685   6.082  3.1591 -1.8567  1.0958
 6786TIP3   OH241772   2.800   0.908   1.099  0.4961 -0.3622  0.1569
 6786TIP3    H141773   2.861   0.915   1.173  1.8480 -0.7852 -0.8625
 6786TIP3    H241774   2.842   0.845   1.040 -0.0779  0.6258 -1.3847
 6787TIP3   OH241775   2.461   1.279   2.628 -0.2377  0.2723 -0.9498
 6787TIP3    H141776   2.414   1.362   2.625 -0.6683  0.0472 -0.5575
 6787TIP3    H241777   2.422   1.232   2.702 -0.1570 -0.3778 -1.3150
 6788TIP3   OH241778   2.791   1.451  13.262  0.1148 -0.3434  0.1566
 6788TIP3    H141779   2.771   1.364  13.229 -0.2118 -0.3006  0.2386
 6788TIP3    H241780   2.709   1.483  13.299  0.1801  0.0710 -0.0377
 6789TIP3   OH241781   1.737   5.990  14.009  0.2182 -0.9443  0.3458
 6789TIP3    H141782   1.668   5.946  13.959 -0.2464 -0.2641  0.3788
 6789TIP3    H241783   1.782   6.045  13.945  2.1003 -2.9111 -0.1492
 6790TIP3   OH241784   0.214   6.661   4.349  0.7174  0.1182 -0.7561
 6790TIP3    H141785   0.235   6.678   4.441 -0.6967 -0.6154 -0.2710
 6790TIP3    H241786   0.128   6.701   4.336  0.8941  0.1976 -1.7611
 6791TIP3   OH241787   5.236   4.212  10.714 -0.0426  0.2240  0.2140
 6791TIP3    H141788   5.332   4.215  10.712  0.0162 -1.2329  0.0852
 6791TIP3    H241789   5.210   4.202  10.623 -0.3235  0.4114  0.2707
 6792TIP3   OH241790   0.421   2.803   2.124 -0.2193 -0.1380  0.2415
 6792TIP3    H141791   0.375   2.882   2.097 -1.1734 -0.7107  0.1515
 6792TIP3    H241792   0.352   2.744   2.155  0.6218 -0.2989  1.9576
 6793TIP3   OH241793   3.133   3.221   3.548 -0.0992  0.1292 -0.3125
 6793TIP3    H141794   3.107   3.298   3.497 -1.0420  0.2446  0.3134
 6793TIP3    H241795   3.226   3.235   3.566 -0.5548  1.8995  1.0456
 6794TIP3   OH241796   0.796   2.699  12.029 -0.0323  0.1511  0.0980
 6794TIP3    H141797   0.714   2.736  11.998  0.2293 -0.2131 -1.1208
 6794TIP3    H241798   0.844   2.678  11.949  0.7799 -0.6734  0.7715
 6795TIP3   OH241799   4.877   2.927   3.827 -0.4154  0.0527  0.8336
 6795TIP3    H141800   4.836   2.895   3.747 -0.8967  1.2953  0.5695
 6795TIP3    H241801   4.933   2.999   3.799 -0.5374  0.4575  1.6086
 6796TIP3   OH241802   0.439   1.007  14.046  0.0268  0.0588 -0.2401
 6796TIP3    H141803   0.380   1.070  14.087  0.3380  1.8388 -2.2953
 6796TIP3    H241804   0.514   1.000  14.105  0.4442  2.4647 -0.4102
 6797TIP3   OH241805   3.997   1.744  14.788 -0.3245  0.0362  0.2866
 6797TIP3    H141806   3.962   1.715  14.872  1.3180  1.6551  1.6271
 6797TIP3    H241807   3.963   1.833  14.777  2.6096  1.4422  1.3632
 6798TIP3   OH241808   4.381   4.986   1.043 -0.4297 -0.2107  0.2202
 6798TIP3    H141809   4.311   4.987   0.977 -0.7248 -1.0976  0.5011
 6798TIP3    H241810   4.461   5.005   0.993 -0.6240 -1.0470 -0.4418
 6799TIP3   OH241811   3.996   1.392   0.219 -0.7367  0.3748  1.0133
 6799TIP3    H141812   3.910   1.421   0.250 -2.4391  0.2323 -2.9774
 6799TIP3    H241813   4.006   1.304   0.255 -1.8375  0.7234  2.2620
 6800TIP3   OH241814   5.230   6.217   4.668 -0.0262 -0.2168 -0.1550
 6800TIP3    H141815   5.231   6.128   4.633  1.4437 -0.6114  0.8145
 6800TIP3    H241816   5.250   6.207   4.761 -2.3847  0.9424  0.5638
 6801TIP3   OH241817   1.888   2.669  13.453 -1.0191 -0.0673  0.3992
 6801TIP3    H141818   1.870   2.661  13.359 -0.1789  1.5250  0.0794
 6801TIP3    H241819   1.945   2.595  13.473 -0.8989 -0.2020 -0.4227
 6802TIP3   OH241820   1.513   4.728   3.215  0.4047  0.4108  0.6061
 6802TIP3    H141821   1.481   4.639   3.231  0.5892  0.1635 -0.2887
 6802TIP3    H241822   1.586   4.715   3.154  0.9158  1.1223  1.0585
 6803TIP3   OH241823   1.741   1.442  15.637  0.3961 -0.1771  0.1338
 6803TIP3    H141824   1.806   1.403  15.695  0.2730 -0.4947  0.0633
 6803TIP3    H241825   1.780   1.524  15.608  0.5847 -0.1626  0.4274
 6804TIP3   OH241826   0.175   2.813  14.007 -0.3721 -0.4645  0.7389
 6804TIP3    H141827   0.177   2.905  14.032  1.2124 -0.1107 -0.5178
 6804TIP3    H241828   0.192   2.765  14.088  1.2324  0.4818  1.0089
 6805TIP3   OH241829   4.856   5.616   0.795 -0.3472  0.1248  0.0700
 6805TIP3    H141830   4.930   5.574   0.838 -0.4180  1.0532  1.1461
 6805TIP3    H241831   4.895   5.678   0.734 -0.1915  1.2005  1.2159
 6806TIP3   OH241832   6.703   4.340  13.940  0.0049 -0.2652 -0.3676
 6806TIP3    H141833   6.636   4.408  13.946  0.9685  0.6926 -0.1827
 6806TIP3    H241834   6.774   4.380  13.890  0.2491 -1.4297 -0.9768
 6807TIP3   OH241835   3.737   1.432   0.312  0.6957  0.0515  0.1516
 6807TIP3    H141836   3.672   1.501   0.301  1.4528  0.9199  0.9479
 6807TIP3    H241837   3.749   1.425   0.407  1.1162 -0.7102  0.0555
 6808TIP3   OH241838   1.046   4.107   3.825  0.0202 -0.2477  0.0712
 6808TIP3    H141839   0.963   4.099   3.871 -0.1631 -1.3196 -0.4232
 6808TIP3    H241840   1.023   4.138   3.738  0.2481  0.4897  0.2625
 6809TIP3   OH241841   5.089   6.038   2.775  0.8015  0.1224  0.5391
 6809TIP3    H141842   5.075   5.984   2.853  2.8032  0.1448  0.9815
 6809TIP3    H241843   5.173   6.008   2.740  0.5722  1.0120 -0.8691
 6810TIP3   OH241844   3.141   0.297   1.070  0.0850 -0.1922  0.2965
 6810TIP3    H141845   3.111   0.281   1.159  0.5198  2.1578  0.9284
 6810TIP3    H241846   3.067   0.273   1.015 -0.8515  0.0296  1.4290
 6811TIP3   OH241847   5.269   1.564  13.754  0.0189  0.8687 -0.4280
 6811TIP3    H141848   5.292   1.495  13.692 -1.5085 -0.7728  0.6934
 6811TIP3    H241849   5.178   1.585  13.734 -0.5079  0.3016  1.1655
 6812TIP3   OH241850   4.553   0.682   2.369 -0.1512 -0.2965  0.2251
 6812TIP3    H141851   4.635   0.641   2.341  0.9199 -0.1926  2.9198
 6812TIP3    H241852   4.509   0.615   2.422 -0.2644  0.6743  1.4075
 6813TIP3   OH241853   0.607   4.963  11.664 -0.2122  0.2996 -0.4569
 6813TIP3    H141854   0.617   4.982  11.757  0.6740  1.5783 -0.7901
 6813TIP3    H241855   0.660   5.028  11.620  0.6671 -1.2521 -1.8208
 6814TIP3   OH241856   5.614   4.893   3.636 -0.5153  0.5738 -0.3604
 6814TIP3    H141857   5.642   4.956   3.569 -0.6716 -0.1892 -1.1505
 6814TIP3    H241858   5.556   4.833   3.590  0.0129 -0.4385  0.2782
 6815TIP3   OH241859   2.238   5.780  10.659  0.2116  0.0679  0.0689
 6815TIP3    H141860   2.281   5.864  10.676 -0.3813  0.7060 -1.4595
 6815TIP3    H241861   2.289   5.716  10.709  1.0634  1.2403  0.7311
 6816TIP3   OH241862   5.819   2.650  16.008  0.7880  0.6948  0.4215
 6816TIP3    H141863   5.778   2.586  16.066 -1.4179 -0.7126 -2.4648
 6816TIP3    H241864   5.880   2.600  15.955 -0.5328  0.9932 -1.4738
 6817TIP3   OH241865   1.059   1.232   3.253 -0.2398  0.0710  0.1548
 6817TIP3    H141866   1.144   1.249   3.292 -1.7524  3.8943  2.2853
 6817TIP3    H241867   1.061   1.279   3.169  0.9856 -3.3579 -1.9728
 6818TIP3   OH241868   6.471   0.987  13.357 -0.2284  0.0097  0.0424
 6818TIP3    H141869   6.547   0.955  13.406 -1.0107  0.5759  1.7116
 6818TIP3    H241870   6.410   0.914  13.357  0.3519 -0.4952 -1.4273
 6819TIP3   OH241871   5.300   1.126   5.590  0.1609 -0.0069  0.0659
 6819TIP3    H141872   5.343   1.133   5.504  2.1832 -0.5365  0.9743
 6819TIP3    H241873   5.227   1.067   5.575  0.0501  0.4529 -1.4397
 6820TIP3   OH241874   0.538   4.787  14.935 -0.2290 -0.6905  0.3800
 6820TIP3    H141875   0.446   4.798  14.912 -0.0983  1.5956  0.7174
 6820TIP3    H241876   0.541   4.705  14.984 -2.2103 -0.4495  0.9926
 6821TIP3   OH241877   2.515   6.053   2.404 -0.2197 -0.4242 -0.3205
 6821TIP3    H141878   2.430   6.024   2.369 -0.0777 -1.0441 -0.1711
 6821TIP3    H241879   2.507   6.148   2.410 -0.9082 -0.4734 -0.3117
 6822TIP3   OH241880   5.217   0.882  17.021  0.3319  0.1081  0.4647
 6822TIP3    H141881   5.260   0.906  17.103  0.4527  0.1081  0.4012
 6822TIP3    H241882   5.203   0.965  16.976  1.2393  0.0231  0.0041
 6823TIP3   OH241883   3.933   0.452  13.060  0.1456  0.0875 -0.8072
 6823TIP3    H141884   3.881   0.491  13.131  0.1633 -0.3508 -0.5467
 6823TIP3    H241885   3.870   0.437  12.989 -0.3045 -1.2621 -0.1768
 6824TIP3   OH241886   5.524   2.448  11.827  0.0844 -0.0110  0.7360
 6824TIP3    H141887   5.618   2.438  11.812  0.4038  1.5038  1.5259
 6824TIP3    H241888   5.490   2.481  11.743  0.1047 -1.3072  0.2019
 6825TIP3   OH241889   4.797   3.059   1.231 -0.1529  0.0326 -0.2640
 6825TIP3    H141890   4.860   3.104   1.175 -1.1471  2.6892  0.5937
 6825TIP3    H241891   4.714   3.104   1.214 -0.9022 -0.4834  1.7883
 6826TIP3   OH241892   6.627   6.181  16.367  0.0425  0.2448  0.1770
 6826TIP3    H141893   6.596   6.092  16.351  1.6236  0.0214 -2.2803
 6826TIP3    H241894   6.687   6.173  16.442 -1.9737 -0.1674  1.8191
 6827TIP3   OH241895   4.876   2.833   5.058 -0.5375 -0.0288 -0.1468
 6827TIP3    H141896   4.929   2.813   4.981  0.1396  0.9164  0.0526
 6827TIP3    H241897   4.896   2.762   5.119 -0.3517 -0.2769 -0.4910
 6828TIP3   OH241898   1.985   1.530   1.857 -0.4583 -0.5068 -0.6876
 6828TIP3    H141899   1.932   1.608   1.842  1.8769  1.2443 -0.2604
 6828TIP3    H241900   2.059   1.538   1.798 -0.9705 -3.3521 -1.9225
 6829TIP3   OH241901   0.627   6.783  12.625 -0.3876 -0.1036 -0.1162
 6829TIP3    H141902   0.658   6.718  12.563  0.4200  0.3788 -0.2303
 6829TIP3    H241903   0.673   6.763  12.707  0.1544  0.5371 -0.2530
 6830TIP3   OH241904   0.622   6.596  11.680 -0.0751 -0.0479  0.4032
 6830TIP3    H141905   0.674   6.549  11.745 -1.1076 -2.0520 -0.1362
 6830TIP3    H241906   0.675   6.593  11.600  0.4331  0.8876  0.6968
 6831TIP3   OH241907   4.848   1.146  10.964 -0.6030 -0.3765 -0.0455
 6831TIP3    H141908   4.875   1.237  10.970  1.0243 -0.9262  2.9751
 6831TIP3    H241909   4.757   1.150  10.934 -1.3352  2.4300  2.0809
 6832TIP3   OH241910   3.630   2.678  11.898 -0.2566  0.2401 -0.8445
 6832TIP3    H141911   3.570   2.623  11.848  0.0211  2.4375 -3.9582
 6832TIP3    H241912   3.684   2.721  11.831  1.5451  1.9772  1.5265
 6833TIP3   OH241913   2.509   6.367   6.149  0.4296 -0.3430 -0.0365
 6833TIP3    H141914   2.475   6.398   6.065  0.0714  0.7851  0.5048
 6833TIP3    H241915   2.600   6.343   6.131  0.2324 -0.5186 -0.8339
 6834TIP3   OH241916   5.964   1.876  14.763  0.0980 -0.2843  0.6365
 6834TIP3    H141917   6.044   1.842  14.804  1.0228 -0.8140 -1.4682
 6834TIP3    H241918   5.908   1.799  14.752  0.2904 -0.3404  0.0007
 6835TIP3   OH241919   6.232   0.201   0.251 -0.5984 -0.1812 -0.4447
 6835TIP3    H141920   6.230   0.280   0.196 -2.0781  0.2912  0.2102
 6835TIP3    H241921   6.281   0.227   0.329 -3.7344  1.2591  1.2626
 6836TIP3   OH241922   1.803   6.501  13.073 -0.3287  0.1445  0.2296
 6836TIP3    H141923   1.760   6.416  13.067  0.3533 -0.1230 -1.5805
 6836TIP3    H241924   1.794   6.539  12.986 -1.1284  2.2101  1.1604
 6837TIP3   OH241925   2.829   5.067   5.600  0.6389 -0.0684 -0.3189
 6837TIP3    H141926   2.737   5.063   5.577  0.7275  2.4652 -1.3488
 6837TIP3    H241927   2.875   5.048   5.518  0.9883  1.6373 -0.5434
 6838TIP3   OH241928   2.672   2.551   4.757  0.5301 -0.1983  0.4404
 6838TIP3    H141929   2.749   2.494   4.764  0.5541 -0.5898 -2.2003
 6838TIP3    H241930   2.628   2.523   4.677 -0.4887  2.2634  0.0530
 6839TIP3   OH241931   3.753   3.930  14.408 -0.3349  0.2687  0.1940
 6839TIP3    H141932   3.841   3.899  14.426 -0.2591  0.2711 -0.1571
 6839TIP3    H241933   3.703   3.851  14.390 -0.3847  0.2734  0.3129
 6840TIP3   OH241934   3.189   2.976  15.606  0.4758  0.1886 -0.4307
 6840TIP3    H141935   3.262   2.957  15.665  1.5257  1.8749 -1.1070
 6840TIP3    H241936   3.112   2.976  15.663  0.7559 -2.8528  0.0968
 6841TIP3   OH241937   5.976   6.622   4.174  0.0335  0.5227 -0.3790
 6841TIP3    H141938   5.906   6.569   4.212 -0.1711 -0.6727 -2.2755
 6841TIP3    H241939   5.935   6.706   4.153 -0.4899  0.2823 -0.3189
 6842TIP3   OH241940   1.827   4.429  13.133 -0.0590 -0.5790 -0.1649
 6842TIP3    H141941   1.830   4.514  13.088  1.9754 -0.1689  0.6705
 6842TIP3    H241942   1.915   4.393  13.123 -1.5966 -4.1885 -3.3135
 6843TIP3   OH241943   5.440   6.401  16.852 -0.0812 -0.5476 -0.0546
 6843TIP3    H141944   5.511   6.422  16.792 -0.1038 -0.9213 -0.2151
 6843TIP3    H241945   5.479   6.337  16.913 -0.2508 -0.6805 -0.0846
 6844TIP3   OH241946   6.656   6.544   3.870 -0.3276 -0.3225  0.1459
 6844TIP3    H141947   6.714   6.472   3.894  0.6350  1.0447  2.1905
 6844TIP3    H241948   6.707   6.623   3.889 -1.6944  0.9363 -1.1207
 6845TIP3   OH241949   6.662   4.752  16.878 -0.0089 -0.1714  0.1942
 6845TIP3    H141950   6.737   4.772  16.822  0.8057 -0.8219  1.0151
 6845TIP3    H241951   6.598   4.713  16.819 -0.5874  2.3366 -0.9258
 6846TIP3   OH241952   2.570   1.236  16.170 -0.3187  0.4704  0.6630
 6846TIP3    H141953   2.653   1.210  16.131  1.0692  2.7417  1.8293
 6846TIP3    H241954   2.586   1.233  16.265 -2.3455 -1.2305  1.0222
 6847TIP3   OH241955   1.465   5.015   1.605 -0.4541 -0.3566 -0.0249
 6847TIP3    H141956   1.516   4.943   1.568 -1.9330 -2.5961  1.9195
 6847TIP3    H241957   1.379   5.006   1.565 -0.5150  0.7179 -0.1673
 6848TIP3   OH241958   4.564   3.553  16.518 -0.4377  0.0349  0.3455
 6848TIP3    H141959   4.506   3.478  16.531 -1.4499  0.4363 -1.5074
 6848TIP3    H241960   4.508   3.620  16.477  1.6306 -0.1938 -3.2962
 6849TIP3   OH241961   3.990   5.593  12.418 -0.2935  0.0599 -0.1412
 6849TIP3    H141962   3.967   5.679  12.453  0.0306 -0.4467  1.3900
 6849TIP3    H241963   3.946   5.531  12.476 -1.3041 -0.8191 -1.7796
 6850TIP3   OH241964   0.959   3.603  12.531 -0.4621 -0.0618 -0.2779
 6850TIP3    H141965   0.959   3.699  12.532 -0.6293 -0.0530 -0.8555
 6850TIP3    H241966   0.876   3.579  12.570 -1.0158  0.0549 -1.3447
 6851TIP3   OH241967   2.074   4.618   4.512  0.5314  0.2384 -0.4984
 6851TIP3    H141968   2.112   4.638   4.426  0.4196 -1.5474 -1.0042
 6851TIP3    H241969   1.982   4.598   4.493  0.6312 -0.6872 -0.0605
 6852TIP3   OH241970   4.598   4.468  15.250  0.3055  0.2001 -0.2871
 6852TIP3    H141971   4.677   4.441  15.298  0.2825  1.3121  0.4188
 6852TIP3    H241972   4.629   4.536  15.189  0.1228 -0.3498 -1.0105
 6853TIP3   OH241973   0.118   4.637  15.094 -0.1682  0.4495 -0.7473
 6853TIP3    H141974   0.109   4.575  15.022  2.4373  0.4314 -1.1434
 6853TIP3    H241975   0.187   4.697  15.066 -0.6075  1.7758  0.8442
 6854TIP3   OH241976   6.299   6.100  12.388  0.3171  0.4959  0.2402
 6854TIP3    H141977   6.285   6.185  12.346  2.8257  0.0783 -1.7002
 6854TIP3    H241978   6.227   6.045  12.357 -0.1096  1.3228 -0.2662
 6855TIP3   OH241979   1.725   5.879   5.178 -0.5652 -0.2053  0.1322
 6855TIP3    H141980   1.804   5.880   5.124  0.4030 -0.9327  1.4766
 6855TIP3    H241981   1.724   5.964   5.221  0.0994 -0.5951  0.9404
 6856TIP3   OH241982   0.162   5.609  16.422 -0.5315  0.1251  0.2428
 6856TIP3    H141983   0.204   5.525  16.406  4.4790  2.5292 -1.0549
 6856TIP3    H241984   0.161   5.618  16.517 -0.4383 -1.0497  0.3633
 6857TIP3   OH241985   4.170   5.565   4.987  0.2645 -0.1635  0.4408
 6857TIP3    H141986   4.147   5.587   4.897 -0.1363 -0.1680  0.5387
 6857TIP3    H241987   4.265   5.566   4.988  0.2694  0.2160  0.1103
 6858TIP3   OH241988   0.026   4.140   4.331 -0.3667 -0.2003  0.1584
 6858TIP3    H141989   0.001   4.062   4.380 -2.1601 -2.1182 -3.3977
 6858TIP3    H241990   0.107   4.115   4.287 -0.3557  0.3389 -0.1304
 6859TIP3   OH241991   1.970   1.405   0.324  0.0960 -0.1002 -0.0259
 6859TIP3    H141992   1.931   1.408   0.237 -1.2732 -2.0402  0.4438
 6859TIP3    H241993   1.922   1.472   0.374 -2.4962 -2.0809  0.3968
 6860TIP3   OH241994   3.573   6.747   1.875  0.6056 -0.2907 -0.1625
 6860TIP3    H141995   3.494   6.707   1.911  0.5544  0.1928  0.2808
 6860TIP3    H241996   3.645   6.696   1.912  0.4835 -1.1543 -1.1004
 6861TIP3   OH241997   4.822   4.508  16.223  0.1034  0.4677  1.0100
 6861TIP3    H141998   4.771   4.428  16.213  1.0046 -0.1224  1.0609
 6861TIP3    H241999   4.759   4.579  16.207 -0.6237 -0.2518  0.6472
 6862TIP3   OH242000   6.103   1.392  15.041  0.0655 -0.2563  0.2022
 6862TIP3    H142001   6.099   1.307  14.996 -0.7333 -0.2054  0.1520
 6862TIP3    H242002   6.191   1.425  15.023 -0.0392 -0.5085 -0.8285
 6863TIP3   OH242003   4.033   4.239  14.579 -0.2955  0.0279  0.1149
 6863TIP3    H142004   3.938   4.225  14.585 -0.0757 -1.4422  0.3638
 6863TIP3    H242005   4.071   4.181  14.645  0.8731 -0.5000 -0.9849
 6864TIP3   OH242006   5.101   0.480   4.571 -0.1441 -0.3451 -0.1513
 6864TIP3    H142007   5.178   0.531   4.545 -0.8334 -0.2648 -2.1493
 6864TIP3    H242008   5.057   0.459   4.489 -2.0725 -0.7028  0.9222
 6865TIP3   OH242009   0.884   5.446   4.435  0.5736 -0.3603  0.4704
 6865TIP3    H142010   0.857   5.471   4.347  0.2414  0.9371  0.9258
 6865TIP3    H242011   0.817   5.385   4.465  0.7297 -0.8683 -0.1901
 6866TIP3   OH242012   2.659   3.532   5.448  0.1381 -0.3127 -0.2220
 6866TIP3    H142013   2.704   3.469   5.392 -0.8923  0.0232 -1.4659
 6866TIP3    H242014   2.707   3.614   5.435  0.0614 -0.2953 -0.3859
 6867TIP3   OH242015   2.271   5.824  11.314  0.1553 -1.2791 -0.3265
 6867TIP3    H142016   2.347   5.882  11.305  0.2882 -1.7098 -3.1153
 6867TIP3    H242017   2.287   5.754  11.250 -2.0189 -2.0535 -0.1134
 6868TIP3   OH242018   3.212   5.216   0.298 -0.2457 -0.7477  0.3180
 6868TIP3    H142019   3.216   5.300   0.343  1.1355 -0.8676  0.4433
 6868TIP3    H242020   3.140   5.226   0.235  0.0602  0.6188  0.1575
 6869TIP3   OH242021   5.854   6.503   1.400  0.6324  0.2519 -0.5384
 6869TIP3    H142022   5.926   6.524   1.459 -1.2029  2.3818  1.1412
 6869TIP3    H242023   5.858   6.569   1.331  1.1590 -0.5881 -1.3463
 6870TIP3   OH242024   3.805   2.398   3.602 -0.2153 -0.3464  0.4103
 6870TIP3    H142025   3.840   2.338   3.668 -0.4131 -0.2151  0.6382
 6870TIP3    H242026   3.810   2.349   3.520 -0.3255 -0.6567  0.5853
 6871TIP3   OH242027   0.807   3.538  10.698 -0.3309  0.3834 -0.3404
 6871TIP3    H142028   0.734   3.570  10.752 -0.5392  1.8181 -1.4047
 6871TIP3    H242029   0.872   3.608  10.703  1.2802 -1.1413  1.0747
 6872TIP3   OH242030   4.864   4.324   0.912  0.4319  0.5819  0.0688
 6872TIP3    H142031   4.881   4.268   0.836  0.7840 -1.3748  1.5191
 6872TIP3    H242032   4.943   4.317   0.965 -1.4033 -1.8659  2.8216
 6873TIP3   OH242033   1.463   3.112  12.445  0.0867 -0.2876  0.1056
 6873TIP3    H142034   1.400   3.170  12.486 -3.0755 -0.8242 -3.4660
 6873TIP3    H242035   1.530   3.171  12.409 -1.5794  0.9588 -1.0818
 6874TIP3   OH242036   4.194   0.713   2.569  0.8751  0.2931  0.0919
 6874TIP3    H142037   4.227   0.671   2.490  2.3129  1.5774 -0.0344
 6874TIP3    H242038   4.179   0.804   2.542 -1.7345  0.0640  0.4572
 6875TIP3   OH242039   5.451   1.572  16.317 -0.2999 -0.1008  0.0368
 6875TIP3    H142040   5.423   1.506  16.380  0.5959  0.5631  1.1710
 6875TIP3    H242041   5.522   1.530  16.268 -0.3740 -0.3066  0.1069
 6876TIP3   OH242042   4.183   2.705  11.975 -0.0605  0.2703  0.7818
 6876TIP3    H142043   4.194   2.762  11.899 -1.7148 -0.4798 -0.0658
 6876TIP3    H242044   4.250   2.638  11.965  0.0290  0.4375  0.2256
 6877TIP3   OH242045   5.386   0.307  14.466 -0.5254  0.2833  0.1386
 6877TIP3    H142046   5.415   0.382  14.414 -1.7347  0.2773 -0.5777
 6877TIP3    H242047   5.463   0.283  14.518  0.5653  0.6164 -1.2555
 6878TIP3   OH242048   0.165   4.722  14.477  0.0901 -0.0968 -0.0449
 6878TIP3    H142049   0.242   4.723  14.533  0.7124 -0.0876 -0.8860
 6878TIP3    H242050   0.194   4.763  14.395 -1.2219  1.3613  0.1571
 6879TIP3   OH242051   1.205   3.789   4.836 -0.1474 -0.1789  0.2469
 6879TIP3    H142052   1.141   3.798   4.765  1.0501  1.7105 -0.6751
 6879TIP3    H242053   1.174   3.849   4.903 -0.0935 -0.3309  0.4082
 6880TIP3   OH242054   1.419   3.177   2.971 -0.1047  0.0082 -0.7385
 6880TIP3    H142055   1.328   3.148   2.968 -0.0494 -0.7310  1.9215
 6880TIP3    H242056   1.471   3.100   2.947 -0.1279  0.2398 -1.5774
 6881TIP3   OH242057   5.481   5.823  14.730 -0.0987  0.1252  0.1753
 6881TIP3    H142058   5.477   5.742  14.679  0.5365 -0.8374  1.6012
 6881TIP3    H242059   5.440   5.889  14.673  1.0717 -0.7503 -1.8095
 6882TIP3   OH242060   2.649   5.234  15.980  0.2460  0.5455  0.6668
 6882TIP3    H142061   2.717   5.299  15.995  0.6558  0.2448  0.1680
 6882TIP3    H242062   2.572   5.267  16.027  0.3991  1.4703  0.2801
 6883TIP3   OH242063   4.758   4.032   4.317 -0.1938  0.0776  0.1916
 6883TIP3    H142064   4.827   3.991   4.264  0.4339 -2.0784  2.4541
 6883TIP3    H242065   4.775   4.126   4.311  2.0530 -0.3133 -0.4965
 6884TIP3   OH242066   0.108   3.542   4.820  0.0150 -0.0481  0.1048
 6884TIP3    H142067   0.176   3.557   4.755 -0.7847  2.1275 -0.3299
 6884TIP3    H242068   0.155   3.536   4.903  0.8354  0.0901 -0.3371
 6885TIP3   OH242069   4.766   1.905   2.327  0.2983 -0.4711  0.6145
 6885TIP3    H142070   4.789   1.992   2.360 -0.2791 -0.1130  0.0941
 6885TIP3    H242071   4.778   1.847   2.402 -0.2399  0.2044  1.2373
 6886TIP3   OH242072   3.123   5.089  15.726  0.7035  0.0318  0.0297
 6886TIP3    H142073   3.169   5.170  15.705  1.3401 -0.4609 -0.4955
 6886TIP3    H242074   3.035   5.102  15.690  1.6930 -0.7156 -2.9602
 6887TIP3   OH242075   6.208   5.536  11.611  0.0348 -0.0003  0.1807
 6887TIP3    H142076   6.255   5.570  11.535 -0.3589 -1.5567 -0.8141
 6887TIP3    H242077   6.116   5.555  11.594 -0.1186 -0.9016 -0.0501
 6888TIP3   OH242078   0.575   0.337  13.400  1.1793  0.3723  0.5533
 6888TIP3    H142079   0.660   0.322  13.359  0.2046 -3.5842 -0.4146
 6888TIP3    H242080   0.513   0.336  13.326 -0.2438 -3.2778  1.5936
 6889TIP3   OH242081   5.270   3.397  14.875  0.6569 -0.9593 -0.1137
 6889TIP3    H142082   5.192   3.383  14.930  0.3684 -0.8391 -0.4908
 6889TIP3    H242083   5.280   3.316  14.826  0.8430 -1.0192  0.0211
 6890TIP3   OH242084   0.686   1.154  13.905 -0.0876  0.3826  0.2516
 6890TIP3    H142085   0.605   1.128  13.950  0.1487 -1.2550 -0.1894
 6890TIP3    H242086   0.736   1.073  13.898  1.2049  1.1942 -0.3036
 6891TIP3   OH242087   3.906   6.269  16.003 -0.1636  0.0646  0.8720
 6891TIP3    H142088   3.958   6.349  16.011 -1.8198  1.0286  2.9763
 6891TIP3    H242089   3.874   6.252  16.091 -2.6029 -1.0099 -0.1242
 6892TIP3   OH242090   5.889   6.703  15.529  0.2537 -0.0335  0.2798
 6892TIP3    H142091   5.913   6.691  15.621 -1.0540 -0.6065  0.5733
 6892TIP3    H242092   5.953   6.650  15.481  0.7172 -0.0295  0.8763
 6893TIP3   OH242093   1.069   5.032  11.893 -0.3935  0.1420 -0.0744
 6893TIP3    H142094   1.121   4.954  11.916  0.1222  1.4477  4.0973
 6893TIP3    H242095   0.979   5.001  11.890 -0.2156 -0.6637  1.7052
 6894TIP3   OH242096   6.139   0.485  15.734 -0.4549  0.3265 -0.2498
 6894TIP3    H142097   6.093   0.532  15.664  0.2575  1.0554 -0.2425
 6894TIP3    H242098   6.232   0.505  15.720 -0.1674 -0.7544  0.0030
 6895TIP3   OH242099   0.661   2.906   5.332 -0.2533 -0.4677  0.2386
 6895TIP3    H142100   0.676   2.996   5.305 -0.7239 -0.0758  1.2433
 6895TIP3    H242101   0.662   2.909   5.428  0.4761 -1.6601  0.2952
 6896TIP3   OH242102   2.751   3.720   2.172  0.4500 -0.0795  0.0994
 6896TIP3    H142103   2.836   3.758   2.192  0.0145  1.4569 -0.8104
 6896TIP3    H242104   2.769   3.659   2.100  0.8170  0.0496  0.0786
 6897TIP3   OH242105   5.680   3.095  15.911  0.3278 -0.1470  0.0615
 6897TIP3    H142106   5.597   3.143  15.912 -0.4410 -1.3827  2.1575
 6897TIP3    H242107   5.747   3.164  15.905 -0.7555  0.8037 -3.5481
 6898TIP3   OH242108   1.503   2.931   0.785 -0.0895 -0.5805 -0.5756
 6898TIP3    H142109   1.481   2.969   0.870  2.4566  2.0733 -0.9201
 6898TIP3    H242110   1.509   2.837   0.801 -0.1075 -0.1914  2.0955
 6899TIP3   OH242111   4.211   4.913   3.289 -0.1397 -0.4275  0.0921
 6899TIP3    H142112   4.212   4.951   3.201  0.8995  1.4100  0.8357
 6899TIP3    H242113   4.173   4.982   3.344  0.3380 -1.0755  1.2644
 6900TIP3   OH242114   2.445   2.099   0.635  0.0354  0.1044  0.0029
 6900TIP3    H142115   2.534   2.077   0.665  0.0513 -1.9614 -1.3893
 6900TIP3    H242116   2.459   2.155   0.558  0.2687 -1.9487 -1.5331
 6901TIP3   OH242117   4.071   3.217   4.488 -0.1090 -0.0326  0.0061
 6901TIP3    H142118   4.068   3.311   4.506 -0.7236 -0.0597  0.0756
 6901TIP3    H242119   4.159   3.202   4.454  0.5221  0.2999  1.4293
 6902TIP3   OH242120   3.535   3.196  13.196 -0.5835 -0.0166 -0.2303
 6902TIP3    H142121   3.630   3.189  13.196 -0.6287 -1.7782  2.2601
 6902TIP3    H242122   3.518   3.282  13.235 -0.0046 -0.0855  0.1902
 6903TIP3   OH242123   3.946   3.744   0.040  0.1193  0.1873  0.7789
 6903TIP3    H142124   4.001   3.666   0.039 -0.4571 -0.2232  1.0895
 6903TIP3    H242125   3.858   3.713   0.018  0.5371  1.2836 -3.3499
 6904TIP3   OH242126   0.634   3.399  11.243  0.2471  0.1768 -0.1991
 6904TIP3    H142127   0.542   3.424  11.242 -0.5664 -2.5740 -0.6614
 6904TIP3    H242128   0.665   3.417  11.154  0.3639  1.6192  0.1022
 6905TIP3   OH242129   0.395   2.089   0.869  0.0600 -0.5559  0.4471
 6905TIP3    H142130   0.411   2.119   0.959  0.1704 -1.4413  0.7291
 6905TIP3    H242131   0.321   2.029   0.876  0.9776 -1.7441  0.1704
 6906TIP3   OH242132   6.757   6.407  11.335 -0.1642 -0.1362  0.9069
 6906TIP3    H142133   6.845   6.420  11.369 -0.1246  0.9921  0.4158
 6906TIP3    H242134   6.728   6.495  11.310 -1.7967 -0.3375  1.9476
 6907TIP3   OH242135   1.019   0.815  11.490 -0.0957 -0.4945 -0.6634
 6907TIP3    H142136   1.016   0.794  11.583  1.5592 -3.5730 -1.1912
 6907TIP3    H242137   1.057   0.903  11.487 -1.7099  0.3944  1.5378
 6908TIP3   OH242138   2.330   6.468   4.719  0.3020  0.0297 -0.4079
 6908TIP3    H142139   2.341   6.379   4.752 -3.5715  0.4051  2.7445
 6908TIP3    H242140   2.288   6.456   4.634 -0.0445 -1.1863 -0.0922
 6909TIP3   OH242141   3.411   1.046  15.641 -0.4567  0.0836  0.2651
 6909TIP3    H142142   3.318   1.025  15.651 -0.4467 -0.1299 -0.0608
 6909TIP3    H242143   3.453   0.997  15.711 -0.6755  0.8789  0.9673
 6910TIP3   OH242144   0.573   1.979   4.914  0.2946  0.6783 -0.5814
 6910TIP3    H142145   0.479   1.975   4.933  0.5001  2.7075  1.2722
 6910TIP3    H242146   0.594   2.072   4.919  2.0451  0.4950 -3.0764
 6911TIP3   OH242147   3.343   0.023  15.413 -0.6711 -0.7717  0.0327
 6911TIP3    H142148   3.426   0.068  15.395 -0.6927  0.6187  2.8149
 6911TIP3    H242149   3.276   0.078  15.372 -0.6891  1.9741  3.3262
 6912TIP3   OH242150   2.424   4.624   6.228 -0.3536 -0.6835 -0.4182
 6912TIP3    H142151   2.406   4.689   6.296  1.7794 -0.2789 -0.1541
 6912TIP3    H242152   2.338   4.591   6.202 -1.3237  0.4169  1.2315
 6913TIP3   OH242153   0.128   0.531   2.343 -0.6280  0.8346  0.3242
 6913TIP3    H142154   0.110   0.591   2.271 -0.3582  0.9455  0.3477
 6913TIP3    H242155   0.224   0.529   2.349 -0.6073 -0.2372 -0.2126
 6914TIP3   OH242156   4.037   0.515   0.068 -0.3435  0.2860 -0.1708
 6914TIP3    H142157   3.947   0.507   0.098  0.3875 -0.9742  1.9818
 6914TIP3    H242158   4.052   0.609   0.057 -1.3900  0.6477  1.2923
 6915TIP3   OH242159   3.911   4.105  11.880 -0.1194  0.0508 -0.2260
 6915TIP3    H142160   3.988   4.148  11.916 -0.1191  1.4962 -1.8100
 6915TIP3    H242161   3.920   4.116  11.785 -1.4845 -1.1484 -0.5264
 6916TIP3   OH242162   4.527   6.364   4.199 -0.4648 -0.3777  0.1214
 6916TIP3    H142163   4.488   6.444   4.233  0.7383  0.9366 -1.4114
 6916TIP3    H242164   4.459   6.326   4.143 -0.7167  0.0640  0.1282
 6917TIP3   OH242165   0.594   6.376  14.821 -0.1022 -0.8370 -0.2667
 6917TIP3    H142166   0.501   6.390  14.806 -0.3411 -1.2434  0.7650
 6917TIP3    H242167   0.598   6.324  14.901  1.0900  1.7509  1.5211
 6918TIP3   OH242168   6.186   6.393   3.851 -0.0563  0.1039 -0.0092
 6918TIP3    H142169   6.145   6.470   3.812  3.0852  3.3533  2.4103
 6918TIP3    H242170   6.277   6.395   3.819  0.5429 -1.7080  1.3558
 6919TIP3   OH242171   2.561   0.247  10.875  0.3386  0.2604  0.2729
 6919TIP3    H142172   2.526   0.266  10.788  0.1311  0.7851  0.4631
 6919TIP3    H242173   2.646   0.292  10.876  0.2652  0.3991  0.3963
 6920TIP3   OH242174   4.100   5.402  16.492 -0.0279 -0.3901 -0.4336
 6920TIP3    H142175   4.160   5.470  16.460 -1.6142  1.0768 -0.4498
 6920TIP3    H242176   4.156   5.342  16.540  1.5299  0.6263 -0.8833
 6921TIP3   OH242177   0.779   3.050   4.714 -0.6217  0.3406 -0.1443
 6921TIP3    H142178   0.759   3.143   4.704 -1.2372  0.1852 -0.3809
 6921TIP3    H242179   0.742   3.027   4.799 -0.8426  0.2110 -0.2761
 6922TIP3   OH242180   1.789   4.896  15.336 -0.9101  0.0255 -0.5714
 6922TIP3    H142181   1.831   4.879  15.420 -0.8102 -1.0938 -0.8260
 6922TIP3    H242182   1.744   4.814  15.315 -1.2476  0.4183 -1.4248
 6923TIP3   OH242183   6.296   4.038  12.195 -0.9309  0.5808 -0.2920
 6923TIP3    H142184   6.307   3.965  12.256 -0.0443  0.0876 -1.0122
 6923TIP3    H242185   6.214   4.020  12.149 -1.1285  0.4671  0.1113
 6924TIP3   OH242186   0.624   4.249  11.894  0.3470  0.0453 -0.2975
 6924TIP3    H142187   0.676   4.171  11.913  2.4080  1.5867  0.8085
 6924TIP3    H242188   0.588   4.275  11.980  0.0607  0.5680 -0.5690
 6925TIP3   OH242189   1.692   3.423   5.655  0.2420 -0.4878  0.5672
 6925TIP3    H142190   1.703   3.328   5.655 -0.8446 -0.6249  0.3274
 6925TIP3    H242191   1.677   3.446   5.747  0.2667 -0.5722  0.5920
 6926TIP3   OH242192   1.966   5.308   5.725 -0.2504 -0.3823  0.1130
 6926TIP3    H142193   1.986   5.330   5.634 -1.1187  1.2939  0.2995
 6926TIP3    H242194   1.882   5.263   5.721 -0.6584  0.3718  0.1527
 6927TIP3   OH242195   2.115   2.664   4.612  0.1644 -0.3412 -0.3549
 6927TIP3    H142196   2.137   2.756   4.625  1.7495 -0.4881 -1.6994
 6927TIP3    H242197   2.199   2.622   4.592 -0.4492 -2.1893  0.7579
 6928TIP3   OH242198   2.594   0.153  15.360 -0.2957 -0.1311 -0.4170
 6928TIP3    H142199   2.658   0.096  15.316 -0.1412  0.4567 -0.9602
 6928TIP3    H242200   2.560   0.099  15.432 -0.1041 -0.8920 -0.8823
 6929TIP3   OH242201   3.015   3.921  14.932 -0.0575  0.4261 -0.4639
 6929TIP3    H142202   2.999   3.848  14.872  1.8158 -0.6301  0.2593
 6929TIP3    H242203   2.927   3.955  14.952 -0.9515 -1.3885 -1.0929
 6930TIP3   OH242204   2.193   2.751   5.879  0.4548 -0.1080  0.5806
 6930TIP3    H142205   2.127   2.723   5.942 -0.4953  0.9114  0.0749
 6930TIP3    H242206   2.237   2.671   5.853 -1.7674 -1.1264 -0.3741
 6931TIP3   OH242207   0.835   6.615  15.758 -0.7774 -0.2375  0.1931
 6931TIP3    H142208   0.806   6.703  15.784  0.2030  0.7627 -1.8776
 6931TIP3    H242209   0.760   6.577  15.713 -0.1395  0.9556 -1.9958
 6932TIP3   OH242210   2.538   2.450  13.240 -0.0937  0.1138 -0.5442
 6932TIP3    H142211   2.495   2.365  13.233  0.8169 -0.3394 -0.8092
 6932TIP3    H242212   2.586   2.447  13.323  0.4787  0.1029 -0.8670
 6933TIP3   OH242213   1.234   4.550  13.613  0.2488  0.1443 -0.1799
 6933TIP3    H142214   1.282   4.630  13.637  1.4834 -0.7818  0.5353
 6933TIP3    H242215   1.191   4.523  13.694  1.1868 -0.8135  0.0134
 6934TIP3   OH242216   3.261   3.145   2.412  0.7738  0.4006 -0.1998
 6934TIP3    H142217   3.312   3.215   2.454  0.7368  1.3202 -1.6248
 6934TIP3    H242218   3.325   3.094   2.363  0.9810 -1.3252  1.7279
 6935TIP3   OH242219   2.943   5.295   5.167 -0.5207 -0.0532 -0.9165
 6935TIP3    H142220   2.986   5.223   5.122  0.5655  1.1749 -1.9219
 6935TIP3    H242221   2.983   5.297   5.254 -1.1150 -1.1148 -0.6034
 6936TIP3   OH242222   2.610   3.347   3.698 -0.6429 -0.5784  0.3611
 6936TIP3    H142223   2.558   3.385   3.627  1.2003  2.3469  0.4251
 6936TIP3    H242224   2.547   3.298   3.750 -3.0769  1.5924 -0.3448
 6937TIP3   OH242225   1.324   0.819  11.398  0.2094 -0.1092  0.3492
 6937TIP3    H142226   1.330   0.855  11.486  0.5967  0.4332  0.1015
 6937TIP3    H242227   1.292   0.729  11.411  0.0119  0.0540  1.0178
 6938TIP3   OH242228   5.677   0.821   4.374  0.3691 -0.5584 -0.0858
 6938TIP3    H142229   5.613   0.887   4.401 -0.6931 -1.4302 -0.3902
 6938TIP3    H242230   5.647   0.741   4.416  0.2158 -1.3721 -1.6542
 6939TIP3   OH242231   0.413   0.030  16.664 -0.7098 -0.0725 -0.3560
 6939TIP3    H142232   0.494   0.079  16.679  0.3907 -1.8007 -0.2396
 6939TIP3    H242233   0.396   0.039  16.571 -0.8917  1.0140 -0.2312
 6940TIP3   OH242234   4.465   4.731   0.762 -0.1341  0.1784 -0.1552
 6940TIP3    H142235   4.373   4.719   0.782  0.1161 -0.6659  0.5452
 6940TIP3    H242236   4.476   4.690   0.676  0.1700 -2.5349  1.0737
 6941TIP3   OH242237   2.545   5.975   1.672  0.4154  0.7178  0.4388
 6941TIP3    H142238   2.635   5.944   1.658  0.3801  0.3779  0.9214
 6941TIP3    H242239   2.520   5.936   1.756  0.5989  2.5711  1.4070
 6942TIP3   OH242240   6.786   1.886  12.459  0.7516 -0.5634 -0.0007
 6942TIP3    H142241   6.850   1.834  12.508  0.5418 -0.3081  0.5589
 6942TIP3    H242242   6.702   1.860  12.495  0.7234  1.4135  1.5781
 6943TIP3   OH242243   2.280   1.398  16.914  0.3234  0.3116  0.1934
 6943TIP3    H142244   2.275   1.473  16.973 -0.0315  0.2515  0.2440
 6943TIP3    H242245   2.188   1.373  16.900  0.4667 -1.2380  1.6260
 6944TIP3   OH242246   5.295   5.674   2.401 -0.0298 -0.0010 -0.1820
 6944TIP3    H142247   5.330   5.761   2.383  0.4167  0.0213  0.7164
 6944TIP3    H242248   5.229   5.689   2.469  0.5423 -0.4351  0.4843
 6945TIP3   OH242249   5.872   4.218   5.406  0.2136  0.1690  0.5449
 6945TIP3    H142250   5.849   4.155   5.338 -1.6766  0.7704  0.5920
 6945TIP3    H242251   5.924   4.167   5.469  0.5883 -0.7834 -0.4975
 6946TIP3   OH242252   1.505   3.994   1.678  0.2815  0.9797  0.3426
 6946TIP3    H142253   1.569   3.961   1.741 -0.4582 -0.2706  0.4825
 6946TIP3    H242254   1.451   3.917   1.656 -0.1754  1.6428 -0.9662
 6947TIP3   OH242255   2.917   1.404   4.599 -0.2434 -0.3418 -0.1525
 6947TIP3    H142256   2.951   1.485   4.562  0.1610  0.2476  1.4420
 6947TIP3    H242257   2.876   1.359   4.525  2.2050 -0.1423 -1.7286
 6948TIP3   OH242258   5.477   4.275  14.358 -0.0824 -0.4540 -0.0829
 6948TIP3    H142259   5.394   4.235  14.385  0.2471 -1.2455 -0.2001
 6948TIP3    H242260   5.461   4.305  14.268 -0.3951 -0.1546  0.0734
 6949TIP3   OH242261   2.164   6.485  16.217  0.2254 -0.5968  0.2262
 6949TIP3    H142262   2.089   6.532  16.254  2.6061  2.1203  2.0600
 6949TIP3    H242263   2.186   6.536  16.139  0.8505 -0.6814  0.3477
 6950TIP3   OH242264   0.972   4.994  14.042  0.0878  0.4278  0.3413
 6950TIP3    H142265   0.952   5.018  13.951 -0.3444 -0.7128  0.1170
 6950TIP3    H242266   1.067   5.003  14.048  0.6791 -2.9361 -1.3689
 6951TIP3   OH242267   4.536   2.849   6.223  0.0035  0.4390  0.8411
 6951TIP3    H142268   4.453   2.887   6.251 -1.5953 -0.6598 -1.9620
 6951TIP3    H242269   4.544   2.769   6.274 -1.0196  0.2200  0.6831
 6952TIP3   OH242270   5.571   5.614  12.016 -0.3652  0.7255  0.3765
 6952TIP3    H142271   5.477   5.600  12.007 -0.3925  0.8308  0.4942
 6952TIP3    H242272   5.605   5.532  12.051 -0.4690  0.8253  0.7090
 6953TIP3   OH242273   6.133   5.516  16.244  0.4204  0.9084 -0.0671
 6953TIP3    H142274   6.221   5.484  16.222  0.5923  0.7861  0.7612
 6953TIP3    H242275   6.143   5.611  16.248  1.3477  0.8097  3.1986
 6954TIP3   OH242276   6.051   5.199  15.391  0.1831 -0.1985 -0.4425
 6954TIP3    H142277   6.084   5.123  15.344 -0.0484  0.0489 -1.0100
 6954TIP3    H242278   6.087   5.190  15.480  1.1521 -0.3324 -0.8341
 6955TIP3   OH242279   2.407   4.144   2.521 -0.0492  0.8093 -0.0011
 6955TIP3    H142280   2.386   4.135   2.614  0.9446 -0.8407  0.1025
 6955TIP3    H242281   2.419   4.054   2.490 -2.7468  1.1143 -2.3264
 6956TIP3   OH242282   2.391   0.066   3.515 -0.5602 -0.0489  0.1192
 6956TIP3    H142283   2.477   0.088   3.480 -0.0480 -0.7140  0.9231
 6956TIP3    H242284   2.341   0.035   3.440 -0.7416  2.1159 -0.7265
 6957TIP3   OH242285   2.560   0.273  14.414  0.2093  0.4714  0.3357
 6957TIP3    H142286   2.629   0.324  14.372 -0.3375 -0.2587 -1.5423
 6957TIP3    H242287   2.506   0.338  14.458  0.2620  1.3820 -0.9024
 6958TIP3   OH242288   1.178   0.326   4.424 -0.1296 -0.3012  0.3939
 6958TIP3    H142289   1.108   0.339   4.488  0.3500  0.5815  0.7616
 6958TIP3    H242290   1.237   0.263   4.465 -0.1614 -0.2326  0.5457
 6959TIP3   OH242291   3.891   2.020  14.141  0.3485 -0.4153  0.0976
 6959TIP3    H142292   3.889   1.941  14.194  1.0334  0.1272  0.9630
 6959TIP3    H242293   3.894   2.092  14.205 -0.3940  0.3147 -0.6663
 6960TIP3   OH242294   5.550   1.567  15.754 -0.0500  0.6876 -0.3232
 6960TIP3    H142295   5.635   1.592  15.791  0.4272 -0.5143 -0.5537
 6960TIP3    H242296   5.512   1.509  15.819 -1.4343  2.4540  0.5104
 6961TIP3   OH242297   6.305   6.684   2.863 -0.1835 -0.1081  0.0088
 6961TIP3    H142298   6.294   6.733   2.782 -1.4666  0.1278  0.3030
 6961TIP3    H242299   6.388   6.638   2.853  1.2350  2.3621 -0.1643
 6962TIP3   OH242300   1.215   2.108   2.913  0.4396 -0.0123  0.8916
 6962TIP3    H142301   1.252   2.186   2.955  1.3074  0.0228  0.0803
 6962TIP3    H242302   1.275   2.088   2.841 -1.5978  0.6144 -1.1159
 6963TIP3   OH242303   1.628   6.747  15.663 -0.4535 -0.0866 -0.1376
 6963TIP3    H142304   1.705   6.694  15.642  0.4621  0.2225  2.0865
 6963TIP3    H242305   1.636   6.825  15.607  1.2557  0.2497  0.4955
 6964TIP3   OH242306   1.767   0.918  14.632 -0.0305 -0.0387 -0.3935
 6964TIP3    H142307   1.752   1.009  14.607  1.9290  0.2352 -0.7174
 6964TIP3    H242308   1.730   0.867  14.560  0.2540  0.5595 -0.9703
 6965TIP3   OH242309   4.505   6.494   4.600 -0.0967 -0.3612  0.0893
 6965TIP3    H142310   4.515   6.399   4.604 -0.2495 -0.4064 -0.4740
 6965TIP3    H242311   4.592   6.528   4.620 -0.6653 -0.5284  3.2163
 6966TIP3   OH242312   1.287   4.782  16.049 -0.1546  0.3620 -0.2475
 6966TIP3    H142313   1.350   4.721  16.087 -0.3080 -0.0698 -0.6764
 6966TIP3    H242314   1.225   4.799  16.120 -0.1820 -0.0791 -0.1594
 6967TIP3   OH242315   4.242   4.456   3.608 -0.5453  0.3465 -0.4482
 6967TIP3    H142316   4.274   4.449   3.518  1.3897  0.7824  0.1615
 6967TIP3    H242317   4.154   4.493   3.599 -0.4758  0.1744 -2.1679
 6968TIP3   OH242318   2.200   4.399   2.886  0.3960 -0.1056 -0.3340
 6968TIP3    H142319   2.181   4.441   2.969  2.4342  1.4231 -0.5843
 6968TIP3    H242320   2.114   4.393   2.842 -0.3348  1.3326  0.8257
 6969TIP3   OH242321   0.356   2.156   4.669  0.0983 -0.0263  0.2225
 6969TIP3    H142322   0.274   2.108   4.683 -1.3021  1.8811 -0.9325
 6969TIP3    H242323   0.375   2.144   4.576 -0.1770  1.4080 -0.0476
 6970TIP3   OH242324   4.567   6.690   0.052  0.1962  0.0800  0.2262
 6970TIP3    H142325   4.584   6.598   0.036 -1.3142 -0.6601  2.4760
 6970TIP3    H242326   4.542   6.725  -0.034  2.7863 -1.0336 -1.0933
 6971TIP3   OH242327   3.569   3.469  15.598  0.0018 -0.2810  0.3887
 6971TIP3    H142328   3.531   3.423  15.522 -0.1660 -0.2349  0.4433
 6971TIP3    H242329   3.510   3.543  15.612 -0.3815 -0.7027  1.0193
 6972TIP3   OH242330   5.454   3.684   5.889 -0.1069  0.1515 -0.9747
 6972TIP3    H142331   5.507   3.620   5.841 -2.5095 -0.6185 -2.8168
 6972TIP3    H242332   5.407   3.632   5.954  1.4542  0.8642  0.8131
 6973TIP3   OH242333   2.225   2.921  12.352  0.3630  0.2460 -0.2490
 6973TIP3    H142334   2.309   2.955  12.322 -0.2116  2.0835  0.1355
 6973TIP3    H242335   2.233   2.916  12.447  0.0808  0.2667 -0.2239
 6974TIP3   OH242336   6.416   5.873  11.671 -0.4880 -0.5183 -0.4566
 6974TIP3    H142337   6.471   5.934  11.622  0.3401 -1.0810 -0.2476
 6974TIP3    H242338   6.471   5.796  11.684 -1.1867 -0.9336  0.1249
 6975TIP3   OH242339   1.022   0.614  15.190  0.1037 -0.7173 -0.6159
 6975TIP3    H142340   0.974   0.635  15.270  0.8613  0.3403 -0.4115
 6975TIP3    H242341   1.102   0.666  15.196  0.3679 -0.9407 -1.8683
 6976TIP3   OH242342   5.529   5.544  11.567 -0.2870 -0.2749  0.1122
 6976TIP3    H142343   5.620   5.518  11.555 -0.1499 -0.0829  0.7047
 6976TIP3    H242344   5.480   5.461  11.564 -0.0025 -0.4662  0.6073
 6977TIP3   OH242345   0.357   0.114   2.529 -0.0801 -0.0322 -0.4076
 6977TIP3    H142346   0.344   0.020   2.542 -0.4977  0.2527  1.6143
 6977TIP3    H242347   0.332   0.153   2.612  2.4698  1.6475 -0.3037
 6978TIP3   OH242348   3.686   3.633   3.437  0.7466 -0.4043 -0.2780
 6978TIP3    H142349   3.603   3.656   3.394  0.7175  1.0364  0.4800
 6978TIP3    H242350   3.741   3.710   3.424  0.8986 -0.0960  1.8255
 6979TIP3   OH242351   5.591   0.102   3.282 -0.2906 -0.1894 -0.3153
 6979TIP3    H142352   5.685   0.086   3.293 -0.5280 -2.1165 -0.6537
 6979TIP3    H242353   5.586   0.165   3.210  0.7350 -0.8520 -1.0005
 6980TIP3   OH242354   6.652   1.177  11.221  0.4623  0.1297 -0.0921
 6980TIP3    H142355   6.610   1.092  11.209 -1.9643  1.2278  0.1970
 6980TIP3    H242356   6.581   1.241  11.214  1.9595  2.0611  1.2399
 6981TIP3   OH242357   4.659   4.402   0.517 -0.1010  0.2008 -0.4163
 6981TIP3    H142358   4.636   4.436   0.604 -2.5048 -0.0932 -0.8615
 6981TIP3    H242359   4.751   4.376   0.525 -0.2085  0.3101  2.0031
 6982TIP3   OH242360   6.521   2.853   5.945 -0.3604 -0.3829 -0.3904
 6982TIP3    H142361   6.428   2.831   5.958 -0.0788 -1.0504  0.6026
 6982TIP3    H242362   6.563   2.768   5.929  0.1930 -0.1706 -0.0613
 6983TIP3   OH242363   4.391   0.436   5.378  0.6265  0.1675 -0.3349
 6983TIP3    H142364   4.473   0.482   5.357 -0.1072  2.8212  1.9865
 6983TIP3    H242365   4.360   0.405   5.293  3.9189 -0.8707 -1.3317
 6984TIP3   OH242366   3.064   1.322  15.717  0.4304 -0.4952  0.2796
 6984TIP3    H142367   2.970   1.306  15.725  0.3084  0.5091  0.9857
 6984TIP3    H242368   3.088   1.281  15.633 -0.6437 -0.6902  0.0510
 6985TIP3   OH242369   1.656   4.224  14.712  0.3530  0.4433  0.4216
 6985TIP3    H142370   1.562   4.211  14.728  0.5604 -0.4101  1.0287
 6985TIP3    H242371   1.685   4.140  14.676  0.8730  0.7313  0.1687
 6986TIP3   OH242372   0.436   6.675  17.093  0.4895  0.2983  0.0002
 6986TIP3    H142373   0.499   6.705  17.158  0.3466  0.5772  0.0090
 6986TIP3    H242374   0.484   6.674  17.010  2.2349 -4.6424  0.7008
 6987TIP3   OH242375   5.536   3.996  15.425  0.0828  0.0074 -0.3574
 6987TIP3    H142376   5.510   3.963  15.511 -1.2610 -0.5726 -0.9688
 6987TIP3    H242377   5.530   3.921  15.367 -1.4502  0.9276 -1.4499
 6988TIP3   OH242378   2.679   6.561   4.527 -0.3381 -0.4378 -0.1119
 6988TIP3    H142379   2.595   6.567   4.482 -0.2738  0.1799 -0.1634
 6988TIP3    H242380   2.744   6.579   4.458 -0.3058  2.3451  0.5252
 6989TIP3   OH242381   2.269   3.239  13.379 -0.0972  0.1273 -0.0022
 6989TIP3    H142382   2.182   3.243  13.418  0.1713 -0.0821  0.6176
 6989TIP3    H242383   2.260   3.179  13.305  0.0646 -1.8115  1.4789
 6990TIP3   OH242384   3.034   4.546  11.648  0.6991  0.3751 -0.2493
 6990TIP3    H142385   3.122   4.573  11.623  0.2378  1.8190 -0.4183
 6990TIP3    H242386   2.976   4.594  11.588 -0.2189 -0.4218 -0.0360
 6991TIP3   OH242387   3.564   0.785  14.680  0.4232 -0.4301 -0.5124
 6991TIP3    H142388   3.603   0.761  14.596  0.0731  0.6553 -1.0050
 6991TIP3    H242389   3.628   0.756  14.745  1.2278 -0.2781 -1.2144
 6992TIP3   OH242390   4.168   0.052  14.328 -0.1340  0.0080 -0.3215
 6992TIP3    H142391   4.076   0.073  14.310 -0.1844  1.3043  1.2279
 6992TIP3    H242392   4.168   0.020  14.418  0.8553 -0.7182 -0.5607
 6993TIP3   OH242393   3.928   6.099  13.759  0.3917 -0.0879  0.0524
 6993TIP3    H142394   3.884   6.050  13.690 -1.0950  2.7143 -1.1817
 6993TIP3    H242395   3.963   6.033  13.818 -1.1212 -2.5578 -1.6526
 6994TIP3   OH242396   5.055   6.703  15.420  0.6268 -0.2420  0.6863
 6994TIP3    H142397   5.089   6.648  15.349 -0.3514 -1.9022  1.4334
 6994TIP3    H242398   4.976   6.743  15.385  2.4795  2.5875 -0.6142
 6995TIP3   OH242399   5.311   1.566   2.964 -0.1532 -1.1538 -0.3926
 6995TIP3    H142400   5.276   1.573   2.875 -1.5485 -0.8208  0.1571
 6995TIP3    H242401   5.376   1.636   2.970 -3.2968  2.0331  0.2447
 6996TIP3   OH242402   2.784   3.239  12.979  0.0701 -0.1994 -0.4463
 6996TIP3    H142403   2.832   3.322  12.981  1.2746 -0.8361  2.0062
 6996TIP3    H242404   2.795   3.207  12.889  0.6301  1.6980 -1.1000
 6997TIP3   OH242405   6.210   2.628  16.410  0.4381  0.6667  0.8786
 6997TIP3    H142406   6.183   2.700  16.467 -0.4418  0.3966  0.8224
 6997TIP3    H242407   6.137   2.565  16.415  0.7571  0.2297  0.1678
 6998TIP3   OH242408   4.854   1.124   3.077 -0.4607  0.4884 -0.0997
 6998TIP3    H142409   4.810   1.055   3.026 -1.2857 -0.2725  1.5797
 6998TIP3    H242410   4.947   1.112   3.057 -0.5384 -1.4017  0.4536
 6999TIP3   OH242411   0.072   2.377   2.119 -0.3281 -0.3463  0.7269
 6999TIP3    H142412  -0.018   2.368   2.151 -1.1230 -0.1620 -1.3467
 6999TIP3    H242413   0.063   2.419   2.034  1.6879 -0.9946  0.1530
 7000TIP3   OH242414   0.881   4.531   4.147  0.0340  0.2355  0.0748
 7000TIP3    H142415   0.819   4.601   4.124  2.3945  1.8166 -1.9224
 7000TIP3    H242416   0.825   4.459   4.177 -2.6008  2.4001  0.7433
 7001TIP3   OH242417   3.950   2.063   3.746 -0.1595  0.8791 -0.7664
 7001TIP3    H142418   4.025   2.107   3.786  0.9337 -0.9478 -0.7063
 7001TIP3    H242419   3.987   2.010   3.677 -1.3002 -0.6314 -0.2726
 7002TIP3   OH242420   3.371   5.077  13.258  0.5673  0.0387 -0.1842
 7002TIP3    H142421   3.360   5.008  13.192  1.0526  1.3825 -1.7603
 7002TIP3    H242422   3.455   5.058  13.300  1.8816  0.8844 -2.2543
 7003TIP3   OH242423   1.906   5.665   1.467  0.4494 -0.5024  0.3558
 7003TIP3    H142424   1.926   5.756   1.446  0.2664 -0.2672  1.1644
 7003TIP3    H242425   1.987   5.617   1.447  0.7765 -0.0541  0.5970
 7004TIP3   OH242426   0.982   5.891  12.779 -0.1526  0.1072  0.1974
 7004TIP3    H142427   0.950   5.887  12.869 -2.2051 -1.1755 -0.4967
 7004TIP3    H242428   0.915   5.941  12.732  0.2704 -0.2445 -0.8086
 7005TIP3   OH242429   3.976   5.535  11.942  0.1818 -0.5138  0.1979
 7005TIP3    H142430   4.014   5.591  12.009  0.1019  0.5696 -0.6273
 7005TIP3    H242431   4.040   5.536  11.870  0.7794 -2.5258  0.6392
 7006TIP3   OH242432   4.522   4.971   3.001  0.1916  0.6506 -0.1342
 7006TIP3    H142433   4.566   4.908   3.059  0.3882  0.6737 -0.2563
 7006TIP3    H242434   4.431   4.942   2.999  0.6073 -0.6935 -1.6002
 7007TIP3   OH242435   1.379   3.002   5.182  0.0799  0.1589  0.2054
 7007TIP3    H142436   1.417   3.090   5.184 -0.7331  0.5028  1.3376
 7007TIP3    H242437   1.424   2.954   5.252 -0.0413 -0.0883  0.1144
 7008TIP3   OH242438   3.743   1.343   2.040  0.5243 -0.6185  0.5956
 7008TIP3    H142439   3.695   1.423   2.018 -1.5510 -1.4711  1.6882
 7008TIP3    H242440   3.776   1.359   2.129  1.4576 -0.3980  0.2122
 7009TIP3   OH242441   1.824   4.717   5.239 -0.3965 -0.1862  0.4188
 7009TIP3    H142442   1.736   4.680   5.248 -0.6596  0.6003  1.2068
 7009TIP3    H242443   1.814   4.809   5.261  1.0384 -0.5526  3.1771
 7010TIP3   OH242444   1.526   2.981  11.481  0.6676  0.1377  0.3196
 7010TIP3    H142445   1.605   2.989  11.428  0.3190 -0.1384 -0.2598
 7010TIP3    H242446   1.494   3.071  11.491  0.4225  0.1472 -0.4437
 7011TIP3   OH242447   4.002   0.078   2.659  0.4054  0.1333  0.1691
 7011TIP3    H142448   4.061   0.013   2.621  0.0861 -0.6478  0.9778
 7011TIP3    H242449   3.951   0.110   2.584 -1.2515 -2.4608  0.0411
 7012TIP3   OH242450   6.082   3.808   4.075  0.6413 -0.5901  0.3864
 7012TIP3    H142451   6.088   3.713   4.065 -0.6899 -0.6184 -0.3886
 7012TIP3    H242452   5.988   3.827   4.074  0.8732  0.7089  0.7958
 7013TIP3   OH242453   2.517   4.878  16.544  0.7111 -0.4179  0.1962
 7013TIP3    H142454   2.452   4.942  16.573 -0.2126 -1.6028  0.8532
 7013TIP3    H242455   2.528   4.895  16.450  0.3665  0.5856  0.3297
 7014TIP3   OH242456   2.686   0.142   2.943 -0.7129  0.5230 -0.1835
 7014TIP3    H142457   2.766   0.183   2.977 -0.3338  1.9225 -2.5241
 7014TIP3    H242458   2.616   0.178   2.997  0.0654  0.5881  0.8106
 7015TIP3   OH242459   5.877   6.423  17.151  0.7600  0.5524  0.1697
 7015TIP3    H142460   5.864   6.354  17.216  0.0725 -0.1396 -0.6769
 7015TIP3    H242461   5.817   6.492  17.177 -0.0112 -0.0037 -0.1103
 7016TIP3   OH242462   5.970   5.825   3.791  0.2088 -0.5863 -0.0002
 7016TIP3    H142463   5.956   5.825   3.696 -1.3781 -1.2109  0.2087
 7016TIP3    H242464   5.882   5.836   3.828  0.8433 -0.0471  1.4001
 7017TIP3   OH242465   2.542   6.787   5.333  0.1004 -0.4345  0.5163
 7017TIP3    H142466   2.514   6.700   5.306 -1.5566  0.7821 -2.0122
 7017TIP3    H242467   2.512   6.794   5.424 -1.7505 -1.7024  0.0623
 7018TIP3   OH242468   6.666   1.514  11.721 -0.6168 -0.1577 -0.5921
 7018TIP3    H142469   6.742   1.464  11.691 -0.4405 -0.1154 -0.2246
 7018TIP3    H242470   6.703   1.588  11.769 -0.8343  1.0768 -2.2265
 7019TIP3   OH242471   4.672   2.905   0.650  0.0952  0.4019 -0.0540
 7019TIP3    H142472   4.758   2.868   0.628  0.7928  0.9965  1.5354
 7019TIP3    H242473   4.649   2.957   0.573  0.9386 -0.1120 -0.6854
 7020TIP3   OH242474   3.009   2.435  11.548  0.1799 -0.2950  0.4525
 7020TIP3    H142475   3.092   2.393  11.573  0.2820 -0.0996  0.4411
 7020TIP3    H242476   3.017   2.525  11.580 -0.9890 -0.8954  2.6215
 7021TIP3   OH242477   1.392   6.379   2.162 -0.8114 -0.0493  0.2847
 7021TIP3    H142478   1.375   6.426   2.081 -0.4169  2.4991  1.5628
 7021TIP3    H242479   1.452   6.309   2.138 -1.0400  0.3911 -1.6702
 7022TIP3   OH242480   4.045   2.074   4.811  0.3169  0.1042 -0.2611
 7022TIP3    H142481   3.952   2.050   4.814  0.2295  0.5651  1.0844
 7022TIP3    H242482   4.083   2.012   4.749 -0.7674 -0.5206 -0.3286
 7023TIP3   OH242483   5.349   5.070  11.930  0.0598 -0.4090  0.0451
 7023TIP3    H142484   5.394   5.103  12.008 -0.3254 -0.3977  0.2657
 7023TIP3    H242485   5.394   4.988  11.909 -0.3365 -0.8176  0.7480
 7024TIP3   OH242486   3.215   5.094  14.353 -0.0809 -0.2246 -0.2467
 7024TIP3    H142487   3.147   5.099  14.287 -0.2646  0.4595 -0.0153
 7024TIP3    H242488   3.241   5.185  14.368 -0.1763 -0.3527  0.7539
 7025TIP3   OH242489   2.698   6.249   2.241 -0.1676  0.1822  0.2690
 7025TIP3    H142490   2.775   6.194   2.257 -0.3820 -0.3208 -0.3802
 7025TIP3    H242491   2.671   6.228   2.152 -1.3753 -0.0541  0.6570
 7026TIP3   OH242492   4.094   0.677  12.618 -0.1436 -0.6729 -0.5691
 7026TIP3    H142493   4.172   0.721  12.652 -0.2353 -1.2054  0.3445
 7026TIP3    H242494   4.031   0.748  12.604  0.3253 -0.3018 -0.8409
 7027TIP3   OH242495   1.070   3.592  15.708 -0.2335  0.3424 -0.0545
 7027TIP3    H142496   1.009   3.662  15.734 -0.4792  0.1608 -0.1410
 7027TIP3    H242497   1.074   3.599  15.613 -1.5898 -0.8522 -0.2311
 7028TIP3   OH242498   0.135   1.322   1.385 -0.0730  0.1466  0.0730
 7028TIP3    H142499   0.156   1.386   1.453 -0.0574  0.8699 -0.5982
 7028TIP3    H242500   0.147   1.237   1.427  2.2639  0.5281  0.3026
 7029TIP3   OH242501   6.705   3.351   3.572  0.5934 -0.1000  0.1802
 7029TIP3    H142502   6.721   3.443   3.594 -1.1878  0.1129  0.6797
 7029TIP3    H242503   6.610   3.342   3.569  0.7003 -2.1740  1.1890
 7030TIP3   OH242504   2.207   2.159  10.271  0.5148  0.4137  0.5216
 7030TIP3    H142505   2.153   2.082  10.291 -1.1763  0.9925 -1.4416
 7030TIP3    H242506   2.284   2.124  10.227 -0.9776 -0.1904 -1.8411
 7031TIP3   OH242507   6.796   3.845  11.064  0.0267 -0.3812 -0.0549
 7031TIP3    H142508   6.766   3.916  11.006  1.1402 -0.0263 -0.2101
 7031TIP3    H242509   6.816   3.889  11.147 -0.4917 -0.7170  0.2511
 7032TIP3   OH242510   5.999   6.316  15.039 -0.0634  0.6471 -0.9176
 7032TIP3    H142511   5.934   6.284  15.102 -0.5332  1.6520 -0.8775
 7032TIP3    H242512   6.063   6.245  15.033 -1.5661 -0.7442 -1.5683
 7033TIP3   OH242513   4.804   6.546  11.905  0.4302  0.0189  0.1861
 7033TIP3    H142514   4.893   6.582  11.909 -0.1143  1.3370  0.9047
 7033TIP3    H242515   4.802   6.480  11.975  0.3005  1.3344  1.4781
 7034TIP3   OH242516   5.396   4.386   4.729  0.0866 -0.2004  0.3161
 7034TIP3    H142517   5.375   4.402   4.821 -0.8624  0.9107 -0.0737
 7034TIP3    H242518   5.485   4.419   4.718  0.2243 -0.3914  0.8483
 7035TIP3   OH242519   3.210   1.628  10.423 -0.3799 -0.5822 -0.0892
 7035TIP3    H142520   3.153   1.705  10.421 -1.4304 -1.3559 -1.8969
 7035TIP3    H242521   3.172   1.572  10.491 -1.3928 -0.7875 -0.8062
 7036TIP3   OH242522   1.478   0.685  12.775 -0.7174  0.5638  0.1307
 7036TIP3    H142523   1.541   0.689  12.846 -0.9044 -1.1704  0.4183
 7036TIP3    H242524   1.418   0.758  12.793  0.0545  1.0153  0.9416
 7037TIP3   OH242525   6.567   5.308  16.277  0.9428 -0.2158  1.2454
 7037TIP3    H142526   6.510   5.264  16.341  0.5295 -0.4702  0.7044
 7037TIP3    H242527   6.637   5.346  16.331  0.8456 -0.8069  1.8144
 7038TIP3   OH242528   0.348   0.414   3.525 -0.6294 -0.7180  0.1411
 7038TIP3    H142529   0.313   0.493   3.484 -1.2049 -1.0818 -0.0914
 7038TIP3    H242530   0.313   0.342   3.472  1.5860 -1.0826 -0.9452
 7039TIP3   OH242531   6.137   6.433   2.221  0.4543  0.6058  0.1352
 7039TIP3    H142532   6.211   6.401   2.170  0.6430  2.2165 -0.6696
 7039TIP3    H242533   6.150   6.396   2.308  0.2158 -2.0988 -0.8654
 7040TIP3   OH242534   4.980   1.232  16.524  0.2363  0.4004 -0.2684
 7040TIP3    H142535   4.988   1.290  16.600 -0.0703 -1.6949  1.4414
 7040TIP3    H242536   5.068   1.231  16.486  0.4636  1.2711  0.2067
 7041TIP3   OH242537   4.129   6.614  14.544 -0.1919  0.2518  0.0908
 7041TIP3    H142538   4.045   6.571  14.529 -1.1272  1.5951  1.2301
 7041TIP3    H242539   4.188   6.543  14.572 -1.2292 -0.5430  0.3158
 7042TIP3   OH242540   6.128   4.468   1.781 -0.0318  0.5253 -0.3033
 7042TIP3    H142541   6.159   4.488   1.693 -0.6603 -2.0960 -1.2131
 7042TIP3    H242542   6.035   4.446   1.769 -0.2728  0.6630  1.1171
 7043TIP3   OH242543   3.695   2.676   2.768 -0.4374 -0.0684  0.1591
 7043TIP3    H142544   3.715   2.664   2.860 -1.0034  0.3740  0.3493
 7043TIP3    H242545   3.613   2.628   2.755 -1.1204  1.0286  0.2346
 7044TIP3   OH242546   1.459   0.863   3.597 -0.7648 -0.0071 -0.0457
 7044TIP3    H142547   1.497   0.830   3.515  0.6140  3.8120 -1.1397
 7044TIP3    H242548   1.381   0.911   3.570  0.3748  2.3627  0.5813
 7045TIP3   OH242549   2.142   2.475  12.582  0.0808  0.1561 -0.1919
 7045TIP3    H142550   2.232   2.451  12.560  0.3257  1.7623 -1.1099
 7045TIP3    H242551   2.109   2.400  12.631  1.3732 -1.1777 -1.2453
 7046TIP3   OH242552   4.667   5.264   5.561 -0.4357 -0.2609  0.0895
 7046TIP3    H142553   4.713   5.184   5.585 -1.2019 -0.6898  0.1719
 7046TIP3    H242554   4.700   5.331   5.621 -1.0528 -0.9219  1.1912
 7047TIP3   OH242555   4.485   4.646   3.863 -0.1599 -0.2802  0.1537
 7047TIP3    H142556   4.408   4.689   3.899 -0.9724 -1.9415  0.5075
 7047TIP3    H242557   4.492   4.564   3.912  0.5277 -1.1762 -1.3631
 7048TIP3   OH242558   4.877   4.363  15.872  0.3514 -0.3101  0.4990
 7048TIP3    H142559   4.933   4.394  15.801  1.5273  0.0294  1.5332
 7048TIP3    H242560   4.884   4.431  15.939 -1.4324 -0.2024  0.6149
 7049TIP3   OH242561   0.056   6.166  16.934 -0.2394  0.6154 -0.1080
 7049TIP3    H142562  -0.023   6.203  16.894  1.0337  1.0984 -2.3352
 7049TIP3    H242563   0.103   6.126  16.861  0.5865 -1.5485  1.5147
 7050TIP3   OH242564   2.551   0.199  16.427  0.5465 -0.1544  0.1499
 7050TIP3    H142565   2.579   0.290  16.427  3.1281 -0.8573 -0.0192
 7050TIP3    H242566   2.526   0.181  16.518 -0.2608  0.7753  0.1223
 7051TIP3   OH242567   3.255   1.257  17.064 -0.1688  0.3566  0.3188
 7051TIP3    H142568   3.281   1.195  17.132 -0.1188  0.2780  0.2285
 7051TIP3    H242569   3.289   1.220  16.983 -0.9169  0.0450  0.1443
 7052TIP3   OH242570   0.374   2.421  16.603  0.0469 -0.2440  0.1011
 7052TIP3    H142571   0.306   2.381  16.551  1.0237 -1.0248 -0.6172
 7052TIP3    H242572   0.423   2.476  16.542 -0.3319  0.8500  0.7489
 7053TIP3   OH242573   4.822   5.450  15.439 -0.5469  0.5719  0.3511
 7053TIP3    H142574   4.797   5.479  15.527  1.5632  1.3387  0.7333
 7053TIP3    H242575   4.911   5.482  15.427 -0.8864  0.7188 -2.2016
 7054TIP3   OH242576   4.324   4.716  15.599  0.1834 -0.1113 -0.1123
 7054TIP3    H142577   4.341   4.665  15.520  0.9019 -1.1629  0.6922
 7054TIP3    H242578   4.312   4.651  15.668  0.8352  0.8045  0.9018
 7055TIP3   OH242579   2.322   5.133   1.031 -0.1418 -0.4424 -0.6020
 7055TIP3    H142580   2.317   5.222   0.996  1.3427 -0.6406 -1.4038
 7055TIP3    H242581   2.300   5.077   0.957  1.4415 -0.8168 -0.8116
 7056TIP3   OH242582   3.891   5.976  15.621  0.2079 -0.4374 -0.0632
 7056TIP3    H142583   3.950   5.905  15.596  0.0538 -0.5826 -0.0092
 7056TIP3    H242584   3.937   6.022  15.691 -0.8782 -2.1159  1.8190
 7057TIP3   OH242585   6.648   2.993   6.214  0.2717 -0.0149  0.2538
 7057TIP3    H142586   6.598   2.935   6.156 -0.6710  0.3804  0.6461
 7057TIP3    H242587   6.705   2.934   6.263  0.2565 -0.4702 -0.2650
 7058TIP3   OH242588   6.137   6.275   4.333 -0.4265  0.5096 -0.6346
 7058TIP3    H142589   6.113   6.203   4.392  0.0291  0.7846 -0.1041
 7058TIP3    H242590   6.100   6.353   4.374  0.3580  0.7770 -0.4277
 7059TIP3   OH242591   6.299   4.810   4.751  0.3856  0.0585 -0.4914
 7059TIP3    H142592   6.221   4.755   4.756  0.0351  0.3686 -2.0318
 7059TIP3    H242593   6.372   4.750   4.761 -0.0399 -0.2208  1.0887
 7060TIP3   OH242594   6.451   0.503   0.589  0.2455 -0.2556  0.7582
 7060TIP3    H142595   6.483   0.520   0.678  3.2579 -0.9732 -0.0771
 7060TIP3    H242596   6.527   0.514   0.533 -1.1395 -1.5789 -1.5648
 7061TIP3   OH242597   1.359   1.758   4.454  0.5427  0.1187 -0.2939
 7061TIP3    H142598   1.331   1.828   4.395  1.9254  0.3899 -0.6514
 7061TIP3    H242599   1.302   1.767   4.530 -0.6075  0.3849 -1.1480
 7062TIP3   OH242600   6.454   5.263   1.208 -0.7420  0.0083 -0.0796
 7062TIP3    H142601   6.535   5.315   1.205 -2.1950  2.5625  1.1746
 7062TIP3    H242602   6.469   5.199   1.277  0.3082  0.2425 -0.0721
 7063TIP3   OH242603   1.879   4.008  12.929 -0.1459 -0.0140  0.1208
 7063TIP3    H142604   1.915   4.029  13.016  0.7005  3.4818 -0.8887
 7063TIP3    H242605   1.793   3.970  12.947  0.4815 -0.4552  2.5013
 7064TIP3   OH242606   2.053   2.141  10.671 -0.3969  0.2502 -0.1791
 7064TIP3    H142607   2.007   2.089  10.605 -1.1466  1.2288 -0.4494
 7064TIP3    H242608   2.120   2.189  10.622  1.5500 -1.7661  0.3152
 7065TIP3   OH242609   1.173   5.062  15.589  0.3001  0.0589 -0.4558
 7065TIP3    H142610   1.225   5.142  15.582  0.3695 -0.0992 -2.0778
 7065TIP3    H242611   1.109   5.069  15.519 -0.8892 -0.4855  0.5367
 7066TIP3   OH242612   2.395   0.301   2.724  0.1320 -0.1077  0.3729
 7066TIP3    H142613   2.433   0.292   2.636  2.6455  1.0249  1.2400
 7066TIP3    H242614   2.308   0.337   2.710  1.3801  2.4251 -1.6173
 7067TIP3   OH242615   5.652   5.953  15.994 -0.5661  0.2182 -0.3792
 7067TIP3    H142616   5.739   5.974  15.958 -0.2317 -0.8638 -0.2225
 7067TIP3    H242617   5.664   5.959  16.089 -0.3314 -1.1032 -0.3058
 7068TIP3   OH242618   0.161   4.332   3.082 -1.1196 -0.0365 -0.6413
 7068TIP3    H142619   0.066   4.326   3.073 -1.3522 -0.2834  1.5752
 7068TIP3    H242620   0.175   4.377   3.165  0.7259  0.5708 -1.2255
 7069TIP3   OH242621   2.942   0.263  13.356  0.0242 -0.2901  0.6563
 7069TIP3    H142622   2.945   0.314  13.275  0.7215  0.1164  0.9289
 7069TIP3    H242623   3.033   0.261  13.386 -0.1696 -0.7628  1.2310
 7070TIP3   OH242624   1.316   5.161  15.320 -0.0814  0.5199 -0.0017
 7070TIP3    H142625   1.319   5.230  15.386  0.2049  0.8299 -0.3398
 7070TIP3    H242626   1.392   5.106  15.339 -0.4450  0.1533  0.4189
 7071TIP3   OH242627   2.645   3.215  16.132  0.2187 -0.1312  0.0992
 7071TIP3    H142628   2.625   3.294  16.182  0.1943  0.3161 -0.6155
 7071TIP3    H242629   2.730   3.232  16.092  1.2432 -1.2916  1.6059
 7072TIP3   OH242630   2.381   0.540   1.997 -0.5865  0.1864 -0.1477
 7072TIP3    H142631   2.376   0.595   2.075  1.4902  0.6559 -0.3147
 7072TIP3    H242632   2.332   0.588   1.930 -0.2302  0.9927  0.1720
 7073TIP3   OH242633   1.497   4.911  15.892  0.3305  0.1076 -0.4662
 7073TIP3    H142634   1.508   4.815  15.892  1.8183  0.2443 -0.9533
 7073TIP3    H242635   1.422   4.927  15.948  0.7008 -1.2944  0.4832
 7074TIP3   OH242636   4.314   0.788  15.225 -0.2421  0.1429  0.2374
 7074TIP3    H142637   4.236   0.796  15.169 -1.1602 -0.2625  1.4287
 7074TIP3    H242638   4.373   0.732  15.175  0.0978  1.9470 -1.5200
 7075TIP3   OH242639   2.853   2.322   5.868  0.1998  0.3909  0.3526
 7075TIP3    H142640   2.815   2.407   5.893 -1.2561  0.4601 -1.8472
 7075TIP3    H242641   2.801   2.258   5.917 -2.3436  0.5462 -1.8966
 7076TIP3   OH242642   4.682   2.022   0.553 -0.1615 -0.1839  0.0235
 7076TIP3    H142643   4.646   2.086   0.614  0.7639  1.7965 -1.3862
 7076TIP3    H242644   4.657   1.937   0.589 -3.3059  0.9634  0.8718
 7077TIP3   OH242645   4.882   5.961  13.668 -0.7865  0.3898  0.2122
 7077TIP3    H142646   4.790   5.946  13.687 -1.0344  0.5755 -0.8068
 7077TIP3    H242647   4.902   6.045  13.709 -0.9287  0.1033  0.8758
 7078TIP3   OH242648   4.515   3.718   2.372 -0.4465 -0.0607 -0.1280
 7078TIP3    H142649   4.438   3.774   2.364 -1.6154 -1.4466  0.9308
 7078TIP3    H242650   4.480   3.633   2.401  1.4385 -0.8187  0.0468
 7079TIP3   OH242651   4.257   3.016  12.779  0.2538  0.1069  0.2689
 7079TIP3    H142652   4.348   2.998  12.755 -0.0704  0.5073 -1.4029
 7079TIP3    H242653   4.250   3.112  12.772 -0.1343  0.1426  1.0594
 7080TIP3   OH242654   1.611   4.824   5.475  0.2034 -0.3419  0.1165
 7080TIP3    H142655   1.638   4.909   5.441 -0.2918  0.1278  0.8505
 7080TIP3    H242656   1.629   4.763   5.404  1.1125  0.2810 -0.2141
 7081TIP3   OH242657   5.970   3.618   4.706 -0.1058  0.1927  0.3954
 7081TIP3    H142658   5.960   3.524   4.695 -2.7272  0.4293  0.1886
 7081TIP3    H242659   5.888   3.647   4.746  0.0260  2.5802 -0.8553
 7082TIP3   OH242660   0.753   3.870   2.766  0.6290 -0.3445  0.2741
 7082TIP3    H142661   0.664   3.861   2.732  0.2163  0.6968  1.0235
 7082TIP3    H242662   0.807   3.822   2.704 -0.0422  1.7395 -2.0798
 7083TIP3   OH242663   6.646   3.394   0.868  0.0714 -0.4360 -0.7733
 7083TIP3    H142664   6.733   3.391   0.827  1.0281 -0.5778  1.1717
 7083TIP3    H242665   6.647   3.474   0.919 -0.5774 -0.9476  0.0532
 7084TIP3   OH242666   2.791   2.464   5.060 -0.1254 -0.4002  0.5184
 7084TIP3    H142667   2.797   2.554   5.026  1.0016 -0.5646  0.2240
 7084TIP3    H242668   2.798   2.409   4.981 -0.1942 -0.7500  0.7558
 7085TIP3   OH242669   5.909   0.702  16.621 -0.0139 -0.2426  0.2032
 7085TIP3    H142670   5.898   0.794  16.643 -0.3130 -0.4656  1.0387
 7085TIP3    H242671   5.922   0.659  16.705 -1.1636 -1.1360 -0.0513
 7086TIP3   OH242672   4.448   5.131  11.207 -0.1108 -0.1446 -0.6260
 7086TIP3    H142673   4.428   5.052  11.257 -0.5015 -0.7986 -1.8033
 7086TIP3    H242674   4.535   5.115  11.171 -0.2190 -0.0655 -0.9209
 7087TIP3   OH242675   1.541   3.186  11.126 -0.3925  0.4841  1.0210
 7087TIP3    H142676   1.596   3.122  11.171  2.0733  3.0989  2.0695
 7087TIP3    H242677   1.593   3.212  11.050 -1.2652  1.3648  0.7038
 7088TIP3   OH242678   3.283   3.749   2.334  0.0817  0.0507  0.3596
 7088TIP3    H142679   3.343   3.720   2.266 -0.7076  0.4267 -0.5160
 7088TIP3    H242680   3.283   3.678   2.398 -0.6594 -1.2070 -0.9931
 7089TIP3   OH242681   5.190   3.121  11.826  0.3839  0.1150 -0.0056
 7089TIP3    H142682   5.165   3.208  11.798 -0.4412  0.2279  1.0416
 7089TIP3    H242683   5.282   3.113  11.800  0.2244  0.9606 -0.8668
 7090TIP3   OH242684   2.992   6.506  10.774 -0.1378  0.7417  0.2967
 7090TIP3    H142685   3.018   6.416  10.758 -0.3058  0.9879 -1.5975
 7090TIP3    H242686   3.009   6.520  10.867  1.2266 -0.7976  0.3213
 7091TIP3   OH242687   2.950   2.879   4.500  0.0774 -0.0294  0.2302
 7091TIP3    H142688   2.889   2.865   4.572 -1.8244  1.1228 -1.0566
 7091TIP3    H242689   2.913   2.828   4.427  1.9838 -1.2235  0.0216
 7092TIP3   OH242690   6.547   1.423  13.709 -0.5639 -0.1422 -0.0588
 7092TIP3    H142691   6.485   1.384  13.770  0.2274 -0.5069  0.5234
 7092TIP3    H242692   6.599   1.349  13.676 -0.3235  0.1776 -0.4124
 7093TIP3   OH242693   3.947   4.583  14.480  0.0443 -0.6584  0.0798
 7093TIP3    H142694   3.930   4.580  14.574 -0.2771  0.0382  0.0534
 7093TIP3    H242695   3.898   4.510  14.443  3.0970 -3.3282  0.8430
 7094TIP3   OH242696   4.058   5.057   1.896 -0.0603 -0.2248  0.6710
 7094TIP3    H142697   3.968   5.069   1.928  0.1669 -0.0028  1.2366
 7094TIP3    H242698   4.113   5.071   1.973  0.6491  2.4862 -0.2410
 7095TIP3   OH242699   0.606   5.774   1.138  0.4049 -0.3638 -0.2895
 7095TIP3    H142700   0.606   5.869   1.151  0.1297 -0.2588 -1.0397
 7095TIP3    H242701   0.674   5.758   1.073 -0.3589 -0.5525 -1.0489
 7096TIP3   OH242702   1.020   5.187  12.720 -0.2029  0.1031  0.5503
 7096TIP3    H142703   1.048   5.182  12.629 -0.7783  1.5588  0.2603
 7096TIP3    H242704   1.101   5.180  12.771  0.5050  2.0651 -0.1946
 7097TIP3   OH242705   4.195   4.375  16.881 -0.1255  0.5518  0.1856
 7097TIP3    H142706   4.185   4.357  16.788 -1.1150  0.9601  0.1924
 7097TIP3    H242707   4.154   4.300  16.924 -1.6284  1.3603  0.2446
 7098TIP3   OH242708   2.439   0.178  14.796 -0.2119  0.5039 -0.6173
 7098TIP3    H142709   2.413   0.232  14.721 -0.9780  1.3817  0.2529
 7098TIP3    H242710   2.359   0.169  14.848  0.6622  1.4036  0.9922
 7099TIP3   OH242711   5.524   6.655   6.322  0.3960 -1.1119 -0.9285
 7099TIP3    H142712   5.533   6.710   6.244 -0.0732 -0.9351 -0.8607
 7099TIP3    H242713   5.472   6.580   6.293 -0.3978 -0.6948 -0.6197
 7100TIP3   OH242714   1.663   0.105   6.352 -0.5309  0.0138  0.5088
 7100TIP3    H142715   1.755   0.108   6.379  0.0162  1.1734 -1.3599
 7100TIP3    H242716   1.647   0.012   6.337 -0.0232 -0.3382  1.9085
 7101TIP3   OH242717   6.512   1.860   4.066 -0.2365  0.0695  0.0536
 7101TIP3    H142718   6.495   1.914   4.143 -0.9460 -0.0911  0.0179
 7101TIP3    H242719   6.468   1.905   3.994 -0.0520 -0.0698 -0.1476
 7102TIP3   OH242720   5.850   4.804  12.933  0.4097 -0.8174 -0.1507
 7102TIP3    H142721   5.773   4.748  12.923  1.0645 -1.8219  0.3080
 7102TIP3    H242722   5.869   4.834  12.844  0.2886 -1.6613 -0.4691
 7103TIP3   OH242723   1.620   1.853   1.614 -0.0368 -0.3540 -0.4483
 7103TIP3    H142724   1.526   1.840   1.604 -0.2033  0.6542 -0.2900
 7103TIP3    H242725   1.642   1.920   1.548  0.5196 -0.4013 -0.3118
 7104TIP3   OH242726   0.192   6.338   5.019  0.2589  0.3672  0.6603
 7104TIP3    H142727   0.148   6.403   5.073  1.8174  1.8855  0.1828
 7104TIP3    H242728   0.245   6.287   5.080 -0.2282  0.1687  0.9179
 7105TIP3   OH242729   5.098   5.451   2.055  0.4601  0.0134 -0.0440
 7105TIP3    H142730   5.175   5.445   2.112  2.4182 -0.6254 -2.5424
 7105TIP3    H242731   5.078   5.544   2.052  1.7979  0.3243 -0.0957
 7106TIP3   OH242732   0.037   4.857  16.038  0.0238  0.1310  0.0982
 7106TIP3    H142733   0.122   4.815  16.049  0.1447  0.3726  0.0906
 7106TIP3    H242734   0.051   4.923  15.971 -0.7027 -1.3045 -1.5264
 7107TIP3   OH242735   2.666   1.174   0.932  0.0538  0.7295  0.4707
 7107TIP3    H142736   2.699   1.129   1.010  1.7253 -0.1743 -0.7086
 7107TIP3    H242737   2.596   1.117   0.900 -1.2356  1.5323  1.7357
 7108TIP3   OH242738   0.021   3.986   3.082  0.0173  0.3980 -0.0255
 7108TIP3    H142739   0.115   4.003   3.073  0.3135 -0.9143  0.2782
 7108TIP3    H242740   0.003   4.001   3.175 -0.3131  1.6444 -0.2720
 7109TIP3   OH242741   6.741   4.225   2.065  0.4646 -0.3799 -0.0997
 7109TIP3    H142742   6.738   4.176   2.147 -1.9682 -0.1782  0.0074
 7109TIP3    H242743   6.717   4.314   2.090 -1.3422 -0.5365 -1.1178
 7110TIP3   OH242744   0.894   3.505   5.753 -0.5823 -0.5019 -0.0638
 7110TIP3    H142745   0.814   3.453   5.756 -0.2648 -1.2706 -2.5899
 7110TIP3    H242746   0.953   3.456   5.696  0.7467  1.2734 -0.3220
 7111TIP3   OH242747   0.364   2.953   5.483  0.4400 -0.7942 -0.0607
 7111TIP3    H142748   0.362   2.900   5.403 -2.4489  1.5313 -1.7570
 7111TIP3    H242749   0.426   3.023   5.464  0.3776 -0.7066  0.0569
 7112TIP3   OH242750   2.130   1.007   5.520  0.8062  0.4798  0.0845
 7112TIP3    H142751   2.074   1.016   5.442 -0.1505  2.5851  0.9500
 7112TIP3    H242752   2.198   1.073   5.508 -0.0540  1.6888  1.5667
 7113TIP3   OH242753   3.974   6.646   3.529  0.0823 -0.2365 -0.0690
 7113TIP3    H142754   3.886   6.634   3.494 -1.1029 -0.0309  2.5830
 7113TIP3    H242755   4.012   6.715   3.475 -2.0044  0.7973 -0.3085
 7114TIP3   OH242756   3.757   3.657  15.472  0.4194  0.1158  0.3762
 7114TIP3    H142757   3.677   3.707  15.459  1.2814  1.3339 -0.5390
 7114TIP3    H242758   3.728   3.566  15.484 -1.0677  0.5033 -0.1265
 7115TIP3   OH242759   6.139   4.204  12.343 -0.3882  0.4104 -0.1040
 7115TIP3    H142760   6.133   4.146  12.418  0.0541 -1.0723 -1.1709
 7115TIP3    H242761   6.206   4.165  12.287 -2.1578  0.2705 -2.2816
 7116TIP3   OH242762   1.210   2.037   1.987  0.2151 -0.2952  0.1127
 7116TIP3    H142763   1.119   2.036   1.960  1.4203 -2.0189 -5.0253
 7116TIP3    H242764   1.248   2.112   1.941  1.7611 -0.7892  0.5280
 7117TIP3   OH242765   0.192   6.338  14.741 -0.1990 -0.6330  0.1304
 7117TIP3    H142766   0.162   6.423  14.772  0.9302 -1.0078  2.3754
 7117TIP3    H242767   0.170   6.277  14.811  0.4784 -1.9285 -0.7331
 7118TIP3   OH242768   1.744   0.563   2.315  0.2545 -0.0318  0.4361
 7118TIP3    H142769   1.673   0.543   2.254  3.1166 -1.5411 -2.7430
 7118TIP3    H242770   1.741   0.492   2.380 -0.8699 -0.2812  0.1232
 7119TIP3   OH242771   2.698   4.738   2.636 -0.4366 -0.4635  0.1911
 7119TIP3    H142772   2.639   4.699   2.572  0.4930 -2.3276  0.3883
 7119TIP3    H242773   2.759   4.791   2.583 -0.1207 -1.4066 -0.4197
 7120TIP3   OH242774   3.228   2.723  13.874  0.2328  0.4519  0.1984
 7120TIP3    H142775   3.274   2.722  13.790  0.4011 -0.6186  0.2885
 7120TIP3    H242776   3.263   2.799  13.920  2.0562 -0.3920  0.3242
 7121TIP3   OH242777   1.545   1.417   2.449 -0.2752 -0.4856  0.4925
 7121TIP3    H142778   1.498   1.334   2.456 -0.2895 -0.5781 -0.5780
 7121TIP3    H242779   1.633   1.393   2.420 -0.4757 -0.0981 -0.4969
 7122TIP3   OH242780   3.642   3.727   4.129  0.0710  0.3643 -0.0542
 7122TIP3    H142781   3.718   3.695   4.177  1.3128  1.4581 -1.1954
 7122TIP3    H242782   3.644   3.679   4.046 -0.0408  0.9138 -0.3828
 7123TIP3   OH242783   3.900   2.117  11.370 -0.0674 -0.6788 -0.2059
 7123TIP3    H142784   3.866   2.202  11.398 -0.6822 -0.0796 -2.5838
 7123TIP3    H242785   3.834   2.054  11.399 -0.9812 -0.0256 -0.8270
 7124TIP3   OH242786   5.385   3.147   0.557  0.0846 -0.0308 -0.3351
 7124TIP3    H142787   5.463   3.100   0.531 -0.6183 -0.4279 -1.8250
 7124TIP3    H242788   5.348   3.095   0.629  0.2724 -0.7801 -0.7758
 7125TIP3   OH242789   4.951   6.615  14.201  0.2327  0.1637 -0.0894
 7125TIP3    H142790   4.889   6.571  14.259 -2.3703  2.5238 -0.8340
 7125TIP3    H242791   5.011   6.662  14.260 -0.4169  0.0284  0.6952
 7126TIP3   OH242792   4.956   4.423   4.660 -0.1559 -0.0949 -0.5737
 7126TIP3    H142793   5.008   4.416   4.740 -0.3998 -1.3306 -0.5144
 7126TIP3    H242794   4.993   4.499   4.614 -1.0848  1.7092  1.4679
 7127TIP3   OH242795   2.576   2.613   5.668  0.3573  0.6637 -0.2744
 7127TIP3    H142796   2.561   2.696   5.712 -3.1586  0.0396  0.0172
 7127TIP3    H242797   2.488   2.581   5.647  1.5837 -2.7238 -0.8717
 7128TIP3   OH242798   1.244   0.963   3.207  0.6698 -0.1577  0.7452
 7128TIP3    H142799   1.230   0.944   3.114  0.8925 -1.2853  0.9205
 7128TIP3    H242800   1.273   0.879   3.243 -0.6738 -0.0747  2.0926
 7129TIP3   OH242801   1.747   6.543  15.483  0.6066  0.1448 -0.3562
 7129TIP3    H142802   1.709   6.471  15.433  0.1923 -0.0815  0.2748
 7129TIP3    H242803   1.743   6.618  15.424 -1.4902  0.3125 -0.0672
 7130TIP3   OH242804   2.897   5.743   4.357 -0.4835  0.4461  0.1619
 7130TIP3    H142805   2.980   5.781   4.329 -0.7980  0.0435 -1.4423
 7130TIP3    H242806   2.874   5.791   4.437  0.7015  1.3668 -0.0188
 7131TIP3   OH242807   3.760   4.704   4.125 -0.7411  0.6303  0.3696
 7131TIP3    H142808   3.667   4.705   4.103 -0.7450 -2.2611 -0.1277
 7131TIP3    H242809   3.764   4.678   4.217 -0.4338  0.8288  0.4157
 7132TIP3   OH242810   2.142   4.386  13.135  0.1399  0.1161 -1.0520
 7132TIP3    H142811   2.135   4.475  13.168  0.6866 -0.3313  0.3473
 7132TIP3    H242812   2.227   4.355  13.166  0.4166 -0.5624 -2.3916
 7133TIP3   OH242813   3.988   5.473  14.503 -0.2722 -0.2271 -0.0863
 7133TIP3    H142814   4.041   5.403  14.464 -0.9660 -1.3169  0.8444
 7133TIP3    H242815   3.914   5.426  14.543  0.0756  0.8873  1.9784
 7134TIP3   OH242816   6.761   0.826  12.982  0.4056 -0.1446 -0.1674
 7134TIP3    H142817   6.709   0.780  13.048 -1.9207 -1.1764 -2.5282
 7134TIP3    H242818   6.849   0.791  12.992 -0.1066 -1.0303  1.6648
 7135TIP3   OH242819   0.884   6.178   0.579 -0.0250  0.0510 -0.0909
 7135TIP3    H142820   0.930   6.133   0.650 -0.4733 -0.3031 -0.0137
 7135TIP3    H242821   0.880   6.269   0.606  1.0126  0.1778 -0.3079
 7136TIP3   OH242822   4.243   5.224   6.346  0.2935 -1.1206  0.1509
 7136TIP3    H142823   4.293   5.303   6.367 -1.5965  0.3788 -0.6378
 7136TIP3    H242824   4.303   5.168   6.298  1.1939  0.6184 -0.8122
 7137TIP3   OH242825   0.472   0.924  15.848  0.1324  0.2959 -0.3491
 7137TIP3    H142826   0.401   0.868  15.880 -0.3540  0.4117 -1.1784
 7137TIP3    H242827   0.506   0.968  15.926 -0.5378  0.0398  0.0935
 7138TIP3   OH242828   3.575   2.498   3.843 -0.1537 -0.1744 -0.4695
 7138TIP3    H142829   3.551   2.410   3.871  2.0847 -0.3931  0.9995
 7138TIP3    H242830   3.635   2.484   3.769  0.4508  0.0777 -0.0379
 7139TIP3   OH242831   0.630   4.977   1.779 -0.1518 -0.2230  0.0458
 7139TIP3    H142832   0.718   4.998   1.809 -0.2445 -0.8515  0.8068
 7139TIP3    H242833   0.601   4.907   1.838 -0.9761 -0.3521 -0.4952
 7140TIP3   OH242834   1.022   4.478  16.046 -0.3084  0.7949 -0.1874
 7140TIP3    H142835   0.945   4.513  16.001 -1.1776  0.0157  0.6383
 7140TIP3    H242836   0.999   4.387  16.067  0.2204  0.9867  1.4001
 7141TIP3   OH242837   4.703   0.299   3.990 -0.3019 -0.2823  0.0101
 7141TIP3    H142838   4.629   0.337   4.037  0.3427 -0.8083  1.5092
 7141TIP3    H242839   4.732   0.368   3.931 -0.6013  0.7115  0.9982
 7142TIP3   OH242840   6.094   6.499   4.513  0.2777  0.1410 -0.0267
 7142TIP3    H142841   6.117   6.519   4.604 -0.8329  0.8011  0.1298
 7142TIP3    H242842   6.155   6.550   4.460  0.0351  0.8470  0.3661
 7143TIP3   OH242843   6.130   4.785  11.993 -0.0755 -0.4129 -0.1947
 7143TIP3    H142844   6.216   4.747  11.977  0.1729  0.0199  0.0949
 7143TIP3    H242845   6.092   4.798  11.906 -0.0137 -0.9802 -0.3047
 7144TIP3   OH242846   1.335   4.661  14.473 -0.4464  0.6692 -0.3461
 7144TIP3    H142847   1.379   4.744  14.492  0.6152 -0.1424  0.9545
 7144TIP3    H242848   1.283   4.643  14.552  2.5562 -1.8571  1.2806
 7145TIP3   OH242849   3.824   4.102   2.293 -0.0681 -0.0423 -0.5356
 7145TIP3    H142850   3.739   4.140   2.315  0.4773  1.5712 -1.1256
 7145TIP3    H242851   3.877   4.113   2.371 -0.5157 -1.5477  0.0305
 7146TIP3   OH242852   3.936   1.828  16.699 -0.6430  0.1965  0.3665
 7146TIP3    H142853   3.849   1.859  16.673 -0.9742 -0.5300  0.5656
 7146TIP3    H242854   3.931   1.818  16.794 -0.4666 -0.2186  0.3332
 7147TIP3   OH242855   0.802   1.034   5.792  0.1490 -0.1267 -0.1815
 7147TIP3    H142856   0.867   0.967   5.815 -1.1906 -1.9839 -1.4411
 7147TIP3    H242857   0.719   1.001   5.829 -0.0708  2.5811  2.1184
 7148TIP3   OH242858   2.344   6.428  13.206 -0.0783  0.3914  0.0046
 7148TIP3    H142859   2.280   6.495  13.183  1.4106  1.7800 -0.3086
 7148TIP3    H242860   2.427   6.476  13.213  0.4324 -0.7792  3.5689
 7149TIP3   OH242861   2.167   4.938   6.265  0.1228 -0.5482 -0.1755
 7149TIP3    H142862   2.152   4.862   6.208 -2.0826  0.4187 -1.0094
 7149TIP3    H242863   2.257   4.928   6.296  0.6395 -2.3087 -2.0459
 7150TIP3   OH242864   0.495   2.595  16.408  0.2181  0.0012 -0.6302
 7150TIP3    H142865   0.514   2.678  16.364 -2.6224  1.9600  1.4497
 7150TIP3    H242866   0.432   2.552  16.351 -2.2855  1.8312  0.5344
 7151TIP3   OH242867   3.632   1.287   3.979  0.7410  0.1775  0.2757
 7151TIP3    H142868   3.642   1.206   3.930 -2.9314 -0.4977  0.3274
 7151TIP3    H242869   3.666   1.267   4.066 -0.6774 -1.5986  0.4790
 7152TIP3   OH242870   1.117   0.366  12.449  0.6546  0.0212  0.0691
 7152TIP3    H142871   1.080   0.440  12.402 -1.3960 -0.8663  0.1905
 7152TIP3    H242872   1.046   0.334  12.504  2.3691 -0.2603  2.2391
 7153TIP3   OH242873   4.515   0.544  13.500  0.2916  1.1410 -0.5628
 7153TIP3    H142874   4.507   0.555  13.406 -1.0722  2.6861 -0.3103
 7153TIP3    H242875   4.595   0.592  13.523  0.1938  1.4291 -0.8289
 7154TIP3   OH242876   6.765   3.332  15.845 -0.0327 -0.2402 -0.3672
 7154TIP3    H142877   6.754   3.312  15.752  0.0941 -2.0991 -0.0179
 7154TIP3    H242878   6.734   3.422  15.853  1.1268  0.4084 -2.4176
 7155TIP3   OH242879   0.891   2.432   5.600 -0.5519  0.2278  0.6144
 7155TIP3    H142880   0.817   2.397   5.550  0.3566  0.7665 -1.1870
 7155TIP3    H242881   0.942   2.482   5.537  0.9885  0.4761  1.9659
 7156TIP3   OH242882   0.868   5.524   4.174 -0.1279  0.1000  0.0373
 7156TIP3    H142883   0.889   5.434   4.149  0.5609  0.4484 -0.6637
 7156TIP3    H242884   0.952   5.569   4.177 -0.4734  0.7492  0.2870
 7157TIP3   OH242885   4.628   4.487   1.215  0.0101 -0.1101  0.1062
 7157TIP3    H142886   4.557   4.429   1.240 -1.2014  0.6784 -1.3348
 7157TIP3    H242887   4.604   4.573   1.250 -0.2832  0.3738 -1.1917
 7158TIP3   OH242888   4.945   3.418  16.310  0.0218 -0.1574 -0.0352
 7158TIP3    H142889   4.953   3.383  16.222 -1.5015 -3.0634  0.8663
 7158TIP3    H242890   4.867   3.472  16.308  0.6126  0.7012 -0.6851
 7159TIP3   OH242891   0.078   3.684   3.220 -0.0918 -0.5224 -0.2021
 7159TIP3    H142892   0.058   3.772   3.187 -1.1545 -0.3004  0.9613
 7159TIP3    H242893   0.054   3.626   3.147 -2.3034 -0.0395  0.0603
 7160TIP3   OH242894   3.720   3.174  14.929 -0.5448  0.1393  0.2204
 7160TIP3    H142895   3.644   3.134  14.972 -0.7492  2.2618  2.0027
 7160TIP3    H242896   3.792   3.115  14.950 -1.6338 -2.0890 -1.7751
 7161TIP3   OH242897   4.741   6.489  14.367 -0.5475  0.1748 -0.2689
 7161TIP3    H142898   4.661   6.529  14.333 -1.2647 -2.0904 -1.4631
 7161TIP3    H242899   4.767   6.427  14.299  1.3210 -0.3176  0.8272
 7162TIP3   OH242900   0.096   4.688  14.058  0.6505  0.0778 -0.2257
 7162TIP3    H142901   0.012   4.724  14.086  0.1045 -0.9535 -0.4796
 7162TIP3    H242902   0.088   4.680  13.963  1.2431  0.4660 -0.3170
 7163TIP3   OH242903   5.378   4.682   5.838 -0.0484  0.3665 -0.4328
 7163TIP3    H142904   5.323   4.635   5.776  0.0873 -0.3060 -0.0529
 7163TIP3    H242905   5.454   4.710   5.787 -0.2784  0.4338 -0.7334
 7164TIP3   OH242906   2.549   6.780  11.212  0.7138 -0.2653 -0.2713
 7164TIP3    H142907   2.483   6.791  11.280  1.3099 -2.0829  0.6665
 7164TIP3    H242908   2.552   6.865  11.168 -0.2114  0.7493  1.4943
 7165TIP3   OH242909   6.138   2.502   5.696  0.0051 -0.5539  0.0878
 7165TIP3    H142910   6.166   2.560   5.767  1.5995 -1.9474  0.6582
 7165TIP3    H242911   6.133   2.559   5.620 -1.8174  1.0088  1.2603
 7166TIP3   OH242912   1.513   6.291  11.625  0.2742  0.1074  0.1169
 7166TIP3    H142913   1.423   6.289  11.592  0.1006 -0.4380  0.5944
 7166TIP3    H242914   1.566   6.314  11.549 -0.1025 -1.2214 -0.5917
 7167TIP3   OH242915   2.083   0.398  11.926 -0.1688  0.1592 -0.0982
 7167TIP3    H142916   2.057   0.309  11.901  0.9409  0.4908 -2.9019
 7167TIP3    H242917   2.001   0.446  11.934 -0.7315 -0.8396  0.2864
 7168TIP3   OH242918   2.805   6.002  15.505 -0.9075 -0.1558  0.4296
 7168TIP3    H142919   2.866   5.928  15.510  0.7988  1.2008  0.7466
 7168TIP3    H242920   2.721   5.962  15.483  0.1027 -2.1063 -0.1673
 7169TIP3   OH242921   4.644   3.918  16.658  0.4328  0.2624 -0.0093
 7169TIP3    H142922   4.596   3.966  16.725  0.9267  0.4730  0.1970
 7169TIP3    H242923   4.681   3.843  16.703  0.4878  0.2237 -0.1176
 7170TIP3   OH242924   1.791   3.245   2.057 -0.0992 -0.0260  0.1181
 7170TIP3    H142925   1.813   3.247   2.150  1.0442  0.2698 -0.1467
 7170TIP3    H242926   1.704   3.205   2.054 -0.4320  0.5499  1.3648
 7171TIP3   OH242927   0.942   4.044  15.184 -0.4660 -0.3423  0.8924
 7171TIP3    H142928   0.918   4.098  15.259 -1.9707  1.6436 -0.8880
 7171TIP3    H242929   0.869   4.054  15.123  1.8819  0.4493 -2.0128
 7172TIP3   OH242930   4.592   1.999  11.153  0.0924  0.2310  0.2010
 7172TIP3    H142931   4.520   2.059  11.131  0.1814  0.9545  1.7737
 7172TIP3    H242932   4.665   2.029  11.098 -0.5978 -0.1023 -0.9307
 7173TIP3   OH242933   1.825   5.254   6.278  0.0717  0.3067 -0.3283
 7173TIP3    H142934   1.848   5.166   6.307  2.0247  0.7982 -0.2482
 7173TIP3    H242935   1.908   5.302   6.277 -0.7157  1.7588 -1.7353
 7174TIP3   OH242936   2.686   6.302   2.621 -0.0991 -0.4474  0.0488
 7174TIP3    H142937   2.714   6.393   2.631  0.7230  0.1484 -5.0379
 7174TIP3    H242938   2.591   6.305   2.628 -0.0303  0.5912  0.7264
 7175TIP3   OH242939   2.936   3.442   4.322  0.2857  0.5485 -0.2714
 7175TIP3    H142940   2.841   3.451   4.328  0.2466  0.7332 -1.0580
 7175TIP3    H242941   2.971   3.523   4.360  0.0798  1.2417 -1.5116
 7176TIP3   OH242942   4.007   3.237   5.048 -0.3230 -0.0422  0.5522
 7176TIP3    H142943   4.054   3.320   5.039  1.6158 -0.8297  2.4899
 7176TIP3    H242944   3.965   3.242   5.133 -1.1948 -0.5904  0.1664
 7177TIP3   OH242945   3.394   2.023   1.339 -0.2325 -0.2026  0.2597
 7177TIP3    H142946   3.385   2.036   1.245 -1.3020 -0.0778  0.3642
 7177TIP3    H242947   3.484   1.992   1.351 -0.0668 -0.1588 -0.7867
 7178TIP3   OH242948   3.739   5.638   4.912 -0.2096  0.3967  0.3139
 7178TIP3    H142949   3.645   5.620   4.922 -0.1754  0.0738  0.0866
 7178TIP3    H242950   3.742   5.717   4.859 -0.3547  0.4987  0.4548
 7179TIP3   OH242951   5.189   1.336  13.088  0.5148 -0.1291  0.1790
 7179TIP3    H142952   5.170   1.394  13.161 -1.1997 -0.0205 -0.3062
 7179TIP3    H242953   5.201   1.394  13.013 -0.7485 -0.3332 -0.2134
 7180TIP3   OH242954   5.702   5.460  12.714 -0.8181  0.1595 -0.1509
 7180TIP3    H142955   5.652   5.503  12.644  1.4532  1.7592 -0.8941
 7180TIP3    H242956   5.670   5.500  12.794 -0.8095  1.0869 -0.6038
 7181TIP3   OH242957   0.882   5.967   1.433  0.2032  0.2916 -0.2145
 7181TIP3    H142958   0.932   6.002   1.508  1.3221  1.5401 -1.4855
 7181TIP3    H242959   0.938   5.898   1.397 -1.4171 -2.0669  1.4781
 7182TIP3   OH242960   5.918   3.703  11.403  0.4750 -0.4457  0.6945
 7182TIP3    H142961   6.001   3.714  11.449  1.5540 -0.4540 -1.1325
 7182TIP3    H242962   5.940   3.647  11.328 -1.5360 -1.7891  1.0323
 7183TIP3   OH242963   0.089   3.827   2.775 -0.9574 -0.1506 -0.0542
 7183TIP3    H142964   0.051   3.862   2.856 -2.4547 -0.8449 -0.4341
 7183TIP3    H242965   0.035   3.863   2.705  0.2042  0.2745 -0.7618
 7184TIP3   OH242966   4.875   1.906   4.804  0.1375 -0.2968 -0.1613
 7184TIP3    H142967   4.947   1.843   4.807  0.4026  0.0138  0.0263
 7184TIP3    H242968   4.903   1.972   4.740 -0.4283 -0.7141 -0.8588
 7185TIP3   OH242969   0.528   4.016  13.319 -0.3791  0.2464  0.7654
 7185TIP3    H142970   0.609   4.008  13.268 -1.2190 -0.4169 -0.5072
 7185TIP3    H242971   0.558   4.024  13.409  1.0814 -3.4421  0.7798
 7186TIP3   OH242972   0.835   5.722  16.938  0.0066 -0.1463  0.1191
 7186TIP3    H142973   0.772   5.654  16.960  0.5426 -0.8292 -0.4096
 7186TIP3    H242974   0.911   5.704  16.993  1.2658 -1.7289 -2.0067
 7187TIP3   OH242975   5.879   5.301  13.663 -0.8516 -0.5009 -0.4979
 7187TIP3    H142976   5.904   5.365  13.730 -1.5968  1.7443 -2.2350
 7187TIP3    H242977   5.908   5.339  13.581 -4.1331 -0.7853 -1.9582
 7188TIP3   OH242978   0.743   2.461  16.067 -0.6724  0.1375  0.7032
 7188TIP3    H142979   0.686   2.399  16.113 -1.0891  0.9983  1.3786
 7188TIP3    H242980   0.686   2.535  16.048 -0.0577  0.5163  0.3197
 7189TIP3   OH242981   6.502   2.964  14.927  0.1652  0.6896 -0.0830
 7189TIP3    H142982   6.438   2.918  14.980 -0.0974 -0.0054 -0.9787
 7189TIP3    H242983   6.580   2.908  14.930 -0.4086 -0.2677 -1.8241
 7190TIP3   OH242984   0.541   5.010   5.735  0.1479 -0.4191 -0.8636
 7190TIP3    H142985   0.570   5.006   5.644  1.6713  0.1573 -0.4377
 7190TIP3    H242986   0.549   4.921   5.767  0.3447 -0.4858 -1.0948
 7191TIP3   OH242987   4.213   2.123   5.995  0.2511 -0.1509  0.6375
 7191TIP3    H142988   4.307   2.121   6.014  0.0392  2.3767  2.3765
 7191TIP3    H242989   4.177   2.185   6.058 -2.4337 -0.1445 -0.7648
 7192TIP3   OH242990   3.724   6.054  14.098 -0.3715 -0.5782 -0.1524
 7192TIP3    H142991   3.721   5.963  14.069  1.5118 -0.7255 -0.0339
 7192TIP3    H242992   3.653   6.097  14.051 -0.5740 -1.8721 -1.0817
 7193TIP3   OH242993   0.163   1.726   0.200  0.0221 -0.6579  0.8462
 7193TIP3    H142994   0.144   1.633   0.186  3.7927 -1.3000 -1.2464
 7193TIP3    H242995   0.104   1.772   0.140 -1.6417 -1.6336  1.6488
 7194TIP3   OH242996   0.774   5.956   6.043 -0.1121  0.0721 -0.0972
 7194TIP3    H142997   0.816   5.975   6.127 -2.0359 -0.0661  0.9629
 7194TIP3    H242998   0.822   6.009   5.980  1.9309 -0.4616  0.9318
 7195TIP3   OH242999   5.159   4.341  12.355  0.0178  0.0071 -0.0856
 7195TIP3    H143000   5.203   4.366  12.437  0.4937 -0.3625 -0.2271
 7195TIP3    H243001   5.068   4.327  12.381 -0.2364  1.6385  0.0580
 7196TIP3   OH243002   2.168   5.261   0.663  0.6674  0.2265  0.1696
 7196TIP3    H143003   2.091   5.312   0.636 -0.4043 -2.0438 -1.3551
 7196TIP3    H243004   2.231   5.273   0.593 -0.2930 -1.8751 -1.1471
 7197TIP3   OH243005   1.853   2.777   0.100 -0.2197 -0.6196  0.4513
 7197TIP3    H143006   1.823   2.723   0.173 -2.2960  0.7675  0.7041
 7197TIP3    H243007   1.806   2.743   0.023 -0.1439 -0.3380  0.2770
 7198TIP3   OH243008   5.273   0.718   0.795 -0.3446 -0.1559  0.7241
 7198TIP3    H143009   5.214   0.648   0.766  0.3739 -0.8415  0.9083
 7198TIP3    H243010   5.216   0.779   0.842 -1.9578  1.8378 -3.3004
 7199TIP3   OH243011   4.422   1.236   5.989 -0.1193 -0.5394 -0.6196
 7199TIP3    H143012   4.349   1.296   5.974 -0.5488 -0.4739  1.3633
 7199TIP3    H243013   4.413   1.211   6.082  1.1231 -2.2232 -0.9046
 7200TIP3   OH243014   2.721   4.837  11.737  0.0337  0.1579  0.1556
 7200TIP3    H143015   2.787   4.822  11.805 -1.7069  1.3423  2.2616
 7200TIP3    H243016   2.664   4.761  11.743  0.9139 -0.6558 -1.3611
 7201TIP3   OH243017   6.221   2.673   5.879 -0.1809 -0.0740 -0.3246
 7201TIP3    H143018   6.237   2.717   5.963  1.2418 -0.2690 -0.4752
 7201TIP3    H243019   6.143   2.717   5.844 -0.1036  0.8114  0.5600
 7202TIP3   OH243020   3.488   4.939  16.008 -0.7631  0.0561 -0.3932
 7202TIP3    H143021   3.428   4.876  16.047 -1.7192  1.4594  0.4775
 7202TIP3    H243022   3.439   5.021  16.006  0.9706  1.1429 -0.0819
 7203TIP3   OH243023   4.543   6.494   2.685 -0.0961  0.2338  0.3372
 7203TIP3    H143024   4.603   6.559   2.648  1.5866 -0.9381  0.8767
 7203TIP3    H243025   4.516   6.442   2.609 -1.5101  1.5608 -0.1079
 7204TIP3   OH243026   6.131   6.567  14.698  0.3797 -0.2517 -0.2619
 7204TIP3    H143027   6.204   6.591  14.641 -0.7119  0.3260 -1.4713
 7204TIP3    H243028   6.052   6.587  14.647 -0.6391 -1.6222  0.6711
 7205TIP3   OH243029   4.726   0.384   4.462 -0.1511  0.5173  0.3923
 7205TIP3    H143030   4.751   0.324   4.533 -1.7800  2.1294  2.4771
 7205TIP3    H243031   4.801   0.384   4.403  1.0421 -1.3822  1.7743
 7206TIP3   OH243032   3.518   6.627   3.592 -0.3010 -0.5004 -0.7231
 7206TIP3    H143033   3.542   6.711   3.631  0.5862 -0.9751 -0.2080
 7206TIP3    H243034   3.447   6.594   3.647 -1.7850  0.6220 -1.8753
 7207TIP3   OH243035   6.666   4.691  11.453 -0.7817  0.5741  0.1089
 7207TIP3    H143036   6.662   4.607  11.406  2.1781  0.5179 -0.2050
 7207TIP3    H243037   6.711   4.750  11.393 -1.2173  1.8795  1.0315
 7208TIP3   OH243038   0.916   4.545  16.898  0.0025 -0.4230  0.4910
 7208TIP3    H143039   0.876   4.586  16.822  1.2608 -1.5290 -0.8164
 7208TIP3    H243040   0.885   4.454  16.896 -1.2063 -0.1084  2.2354
 7209TIP3   OH243041   4.037   5.312  12.129 -0.1847 -0.5232  0.4955
 7209TIP3    H143042   4.040   5.281  12.039 -3.8458  0.8534 -0.2724
 7209TIP3    H243043   4.117   5.363  12.140  1.4023 -2.4880 -1.1808
 7210TIP3   OH243044   3.801   3.421  12.038  0.3935 -1.3976  0.1940
 7210TIP3    H143045   3.711   3.452  12.026  1.0391  0.4150 -0.2916
 7210TIP3    H243046   3.798   3.369  12.119 -0.7458  0.0635  1.1329
 7211TIP3   OH243047   6.753   3.828   3.803  0.7903  0.2151 -0.5494
 7211TIP3    H143048   6.826   3.857   3.748  0.4728  0.9170 -0.6093
 7211TIP3    H243049   6.706   3.908   3.825 -0.4046 -0.3040 -1.1307
 7212TIP3   OH243050   3.531   0.978  14.200 -0.6162  0.1177 -0.6631
 7212TIP3    H143051   3.581   0.903  14.167 -0.3417 -0.2526  0.5539
 7212TIP3    H243052   3.552   1.049  14.140  2.1479  0.2493  0.3063
 7213TIP3   OH243053   5.242   2.896  11.992 -0.3194 -0.2016  0.1409
 7213TIP3    H143054   5.165   2.842  11.975 -0.1471 -0.4693  0.2014
 7213TIP3    H243055   5.229   2.974  11.938 -2.0215  1.0981  2.3003
 7214TIP3   OH243056   2.866   1.450  12.473 -0.0934 -0.2455 -0.0800
 7214TIP3    H143057   2.791   1.488  12.427 -0.1458 -0.7319 -0.4072
 7214TIP3    H243058   2.937   1.512  12.458  0.3042 -1.1097 -2.1364
 7215TIP3   OH243059   5.906   1.299   4.712 -0.4576 -0.0230 -0.5310
 7215TIP3    H143060   5.952   1.216   4.724  1.7248  0.8430 -2.1383
 7215TIP3    H243061   5.891   1.332   4.801  0.8226 -1.0225  0.0861
 7216TIP3   OH243062   5.478   0.960  11.031  0.0454  0.0605 -0.3593
 7216TIP3    H143063   5.434   1.002  11.106 -0.9425 -0.2096 -0.7756
 7216TIP3    H243064   5.570   0.958  11.056 -0.4067 -1.0692  1.3736
 7217TIP3   OH243065   5.143   4.992   2.243  0.6280  0.2469  0.0876
 7217TIP3    H143066   5.125   5.026   2.156  1.4982 -1.7552 -0.9410
 7217TIP3    H243067   5.238   4.991   2.250  0.5955 -0.7265  0.5801
 7218TIP3   OH243068   3.065   6.180   4.969 -0.3188  0.1447 -0.9400
 7218TIP3    H143069   2.998   6.123   4.932 -0.7274 -2.3686  3.0664
 7218TIP3    H243070   3.036   6.269   4.949 -3.4013 -0.9192 -1.6409
 7219TIP3   OH243071   3.395   2.789   0.700 -0.0821 -0.0843  0.5407
 7219TIP3    H143072   3.411   2.878   0.669 -1.0151  0.2380  0.9435
 7219TIP3    H243073   3.371   2.740   0.622  1.3963 -0.2414  0.1559
 7220TIP3   OH243074   6.460   6.393  16.221 -0.4495  0.3444 -0.2587
 7220TIP3    H143075   6.406   6.314  16.223  0.0842 -0.0186  1.2633
 7220TIP3    H243076   6.550   6.361  16.233 -0.2082  1.1619  0.1781
 7221TIP3   OH243077   2.279   1.645  13.504 -0.2428  0.3187 -0.4969
 7221TIP3    H143078   2.252   1.652  13.595  1.3492 -2.4056  0.3138
 7221TIP3    H243079   2.200   1.620  13.457 -1.1234  1.9511  0.0599
 7222TIP3   OH243080   5.554   5.570   1.619 -0.5164  0.1741 -0.0952
 7222TIP3    H143081   5.528   5.602   1.705 -1.5507  0.0229 -0.3448
 7222TIP3    H243082   5.522   5.480   1.615 -0.1700  0.0603 -0.5083
 7223TIP3   OH243083   4.304   0.426  12.875 -0.0042 -0.4584  0.3367
 7223TIP3    H143084   4.263   0.512  12.870  0.2055 -0.4201 -2.7981
 7223TIP3    H243085   4.260   0.382  12.948 -1.3092  1.6833  0.9103
 7224TIP3   OH243086   2.078   1.591  11.405 -1.3641  0.5191 -0.3052
 7224TIP3    H143087   2.152   1.651  11.408 -1.4509  0.6113 -0.0354
 7224TIP3    H243088   2.106   1.522  11.345 -0.2941 -0.4543  1.2381
 7225TIP3   OH243089   4.852   6.109  13.085  0.3168  0.2924 -0.9470
 7225TIP3    H143090   4.906   6.188  13.090 -1.3294  1.4425 -0.6805
 7225TIP3    H243091   4.828   6.091  13.176 -0.1965  0.1081 -1.1208
 7226TIP3   OH243092   1.648   1.777  12.242  0.6763 -0.0063 -0.4374
 7226TIP3    H143093   1.732   1.810  12.274  0.0136  1.5509 -0.2259
 7226TIP3    H243094   1.618   1.843  12.181 -0.5508 -0.3894 -0.2664
 7227TIP3   OH243095   0.318   5.630  11.641 -0.2700 -0.2474  0.0552
 7227TIP3    H143096   0.289   5.715  11.609  3.2208  1.1585  0.1744
 7227TIP3    H243097   0.262   5.612  11.716 -1.4223  1.7035 -0.2652
 7228TIP3   OH243098   5.757   4.158  11.711  0.0336  0.6972  0.1941
 7228TIP3    H143099   5.770   4.085  11.650  0.1624  0.3928  0.5866
 7228TIP3    H243100   5.802   4.131  11.790 -1.6536  0.2751  1.0678
 7229TIP3   OH243101   4.303   1.518  13.346  0.6567  0.4050  0.4255
 7229TIP3    H143102   4.245   1.576  13.396 -1.0250 -1.5199  0.8487
 7229TIP3    H243103   4.336   1.573  13.275 -1.9442  1.5823  0.0022
 7230TIP3   OH243104   3.585   3.098  16.194  0.2070 -0.7045  0.1654
 7230TIP3    H143105   3.621   3.020  16.152 -4.0361 -2.8508 -0.0654
 7230TIP3    H243106   3.578   3.075  16.287 -1.2888 -0.8119  0.0619
 7231TIP3   OH243107   3.727   3.518  14.086  0.4076  0.2676  0.3715
 7231TIP3    H143108   3.677   3.559  14.157 -1.5823  0.4078 -1.0282
 7231TIP3    H243109   3.683   3.547  14.006  2.6112  0.1658 -0.9577
 7232TIP3   OH243110   2.265   3.916   3.899  0.2824 -0.3163 -0.0516
 7232TIP3    H143111   2.304   3.876   3.978  2.2141  0.9507 -0.3077
 7232TIP3    H243112   2.266   3.845   3.835  0.1536 -0.9268  0.5975
 7233TIP3   OH243113   0.033   1.515  13.325  0.0395 -0.1772  0.1927
 7233TIP3    H143114  -0.006   1.432  13.350  1.4659 -0.4085  1.8927
 7233TIP3    H243115   0.104   1.491  13.265 -0.7971  0.0347 -0.9301
 7234TIP3   OH243116   5.207   4.265   5.932  1.1667 -0.3936  0.2418
 7234TIP3    H143117   5.128   4.223   5.966  0.7129  0.6333  0.5076
 7234TIP3    H243118   5.199   4.257   5.837  1.6971 -1.9616  0.3030
 7235TIP3   OH243119   2.698   4.022  10.858 -0.3471 -0.6419  0.0241
 7235TIP3    H143120   2.731   3.952  10.913 -0.4658  0.5828  1.7260
 7235TIP3    H243121   2.637   4.070  10.913  0.7021  1.5734 -0.6144
 7236TIP3   OH243122   3.927   3.152   4.799  0.1861  0.3240  0.0492
 7236TIP3    H143123   3.904   3.220   4.737  2.5741  0.5220 -0.7224
 7236TIP3    H243124   3.969   3.199   4.871  0.6067 -0.2070  0.1572
 7237TIP3   OH243125   0.269   3.751   3.697  0.4091 -0.6562 -0.1292
 7237TIP3    H143126   0.217   3.830   3.681  1.6094  0.3367  0.6410
 7237TIP3    H243127   0.254   3.696   3.620 -3.6146 -1.5229  1.0234
 7238TIP3   OH243128   6.112   5.957   0.202 -0.3519  0.2845 -0.5137
 7238TIP3    H143129   6.029   5.981   0.160  0.2375  0.0253 -1.8839
 7238TIP3    H243130   6.178   6.010   0.157  0.1597  1.0530  1.0826
 7239TIP3   OH243131   5.512   5.099   2.720 -0.4946  0.1591 -0.2412
 7239TIP3    H143132   5.497   5.146   2.637  1.3787 -0.5649 -1.0588
 7239TIP3    H243133   5.581   5.150   2.763 -0.8151  0.0196  0.4305
 7240TIP3   OH243134   5.689   0.956   0.814  0.6053 -0.0437 -0.3852
 7240TIP3    H143135   5.662   0.956   0.722  1.6131 -0.4081 -0.6900
 7240TIP3    H243136   5.689   0.863   0.839  1.4206 -0.0345 -0.3454
 7241TIP3   OH243137   1.504   0.376   1.903  0.1580 -0.2413  0.3877
 7241TIP3    H143138   1.438   0.325   1.857 -0.9189 -0.4225  2.0549
 7241TIP3    H243139   1.528   0.445   1.841 -0.3543 -1.1425 -0.8718
 7242TIP3   OH243140   6.591   2.168  16.049  0.3092  0.1529  0.3943
 7242TIP3    H143141   6.685   2.169  16.034  0.3898  1.2638  0.8098
 7242TIP3    H243142   6.555   2.229  15.985 -0.3049 -1.2596 -0.6529
 7243TIP3   OH243143   2.250   6.059   2.787 -0.5965  0.2542 -0.7741
 7243TIP3    H143144   2.247   6.119   2.713  0.5533  0.0006 -1.0493
 7243TIP3    H243145   2.257   6.115   2.864 -1.3802  0.5061 -0.8738
 7244TIP3   OH243146   4.438   3.317  16.544 -0.4706  0.2216  0.1024
 7244TIP3    H143147   4.455   3.262  16.620  0.2115  0.2035 -0.0613
 7244TIP3    H243148   4.501   3.288  16.478 -1.1379  0.1401 -0.5262
 7245TIP3   OH243149   3.579   6.519  15.416 -0.0900 -0.5329  0.7339
 7245TIP3    H143150   3.506   6.552  15.364  0.7549  1.8004  0.9246
 7245TIP3    H243151   3.547   6.517  15.505  0.0268  0.4375  0.8092
 7246TIP3   OH243152   3.721   2.051  16.543 -0.0846 -0.2545 -0.2098
 7246TIP3    H143153   3.719   1.956  16.526  1.2295 -0.2346 -0.5788
 7246TIP3    H243154   3.727   2.090  16.456  2.8179  0.0053  0.0320
 7247TIP3   OH243155   6.617   6.329   1.500  0.2392  0.1773 -0.4667
 7247TIP3    H143156   6.568   6.317   1.418  1.2477  0.3586 -1.1104
 7247TIP3    H243157   6.686   6.263   1.497  0.0899 -0.0302  0.4012
 7248TIP3   OH243158   6.084   0.276  11.007 -0.1190  0.0574 -0.1103
 7248TIP3    H143159   6.154   0.240  10.952 -1.0649 -1.5861 -0.3084
 7248TIP3    H243160   6.127   0.302  11.088  1.0993  1.3789 -1.1260
 7249TIP3   OH243161   5.316   3.571  16.352 -0.3230  0.4251  0.3203
 7249TIP3    H143162   5.393   3.625  16.335  0.9936 -1.1440  0.9731
 7249TIP3    H243163   5.256   3.591  16.280  2.2646 -1.0786 -2.4957
 7250TIP3   OH243164   3.519   3.010   5.326 -0.4543  0.3147  0.1849
 7250TIP3    H143165   3.440   3.013   5.272  0.2870 -3.0805 -1.3750
 7250TIP3    H243166   3.520   2.921   5.362  1.7267  0.8463  1.6314
 7251TIP3   OH243167   4.026   2.157  16.871 -0.2249 -0.0948  0.5360
 7251TIP3    H143168   4.046   2.248  16.894 -1.1635 -0.0012  1.0635
 7251TIP3    H243169   4.027   2.110  16.954  2.2356 -1.0199  0.0626
 7252TIP3   OH243170   4.026   1.119   5.182  0.0747 -0.2736  0.0268
 7252TIP3    H143171   4.047   1.030   5.209 -1.9448 -1.0956 -0.9489
 7252TIP3    H243172   3.988   1.159   5.260  0.1503 -0.5523  0.2097
 7253TIP3   OH243173   1.182   0.409  14.028  0.2195 -0.6514  0.2420
 7253TIP3    H143174   1.103   0.430  14.079  0.7657  1.7223  0.2414
 7253TIP3    H243175   1.154   0.339  13.969 -1.9013  0.1089  0.2390
 7254TIP3   OH243176   0.544   3.655   2.844  0.6380  0.4700 -0.5928
 7254TIP3    H143177   0.625   3.629   2.890  0.9812 -0.3141 -1.5876
 7254TIP3    H243178   0.478   3.658   2.913  1.2039 -0.3714  0.0223
 7255TIP3   OH243179   0.955   5.963   4.815  0.2098 -0.4807  0.5199
 7255TIP3    H143180   0.985   5.923   4.734 -1.0199 -0.5179  0.0603
 7255TIP3    H243181   1.035   5.990   4.860  0.9116  1.9771 -1.9055
 7256TIP3   OH243182   1.828   5.748  11.852 -0.0623 -0.1490 -0.1837
 7256TIP3    H143183   1.779   5.830  11.855 -1.0697 -0.6968 -0.8613
 7256TIP3    H243184   1.802   5.702  11.933  0.3573  0.1103  0.1028
 7257TIP3   OH243185   4.144   2.396  16.991  0.5550  0.2278  0.3978
 7257TIP3    H143186   4.155   2.489  16.967  0.2011  0.2315  0.2427
 7257TIP3    H243187   4.218   2.377  17.047 -0.4114  1.1569  2.0753
 7258TIP3   OH243188   6.305   2.999  10.999  0.2386  0.5405  0.1051
 7258TIP3    H143189   6.289   2.943  10.923  0.1691 -1.0965  1.2616
 7258TIP3    H243190   6.219   3.009  11.040  0.6599 -0.8778  1.4332
 7259TIP3   OH243191   0.586   5.080   2.159  0.4401 -0.1238  0.4087
 7259TIP3    H143192   0.562   5.005   2.214  0.0996  0.2953  0.8413
 7259TIP3    H243193   0.517   5.085   2.093  1.3662 -1.2324 -0.6920
 7260TIP3   OH243194   0.033   1.670   4.193 -0.8207 -0.0459 -0.4579
 7260TIP3    H143195  -0.002   1.615   4.263 -2.0180  0.8140 -0.3644
 7260TIP3    H243196   0.128   1.663   4.203 -0.9454  0.6015  1.7080
 7261TIP3   OH243197   0.745   0.291  16.431 -0.1549 -0.3877 -0.0668
 7261TIP3    H143198   0.694   0.248  16.362  0.2257 -0.9645  0.0029
 7261TIP3    H243199   0.736   0.233  16.506  0.7771 -0.6056 -0.1184
 7262TIP3   OH243200   2.028   2.122  11.648 -0.1607 -0.2623 -0.0977
 7262TIP3    H143201   1.979   2.044  11.672  0.9285 -1.1766 -0.7571
 7262TIP3    H243202   2.032   2.120  11.552 -0.4571  0.8255 -0.1484
 7263TIP3   OH243203   2.657   5.179   0.661 -0.1069  0.0780  0.2709
 7263TIP3    H143204   2.598   5.120   0.617 -1.8882  1.9667 -0.0231
 7263TIP3    H243205   2.640   5.265   0.621  4.3687  0.4661 -1.3887
 7264TIP3   OH243206   6.165   1.306  10.633 -0.6076  0.0751 -0.4909
 7264TIP3    H143207   6.087   1.306  10.689 -1.3925  0.8157 -1.5337
 7264TIP3    H243208   6.237   1.327  10.692 -1.0957 -1.2004  0.6024
 7265TIP3   OH243209   0.012   2.368  16.183  0.3179  0.5934  0.1277
 7265TIP3    H143210   0.061   2.296  16.142 -1.2730 -1.2371  1.2638
 7265TIP3    H243211   0.078   2.434  16.204  1.8839 -0.6414 -0.7282
 7266TIP3   OH243212   2.531   0.940  14.157 -0.5740  0.2478 -0.2791
 7266TIP3    H143213   2.618   0.971  14.132  0.3392 -1.2109  0.9230
 7266TIP3    H243214   2.533   0.938  14.252 -2.1135  0.6284 -0.2114
 7267TIP3   OH243215   1.547   4.793   1.470 -0.5782  0.0552 -0.1731
 7267TIP3    H143216   1.496   4.713   1.461 -0.5871  0.0906 -0.4464
 7267TIP3    H243217   1.600   4.797   1.391 -1.0009  0.6156 -0.4306
 7268TIP3   OH243218   6.746   3.239  13.474  0.0145 -0.1142  0.2680
 7268TIP3    H143219   6.742   3.335  13.470 -0.8343 -0.1067  0.8541
 7268TIP3    H243220   6.794   3.221  13.555 -0.0862 -0.1804  0.3132
 7269TIP3   OH243221   6.501   0.862  14.712  0.3016  0.3135  0.1331
 7269TIP3    H143222   6.589   0.835  14.685  0.7115  0.6331  1.1094
 7269TIP3    H243223   6.510   0.888  14.803 -1.0298 -0.7268  0.6069
 7270TIP3   OH243224   2.745   2.632   5.419  0.5209 -0.3680  0.2526
 7270TIP3    H143225   2.706   2.613   5.505  0.0320 -1.3195 -0.1679
 7270TIP3    H243226   2.699   2.573   5.359  1.7725 -0.6406 -0.4498
 7271TIP3   OH243227   5.302   3.218   2.980  0.4715  0.0133  0.5566
 7271TIP3    H143228   5.390   3.255   2.974  0.8536 -0.7901  1.0610
 7271TIP3    H243229   5.247   3.280   2.931  1.6438 -0.5875 -1.6577
 7272TIP3   OH243230   4.605   1.765  12.243  0.5082 -0.2441  0.0106
 7272TIP3    H143231   4.601   1.687  12.298  2.0889  0.1240  0.6964
 7272TIP3    H243232   4.660   1.826  12.292 -1.4569  1.7125 -0.0445
 7273TIP3   OH243233   0.275   3.494   0.079  0.6549 -0.4582 -0.4190
 7273TIP3    H143234   0.320   3.477   0.162  1.3831  0.9256 -0.4905
 7273TIP3    H243235   0.255   3.407   0.044  0.9114 -1.0708  0.8931
 7274TIP3   OH243236   3.888   0.815   4.574  0.0385  0.1531  0.5320
 7274TIP3    H143237   3.849   0.806   4.487 -0.5470 -0.9907  0.8858
 7274TIP3    H243238   3.853   0.898   4.607 -0.3016  0.2475 -0.0417
 7275TIP3   OH243239   3.972   0.142   4.829  0.1867 -0.1179 -0.1479
 7275TIP3    H143240   3.982   0.237   4.834  0.4648 -0.1170 -0.6978
 7275TIP3    H243241   3.877   0.128   4.820 -0.3507 -0.0677  3.5375
 7276TIP3   OH243242   3.748   4.672  17.173 -0.3230  0.6605 -0.0167
 7276TIP3    H143243   3.767   4.626  17.092 -2.7394  1.8272 -1.3961
 7276TIP3    H243244   3.831   4.711  17.199  1.3775 -2.7703  0.2093
 7277TIP3   OH243245   6.649   1.817   3.318 -0.4026 -0.0198  0.2998
 7277TIP3    H143246   6.731   1.859   3.343 -0.8953 -0.1901  2.3440
 7277TIP3    H243247   6.607   1.879   3.258 -1.0556  2.4752  3.0995
 7278TIP3   OH243248   5.356   2.274   2.496  0.3826  0.2266  0.2676
 7278TIP3    H143249   5.328   2.348   2.442  0.0150  0.0963  0.2769
 7278TIP3    H243250   5.328   2.196   2.448 -0.9722  0.1180  1.1623
 7279TIP3   OH243251   1.611   3.165  13.909 -0.0980 -0.8291 -0.0711
 7279TIP3    H143252   1.668   3.181  13.834 -0.7491 -0.0255 -0.4139
 7279TIP3    H243253   1.669   3.172  13.985  0.1107  1.0178 -0.3456
 7280TIP3   OH243254   2.253   1.460  11.605 -0.0883 -0.0807 -0.4477
 7280TIP3    H143255   2.177   1.502  11.564  0.5374  1.2852 -0.2524
 7280TIP3    H243256   2.328   1.488  11.552  0.7334  1.6724  1.5230
 7281TIP3   OH243257   3.779   3.194   2.627  0.1588 -0.2722  0.0837
 7281TIP3    H143258   3.862   3.207   2.582  0.9534 -1.3592  1.1502
 7281TIP3    H243259   3.754   3.104   2.605 -0.8605  0.1231 -0.4132
 7282TIP3   OH243260   1.059   1.737  13.054 -0.2707  0.0430  0.7568
 7282TIP3    H143261   1.019   1.718  13.139  2.0201 -2.4227  1.4246
 7282TIP3    H243262   1.005   1.689  12.992 -0.4514 -0.3222  1.1868
 7283TIP3   OH243263   0.913   2.441  12.081  0.3405 -0.0473 -0.0040
 7283TIP3    H143264   0.934   2.516  12.026  0.9378  0.2198  0.5837
 7283TIP3    H243265   0.840   2.471  12.136 -0.7820 -0.5646 -1.1650
 7284TIP3   OH243266   4.078   1.667   1.659  0.0965  0.1055  0.2945
 7284TIP3    H143267   4.046   1.579   1.675 -0.5355  0.1724 -0.5023
 7284TIP3    H243268   4.173   1.660   1.663  0.1490 -1.0677 -1.8902
 7285TIP3   OH243269   4.242   4.701  14.129 -0.6160  0.0487  0.0796
 7285TIP3    H143270   4.215   4.718  14.219 -0.2029  0.2121  0.1722
 7285TIP3    H243271   4.326   4.656  14.137 -0.3844  0.4207 -0.2346
 7286TIP3   OH243272   4.591   1.158   3.657  0.3612  0.3028 -0.0798
 7286TIP3    H143273   4.644   1.193   3.586  0.9001 -0.9452 -0.3092
 7286TIP3    H243274   4.638   1.081   3.688 -0.9947 -0.4769  0.1291
 7287TIP3   OH243275   1.504   5.930   1.178  0.0186  0.0412 -0.0392
 7287TIP3    H143276   1.410   5.914   1.167 -0.1945  1.7423 -1.0237
 7287TIP3    H243277   1.537   5.850   1.219 -1.7261 -0.8818 -0.3318
 7288TIP3   OH243278   0.908   3.260  16.149  0.3888 -0.3320  0.1566
 7288TIP3    H143279   0.976   3.316  16.112 -0.3706 -0.0346 -0.8324
 7288TIP3    H243280   0.898   3.189  16.086  0.5051 -0.9349  0.8086
 7289TIP3   OH243281   5.631   3.191  15.154 -0.3560  0.1975 -0.6940
 7289TIP3    H143282   5.614   3.284  15.164 -0.0488  0.2305 -0.4641
 7289TIP3    H243283   5.615   3.154  15.241  0.9019  0.2596 -0.4099
 7290TIP3   OH243284   0.272   5.919  13.510 -0.2760  0.4260  0.4228
 7290TIP3    H143285   0.348   5.910  13.567  1.8964  1.2628 -2.1045
 7290TIP3    H243286   0.273   5.840  13.457 -2.0504 -0.1914  1.2682
 7291TIP3   OH243287   2.423   0.583   5.927  0.1365 -0.0481  0.4721
 7291TIP3    H143288   2.493   0.520   5.907 -0.2472 -0.0916 -0.8858
 7291TIP3    H243289   2.346   0.547   5.881 -0.3517  0.8603  0.5654
 7292TIP3   OH243290   0.221   3.383   3.158  0.9514 -0.6471 -0.4589
 7292TIP3    H143291   0.279   3.428   3.220  0.4356 -0.7324  0.0939
 7292TIP3    H243292   0.165   3.328   3.213 -0.6995  0.5888 -0.8235
 7293TIP3   OH243293   1.350   4.938   0.204 -0.0740  0.4795 -0.1702
 7293TIP3    H143294   1.337   4.961   0.112 -0.7074  0.4856 -0.0827
 7293TIP3    H243295   1.273   4.973   0.248 -1.1599 -1.9109 -0.0542
 7294TIP3   OH243296   2.982   4.766  13.104 -0.4022  0.3505  0.3751
 7294TIP3    H143297   2.968   4.760  13.198 -0.2215 -0.8698  0.3398
 7294TIP3    H243298   2.937   4.689  13.068 -0.3556  0.7274 -0.5260
 7295TIP3   OH243299   4.239   2.985   0.757  0.1944 -0.0838  0.4171
 7295TIP3    H143300   4.294   2.971   0.680  0.9840  3.6538  0.0908
 7295TIP3    H243301   4.155   3.013   0.721  0.6318  1.8849  0.7958
 7296TIP3   OH243302   1.361   3.335   3.470  0.2678  0.6193 -0.2085
 7296TIP3    H143303   1.442   3.323   3.420  0.4264 -2.4685  0.6120
 7296TIP3    H243304   1.294   3.294   3.416 -0.5163  1.7955 -0.1683
 7297TIP3   OH243305   0.124   1.369   3.318  0.5709 -0.8136 -0.1930
 7297TIP3    H143306   0.112   1.274   3.311  0.8213 -1.0617  2.1246
 7297TIP3    H243307   0.167   1.381   3.403 -0.2681  1.4568 -0.0518
 7298TIP3   OH243308   6.040   4.496  13.570  0.2030 -0.0876  0.1616
 7298TIP3    H143309   5.976   4.535  13.630 -0.0245  1.1897 -0.8721
 7298TIP3    H243310   6.073   4.419  13.617  0.3942  1.1340  2.1402
 7299TIP3   OH243311   2.644   4.319   2.450  0.1404  0.1443 -0.9604
 7299TIP3    H143312   2.550   4.332   2.461  0.2377  0.0648  0.0199
 7299TIP3    H243313   2.669   4.264   2.524  0.7589 -0.8009 -1.8516
 7300TIP3   OH243314   3.539   2.554   5.572  0.1704  0.4371 -0.0949
 7300TIP3    H143315   3.523   2.504   5.653  1.3407  0.6132  0.2567
 7300TIP3    H243316   3.562   2.641   5.602 -0.4015  0.7960 -0.6701
 7301TIP3   OH243317   5.468   1.188  12.117 -0.5642  0.1692  0.0307
 7301TIP3    H143318   5.530   1.118  12.137 -2.5929 -1.4636  1.0700
 7301TIP3    H243319   5.464   1.239  12.198 -0.1116  0.6709 -0.2587
 7302TIP3   OH243320   2.530   5.638  16.639  0.5441  0.7135  0.2627
 7302TIP3    H143321   2.539   5.680  16.553  0.0326 -1.4768 -0.9350
 7302TIP3    H243322   2.436   5.645  16.658  0.6405  1.1027  0.5960
 7303TIP3   OH243323   4.701   3.443  12.128 -0.1548 -0.3872 -0.1046
 7303TIP3    H143324   4.679   3.356  12.161  1.3252 -0.4686  0.7447
 7303TIP3    H243325   4.746   3.426  12.045  2.1923 -0.6609  1.1134
 7304TIP3   OH243326   0.099   0.031  13.545  0.3426  0.3363  0.0184
 7304TIP3    H143327   0.127  -0.017  13.623 -2.3787 -1.9876 -0.2487
 7304TIP3    H243328   0.154   0.109  13.543  1.6993 -0.3889  3.2510
 7305TIP3   OH243329   6.216   5.595   6.089  0.0927  0.8249  0.1846
 7305TIP3    H143330   6.277   5.666   6.110  0.0950  0.7837  0.3202
 7305TIP3    H243331   6.270   5.530   6.043  0.4124  0.2846  1.2826
 7306TIP3   OH243332   1.920   4.935   4.000 -0.2961  0.2743  0.5351
 7306TIP3    H143333   1.874   4.878   4.060  0.7518 -0.0718  1.0393
 7306TIP3    H243334   1.870   4.931   3.919 -1.2476  0.0856  1.1259
 7307TIP3   OH243335   2.776   1.937  12.903 -0.5011 -0.1351  0.6484
 7307TIP3    H143336   2.845   1.920  12.839  0.1268  1.1665  0.9497
 7307TIP3    H243337   2.705   1.973  12.851 -0.0474  0.7825  0.6537
 7308TIP3   OH243338   2.357   3.956  13.719 -0.2996  0.2131  0.4051
 7308TIP3    H143339   2.421   4.026  13.733  0.9643 -1.0203  1.0955
 7308TIP3    H243340   2.299   3.961  13.794 -1.3591  1.6631 -0.4793
 7309TIP3   OH243341   2.795   6.578   2.637  0.3447  0.2996  0.1639
 7309TIP3    H143342   2.763   6.656   2.684 -0.2687 -0.3430  0.8517
 7309TIP3    H243343   2.890   6.585   2.641  0.2977  0.8673  0.4838
 7310TIP3   OH243344   2.716   1.248  13.089 -0.5084 -0.4962 -0.4095
 7310TIP3    H143345   2.785   1.279  13.030 -2.4583  3.3022 -1.0337
 7310TIP3    H243346   2.710   1.155  13.071  1.2560 -0.1336 -3.8391
 7311TIP3   OH243347   1.862   1.221   3.987 -0.4154  0.2085 -0.2920
 7311TIP3    H143348   1.868   1.140   4.039 -0.5759  0.1403 -0.3771
 7311TIP3    H243349   1.801   1.275   4.037 -0.6015  0.1267 -0.4302
 7312TIP3   OH243350   4.620   2.263   2.199 -0.1962 -0.2330  0.2309
 7312TIP3    H143351   4.598   2.356   2.204  0.3071  0.1658 -2.9183
 7312TIP3    H243352   4.703   2.255   2.245 -0.5000  0.7576  0.9788
 7313TIP3   OH243353   6.113   4.497   1.257  0.0639 -0.4441 -0.1286
 7313TIP3    H143354   6.110   4.463   1.347  0.2701 -0.1933 -0.0272
 7313TIP3    H243355   6.042   4.451   1.212 -1.2189  0.7287  0.6226
 7314TIP3   OH243356   3.065   5.318  11.178 -0.0614 -0.3561 -0.2789
 7314TIP3    H143357   3.043   5.226  11.162 -0.1128 -0.2540 -0.8166
 7314TIP3    H243358   3.012   5.367  11.116 -1.5396  0.1868  1.3340
 7315TIP3   OH243359   5.922   5.849   4.576 -0.3876 -0.7354  0.3652
 7315TIP3    H143360   6.006   5.847   4.624 -0.0205  0.0784 -0.2333
 7315TIP3    H243361   5.947   5.856   4.484 -1.1238 -0.0986  0.2092
 7316TIP3   OH243362   1.503   5.991  11.631 -0.0600  0.1094 -0.1756
 7316TIP3    H143363   1.526   6.084  11.641 -0.0449  0.1876 -0.8724
 7316TIP3    H243364   1.587   5.948  11.613  0.0131 -0.1290  0.6976
 7317TIP3   OH243365   5.321   3.589   2.134  0.3927  0.6203  0.8005
 7317TIP3    H143366   5.360   3.533   2.201 -1.4591 -1.4620  0.2915
 7317TIP3    H243367   5.237   3.616   2.172 -0.1247  0.4404 -0.1811
 7318TIP3   OH243368   5.861   2.468  10.652 -0.0393  0.1843 -0.3813
 7318TIP3    H143369   5.767   2.473  10.640  0.1022 -1.1674 -2.5418
 7318TIP3    H243370   5.888   2.388  10.606  1.8676 -0.8877  2.3121
 7319TIP3   OH243371   3.449   2.378  14.758 -0.0937  0.0375 -0.7018
 7319TIP3    H143372   3.381   2.438  14.727  1.0210  0.8280 -1.7475
 7319TIP3    H243373   3.492   2.425  14.829 -2.5768 -1.7346  2.2174
 7320TIP3   OH243374   0.482   1.150  12.995  0.4085  0.4661 -0.3668
 7320TIP3    H143375   0.508   1.229  13.043 -1.3602  0.4916  0.6395
 7320TIP3    H243376   0.562   1.120  12.952  1.5595  1.6769  0.8561
 7321TIP3   OH243377   4.876   1.145   5.369  0.3625  0.7126  0.3236
 7321TIP3    H143378   4.900   1.059   5.333  1.1360  1.2368 -0.4276
 7321TIP3    H243379   4.903   1.208   5.302  1.7541  1.7125  1.7483
 7322TIP3   OH243380   6.611   3.371   2.048 -0.4733 -0.3038  0.3619
 7322TIP3    H143381   6.578   3.293   2.002  0.0242 -0.5526  0.4100
 7322TIP3    H243382   6.554   3.380   2.124 -0.8098 -0.3628  0.1160
 7323TIP3   OH243383   6.148   1.416  12.581 -0.3352 -0.3675  0.2740
 7323TIP3    H143384   6.094   1.344  12.548 -0.1333  0.0552 -1.0306
 7323TIP3    H243385   6.218   1.374  12.630 -0.9394 -0.9877  0.6266
 7324TIP3   OH243386   3.614   0.044  13.209 -0.3385  0.0272 -0.3573
 7324TIP3    H143387   3.690  -0.012  13.224  0.3826 -0.3596 -4.4151
 7324TIP3    H243388   3.539  -0.016  13.220 -0.0016 -0.1451  1.3453
 7325TIP3   OH243389   2.467   2.094   2.269  0.0812 -0.2066 -0.4598
 7325TIP3    H143390   2.405   2.156   2.232  1.4129  0.8162 -1.0638
 7325TIP3    H243391   2.459   2.105   2.364  0.8125  1.4583 -0.5587
 7326TIP3   OH243392   6.682   3.614  10.960  0.1769 -0.1067 -0.3333
 7326TIP3    H143393   6.604   3.573  10.997 -0.7233  1.0359 -0.8934
 7326TIP3    H243394   6.712   3.674  11.029 -0.7360  1.0526 -0.9035
 7327TIP3   OH243395   5.286   1.199   1.586 -0.4440  0.7847  0.3631
 7327TIP3    H143396   5.361   1.236   1.632  0.0901  1.1738 -0.7795
 7327TIP3    H243397   5.219   1.187   1.654  0.5090  0.7928  1.3290
 7328TIP3   OH243398   5.897   0.080  12.919  0.4404  0.0913  0.0683
 7328TIP3    H143399   5.850   0.089  13.002 -0.7165  0.2915 -0.5922
 7328TIP3    H243400   5.969   0.020  12.939  1.0402  1.2214  1.5560
 7329TIP3   OH243401   5.019   2.065  11.009  0.2469 -0.4542 -1.0084
 7329TIP3    H143402   5.066   2.086  10.928  1.3653  0.5239 -0.1326
 7329TIP3    H243403   5.033   1.971  11.021  3.0173 -0.0065 -0.1796
 7330TIP3   OH243404   4.027   4.729  16.327  0.5499  0.3205 -0.1386
 7330TIP3    H143405   4.026   4.769  16.240  0.1596  0.7587  0.0653
 7330TIP3    H243406   4.007   4.637  16.311 -2.2942  0.8645 -0.2852
 7331TIP3   OH243407   0.023   4.514   1.664  0.4847 -0.2773  0.0151
 7331TIP3    H143408   0.033   4.539   1.756 -1.5109 -1.7214  0.6886
 7331TIP3    H243409  -0.019   4.589   1.623 -0.8616 -0.5225  0.8742
 7332TIP3   OH243410   3.271   1.908  13.663 -0.1084  0.0827  0.0488
 7332TIP3    H143411   3.193   1.880  13.710  0.2669  1.4419  1.5709
 7332TIP3    H243412   3.339   1.915  13.731  0.6347  1.4415 -0.7860
 7333TIP3   OH243413   1.059   3.074  13.986  0.6861 -0.0531  0.6086
 7333TIP3    H143414   1.004   3.056  14.062  0.5281 -1.4638  0.1828
 7333TIP3    H243415   1.132   3.012  13.994  0.4739 -0.4582 -0.5874
 7334TIP3   OH243416   5.164   6.581  14.922  0.5694  0.0601 -0.3087
 7334TIP3    H143417   5.177   6.510  14.860 -1.3982 -0.9978  0.3986
 7334TIP3    H243418   5.198   6.659  14.878 -0.4887 -0.6972 -2.5851
 7335TIP3   OH243419   3.985   5.885  17.001  0.0101 -0.5325 -0.6152
 7335TIP3    H143420   4.073   5.924  16.997  0.2498 -1.1076 -3.8005
 7335TIP3    H243421   3.982   5.842  17.086  1.3566  2.6298  1.2129
 7336TIP3   OH243422   3.160   0.979  14.889  0.1496 -0.4286 -0.5981
 7336TIP3    H143423   3.119   1.052  14.935  1.2521 -1.2625  1.8431
 7336TIP3    H243424   3.102   0.905  14.904  0.8586 -0.8625  0.1051
 7337TIP3   OH243425   4.692   4.545  16.619  0.4502  0.7071  0.1952
 7337TIP3    H143426   4.613   4.593  16.595  0.3806  0.8349  0.6674
 7337TIP3    H243427   4.764   4.602  16.591  0.3724  1.6712  1.8412
 7338TIP3   OH243428   0.293   5.678   1.601  0.5945  0.1439  0.2412
 7338TIP3    H143429   0.291   5.623   1.679 -0.2885 -1.3599 -0.7969
 7338TIP3    H243430   0.202   5.683   1.572  1.0934 -0.7379 -1.6262
 7339TIP3   OH243431   3.617   4.805   2.704  0.1369 -0.1721 -0.8761
 7339TIP3    H143432   3.602   4.734   2.767 -0.1944  0.2827 -0.4365
 7339TIP3    H243433   3.687   4.772   2.648  0.9746 -0.2848  0.2059
 7340TIP3   OH243434   4.413   0.657  11.718 -0.6100 -0.4835 -0.6709
 7340TIP3    H143435   4.452   0.572  11.700 -0.3067 -0.9555  1.8626
 7340TIP3    H243436   4.483   0.707  11.759 -1.5266  0.0178  0.3421
 7341TIP3   OH243437   5.664   4.521  12.050  0.0899 -0.6827  0.3232
 7341TIP3    H143438   5.647   4.545  12.142  0.2963 -0.2943  0.2636
 7341TIP3    H243439   5.759   4.528  12.041  0.1316 -1.3164  0.2382
 7342TIP3   OH243440   0.534   5.377   4.248  0.0716  0.0544 -0.1999
 7342TIP3    H143441   0.562   5.415   4.331 -1.8543 -0.1816  0.6052
 7342TIP3    H243442   0.539   5.450   4.186  0.5806  0.4834  0.3321
 7343TIP3   OH243443   0.026   5.458  11.869  0.3245  0.1884  0.4306
 7343TIP3    H143444   0.118   5.461  11.893  0.4101 -0.4603  0.2004
 7343TIP3    H243445   0.021   5.509  11.788  0.5768 -0.2251  0.1526
 7344TIP3   OH243446   6.723   0.083   3.713 -0.0955  0.1555  0.0403
 7344TIP3    H143447   6.653   0.141   3.743 -0.0642 -0.2093  0.8392
 7344TIP3    H243448   6.803   0.132   3.730 -0.1400  0.4774 -0.6576
 7345TIP3   OH243449   5.624   2.292  11.586 -0.0243 -0.7688  0.5016
 7345TIP3    H143450   5.660   2.268  11.671 -0.5141 -1.1069  0.6141
 7345TIP3    H243451   5.696   2.276  11.525  0.2614 -0.7239  0.8217
 7346TIP3   OH243452   3.434   3.190  10.840  0.1337  0.3667 -0.2113
 7346TIP3    H143453   3.528   3.181  10.827  0.3937  1.9457  0.3377
 7346TIP3    H243454   3.400   3.216  10.754 -0.1467 -2.1486 -0.9395
 7347TIP3   OH243455   2.619   5.367   0.051 -0.2367  0.0078 -0.0249
 7347TIP3    H143456   2.535   5.383   0.094 -0.1000  1.2785 -0.2007
 7347TIP3    H243457   2.659   5.453   0.044  0.2757 -0.3221 -1.6121
 7348TIP3   OH243458   3.703   2.029   1.670  0.4753  0.7189 -0.0459
 7348TIP3    H143459   3.747   1.961   1.721  1.1855 -0.0375 -1.6102
 7348TIP3    H243460   3.650   2.076   1.734  4.0737  2.1876  2.1881
 7349TIP3   OH243461   1.798   4.835   0.232 -0.0994 -0.1237  0.3006
 7349TIP3    H143462   1.826   4.869   0.148  0.1291 -0.8897  0.0553
 7349TIP3    H243463   1.708   4.806   0.218 -0.1212 -0.0871  0.3640
 7350TIP3   OH243464   3.877   0.745   0.596  0.3338 -0.4253  0.5744
 7350TIP3    H143465   3.911   0.660   0.569  0.1625 -0.0275 -0.9568
 7350TIP3    H243466   3.859   0.735   0.690 -0.3449 -2.2858  0.2870
 7351TIP3   OH243467   1.476   6.714  13.978  0.4119 -0.3169 -0.1977
 7351TIP3    H143468   1.425   6.652  13.925 -0.9687 -0.9665  1.8095
 7351TIP3    H243469   1.565   6.678  13.977 -0.2918 -2.1891  0.6396
 7352TIP3   OH243470   4.720   5.329  12.374  0.0859  0.2526 -0.2243
 7352TIP3    H143471   4.783   5.287  12.432 -0.7077  0.1807  0.6141
 7352TIP3    H243472   4.752   5.311  12.286  2.4873  2.1208  0.1637
 7353TIP3   OH243473   5.841   2.650  11.301 -1.0677  0.9596  0.1435
 7353TIP3    H143474   5.921   2.597  11.301 -1.0455  0.9752 -0.8278
 7353TIP3    H243475   5.796   2.625  11.220 -2.9741 -0.4120  1.5442
 7354TIP3   OH243476   0.039   1.224   0.977 -0.1325 -0.0104 -0.6018
 7354TIP3    H143477   0.053   1.314   1.004 -0.8325  0.0825 -0.5224
 7354TIP3    H243478  -0.045   1.225   0.931  0.4124 -0.4128 -1.6243
 7355TIP3   OH243479   3.403   5.737   4.229  0.1473  0.6578 -0.2942
 7355TIP3    H143480   3.472   5.692   4.279 -1.2231 -0.9319  0.2462
 7355TIP3    H243481   3.436   5.739   4.139  0.2339 -1.5867 -0.3721
 7356TIP3   OH243482   0.021   2.800   6.320 -0.3850  0.1173 -0.6543
 7356TIP3    H143483   0.078   2.772   6.392 -2.6416 -0.6720  0.9586
 7356TIP3    H243484   0.029   2.731   6.255 -1.0388 -1.0957  0.4886
 7357TIP3   OH243485   5.052   4.475  11.511  0.1218 -0.1795 -0.3385
 7357TIP3    H143486   5.148   4.482  11.508  0.1802 -1.0456 -0.7372
 7357TIP3    H243487   5.034   4.384  11.488 -0.7757 -0.1953  0.3981
 7358TIP3   OH243488   1.134   5.753  11.780  0.5579 -0.0196 -0.2029
 7358TIP3    H143489   1.094   5.761  11.867  0.1109  0.2427 -0.4307
 7358TIP3    H243490   1.194   5.828  11.775  0.0728  0.3612 -0.3857
 7359TIP3   OH243491   2.318   2.073   5.819  0.3780 -0.2438  0.5990
 7359TIP3    H143492   2.335   2.142   5.755 -0.2258 -0.5302  0.1216
 7359TIP3    H243493   2.327   2.117   5.904 -2.1766  1.0110  0.3152
 7360TIP3   OH243494   1.555   0.864   2.664 -0.0269  0.0563  0.1516
 7360TIP3    H143495   1.640   0.822   2.654 -0.9496 -1.6186 -1.0192
 7360TIP3    H243496   1.492   0.792   2.662 -1.5203  1.3066  0.4231
 7361TIP3   OH243497   2.287   1.912  11.975 -0.3370 -0.1493  0.4989
 7361TIP3    H143498   2.283   1.992  11.922  3.0175  1.1979  2.0354
 7361TIP3    H243499   2.253   1.938  12.061  2.2518  0.2039  1.4980
 7362TIP3   OH243500   0.789   2.984  11.875 -0.2098  0.1741 -0.1672
 7362TIP3    H143501   0.812   2.986  11.968  3.2050 -1.9899 -0.7985
 7362TIP3    H243502   0.859   3.031  11.831 -0.4532 -0.9232 -1.8187
 7363TIP3   OH243503   0.440   5.648   0.407 -0.2496  0.0391  0.0239
 7363TIP3    H143504   0.502   5.699   0.458 -0.1707  1.0505 -1.0388
 7363TIP3    H243505   0.354   5.685   0.429 -0.6556 -2.0227  2.2708
 7364TIP3   OH243506   6.106   6.396  16.107 -0.5005 -0.4506 -0.2048
 7364TIP3    H143507   6.139   6.482  16.132 -0.7815  0.0983 -1.6471
 7364TIP3    H243508   6.185   6.342  16.098 -0.2629 -0.1120 -0.1541
 7365TIP3   OH243509   5.677   2.986   6.344  0.2887  0.2480  0.2477
 7365TIP3    H143510   5.756   2.951   6.385 -0.1164  0.5280  1.3046
 7365TIP3    H243511   5.609   2.921   6.361  0.8608 -1.4895 -3.2479
 7366TIP3   OH243512   1.290   3.101  13.010  0.3577  0.2618 -0.6865
 7366TIP3    H143513   1.382   3.128  13.002  0.6201 -0.5676 -0.6690
 7366TIP3    H243514   1.292   3.007  12.992 -0.4290  0.1508 -0.2460
 7367TIP3   OH243515   5.100   5.315  16.842  0.4298 -0.5264 -0.6073
 7367TIP3    H143516   5.095   5.411  16.842  1.2507 -0.4334  1.4305
 7367TIP3    H243517   5.036   5.288  16.908  0.1048 -1.4211 -1.2540
 7368TIP3   OH243518   2.343   1.422  13.841  0.4029 -0.2892 -0.0790
 7368TIP3    H143519   2.259   1.412  13.797  0.5897  0.4976 -0.6257
 7368TIP3    H243520   2.350   1.515  13.860  0.4363 -0.5773  1.4205
 7369TIP3   OH243521   3.937   6.159  16.957  0.3307 -0.5007 -0.1573
 7369TIP3    H143522   3.874   6.087  16.949 -0.9226  0.7162 -2.0072
 7369TIP3    H243523   4.017   6.126  16.917 -0.3398 -0.7858 -1.3209
 7370TIP3   OH243524   3.764   5.885   3.309 -0.2169  0.0228 -0.2931
 7370TIP3    H143525   3.740   5.971   3.275  0.8118  0.3531 -0.2078
 7370TIP3    H243526   3.793   5.836   3.233 -0.3659 -0.1040 -0.2701
 7371TIP3   OH243527   1.273   1.766  14.962  0.6377  0.7370  0.5697
 7371TIP3    H143528   1.243   1.685  14.921 -0.2384  1.5844 -0.5215
 7371TIP3    H243529   1.325   1.737  15.037  0.2914 -0.8263  0.2394
 7372TIP3   OH243530   5.120   2.625  13.471  1.0079 -0.7000  0.1142
 7372TIP3    H143531   5.081   2.703  13.432  0.2022 -1.0136  0.2746
 7372TIP3    H243532   5.214   2.642  13.470  1.1387 -1.1216 -2.9338
 7373TIP3   OH243533   0.419   0.505   5.528  0.5057 -0.0282  0.3962
 7373TIP3    H143534   0.430   0.446   5.602 -0.3247 -1.1774 -0.3693
 7373TIP3    H243535   0.507   0.514   5.492  0.5030 -1.7144 -0.1310
 7374TIP3   OH243536   5.790   0.591  13.070 -0.7523 -0.4027 -0.0942
 7374TIP3    H143537   5.787   0.575  12.975 -0.8525  0.8849 -0.3276
 7374TIP3    H243538   5.714   0.645  13.087 -0.5871 -0.4148  0.6866
 7375TIP3   OH243539   2.433   4.395  14.253 -0.1964  0.7792  0.3647
 7375TIP3    H143540   2.527   4.406  14.236 -0.6632  0.2834 -3.3852
 7375TIP3    H243541   2.427   4.316  14.306  1.4635  0.1641 -0.3070
 7376TIP3   OH243542   0.246   5.244   3.024  0.5950 -0.4060  0.0683
 7376TIP3    H143543   0.269   5.265   2.933 -0.6536  2.3240  0.2714
 7376TIP3    H243544   0.252   5.149   3.029  4.2092 -0.4409 -1.8596
 7377TIP3   OH243545   0.315   0.804  14.897  0.2011  0.5540 -0.2837
 7377TIP3    H143546   0.347   0.715  14.908  0.8377  0.8671  0.4488
 7377TIP3    H243547   0.338   0.826  14.806 -1.5103 -0.6159 -1.0554
 7378TIP3   OH243548   4.902   2.707  14.100 -0.4163  0.3162  0.2964
 7378TIP3    H143549   4.878   2.720  14.192  0.4778  1.1718  0.4222
 7378TIP3    H243550   4.913   2.612  14.092  1.3798  0.3663  1.5780
 7379TIP3   OH243551   1.949   0.380  14.626 -0.1806 -0.2266  0.0058
 7379TIP3    H143552   1.931   0.406  14.536 -0.2453  2.0043  0.5950
 7379TIP3    H243553   1.934   0.460  14.677 -1.7130 -1.7926  2.2231
 7380TIP3   OH243554   6.173   5.837   0.559  0.6324  0.0637  0.7706
 7380TIP3    H143555   6.133   5.917   0.593 -1.1771 -0.9831  1.2512
 7380TIP3    H243556   6.137   5.829   0.471  1.3480  0.1121  0.4665
 7381TIP3   OH243557   3.821   1.149  13.430  0.4338  0.5852  0.4365
 7381TIP3    H143558   3.814   1.203  13.509  1.8410  2.1634 -0.4730
 7381TIP3    H243559   3.779   1.201  13.361 -0.7196 -0.7459  0.0720
 7382TIP3   OH243560   2.619   0.759   4.899 -0.2579  0.0378  0.3087
 7382TIP3    H143561   2.643   0.779   4.990  2.1426 -0.7151 -0.0886
 7382TIP3    H243562   2.569   0.678   4.905  1.0430 -0.7499  0.8799
 7383TIP3   OH243563   6.645   0.298   1.827 -0.1755  0.3363  0.2477
 7383TIP3    H143564   6.629   0.207   1.851 -0.2694  0.3549  0.2582
 7383TIP3    H243565   6.624   0.348   1.906  0.5014  0.3160  0.4442
 7384TIP3   OH243566   4.787   5.146   4.214  0.0784 -0.3150  0.0988
 7384TIP3    H143567   4.855   5.097   4.261  0.5604  0.4214  0.1889
 7384TIP3    H243568   4.828   5.169   4.131  1.3191  3.2185  1.5101
 7385TIP3   OH243569   3.479   4.327  12.045  0.5137 -0.1234  0.4973
 7385TIP3    H143570   3.432   4.409  12.060  0.4057  0.0949 -0.9650
 7385TIP3    H243571   3.552   4.351  11.988  0.1463 -1.1368 -0.4248
 7386TIP3   OH243572   2.110   3.505   4.944  0.3328 -0.6659 -0.2193
 7386TIP3    H143573   2.047   3.437   4.969  0.5777 -0.4016  1.2214
 7386TIP3    H243574   2.093   3.577   5.005 -1.0527  1.3088 -2.7711
 7387TIP3   OH243575   4.448   5.555   3.663  0.0945 -0.3586  0.1759
 7387TIP3    H143576   4.402   5.639   3.665 -1.4126 -1.1592 -0.1244
 7387TIP3    H243577   4.460   5.532   3.755  0.2180  0.0116  0.2566
 7388TIP3   OH243578   4.020   6.372  15.409  0.2200 -0.1160 -0.2795
 7388TIP3    H143579   4.020   6.282  15.376 -0.4674 -0.7813  1.4619
 7388TIP3    H243580   3.933   6.384  15.446  0.1541  1.4432 -0.8917
 7389TIP3   OH243581   2.108   4.662   5.197 -0.5318 -0.9589 -0.1297
 7389TIP3    H143582   2.079   4.631   5.111 -2.2389  0.5286 -0.1429
 7389TIP3    H243583   2.033   4.646   5.254  0.3427 -1.2897  0.9539
 7390TIP3   OH243584   0.475   1.167   0.558  0.5302  0.4470  0.6651
 7390TIP3    H143585   0.395   1.120   0.533  1.3701 -0.3256 -0.6584
 7390TIP3    H243586   0.544   1.102   0.552  1.4429  1.3991  0.6670
 7391TIP3   OH243587   1.801   1.614   2.485 -0.1107  0.1632 -0.1578
 7391TIP3    H143588   1.823   1.538   2.433 -1.2372 -0.0675 -0.3314
 7391TIP3    H243589   1.761   1.578   2.565 -1.0364  0.5526 -0.4255
 7392TIP3   OH243590   3.845   3.860  15.675 -0.1959 -0.2512  0.3384
 7392TIP3    H143591   3.931   3.901  15.682 -0.6905  0.6958  1.0342
 7392TIP3    H243592   3.854   3.799  15.601  0.6684  0.8226 -0.4817
 7393TIP3   OH243593   0.468   5.853   2.472  0.1194  0.3242 -0.2749
 7393TIP3    H143594   0.474   5.944   2.444 -2.7419  0.7079  0.0312
 7393TIP3    H243595   0.490   5.855   2.565 -0.9816  0.9139 -0.0143
 7394TIP3   OH243596   0.496   2.295   0.455 -0.2773 -0.5409  0.2372
 7394TIP3    H143597   0.516   2.278   0.363  1.8284  0.3998  0.4597
 7394TIP3    H243598   0.476   2.388   0.458 -0.0273 -0.5018  0.7712
 7395TIP3   OH243599   6.439   4.285   2.118 -0.2786 -0.0786 -0.0008
 7395TIP3    H143600   6.416   4.305   2.028  2.6018 -0.0124 -0.8200
 7395TIP3    H243601   6.426   4.190   2.126 -0.5514 -0.0827 -0.4627
 7396TIP3   OH243602   2.680   5.604   6.583 -0.3727 -0.0045  0.1249
 7396TIP3    H143603   2.596   5.559   6.592 -1.1196  1.6240  2.0177
 7396TIP3    H243604   2.661   5.695   6.607  1.3814  1.0449 -2.0917
 7397TIP3   OH243605   4.195   4.072  14.726 -0.2693  0.0378 -0.4149
 7397TIP3    H143606   4.245   4.036  14.653 -0.2582  0.7249 -0.7577
 7397TIP3    H243607   4.261   4.114  14.782 -0.5575  2.1767 -1.5824
 7398TIP3   OH243608   0.937   0.123  12.936  0.1753  0.2017 -0.4541
 7398TIP3    H143609   0.950   0.043  12.987  1.0091  0.0722 -0.8482
 7398TIP3    H243610   0.856   0.161  12.970 -0.9521 -1.4900 -1.1697
 7399TIP3   OH243611   1.019   4.188   6.253  0.1228  0.4511  0.0233
 7399TIP3    H143612   1.105   4.197   6.214  0.3853  0.9376  0.6998
 7399TIP3    H243613   0.999   4.094   6.247  0.8399  0.2861  0.1771
 7400TIP3   OH243614   0.904   6.008   6.859  0.1792  0.0937 -0.0541
 7400TIP3    H143615   0.837   6.036   6.797 -0.5000 -0.4106  0.4323
 7400TIP3    H243616   0.863   6.019   6.945  0.2628 -1.3480  0.2024
 7401TIP3   OH243617   1.347   3.503   5.957 -0.2369  0.0900  0.3325
 7401TIP3    H143618   1.265   3.455   5.971 -0.2324  0.3429  1.2442
 7401TIP3    H243619   1.415   3.443   5.985 -0.2230  0.5566  1.3406
 7402TIP3   OH243620   1.446   2.978   2.367 -0.1878 -0.2454  0.3229
 7402TIP3    H143621   1.452   2.933   2.282  0.5744 -2.0415  1.2784
 7402TIP3    H243622   1.470   2.911   2.431 -0.0184  1.2784  1.9131
 7403TIP3   OH243623   4.497   6.257  15.923 -0.0119 -0.1049 -0.1917
 7403TIP3    H143624   4.555   6.324  15.961 -1.4440  1.2566 -0.2689
 7403TIP3    H243625   4.538   6.174  15.946  0.9508  0.7530  1.4048
 7404TIP3   OH243626   4.216   0.980   2.479  0.4035  0.2202 -0.0348
 7404TIP3    H143627   4.251   0.982   2.390 -3.8478  1.0408 -1.9346
 7404TIP3    H243628   4.226   1.070   2.511 -0.4810  0.5993 -0.7956
 7405TIP3   OH243629   2.475   3.378   5.156 -0.0479  0.0631 -0.3497
 7405TIP3    H143630   2.463   3.307   5.220 -1.1111  0.5629  0.0286
 7405TIP3    H243631   2.568   3.401   5.163 -0.1752  0.2304  1.1582
 7406TIP3   OH243632   2.466   4.129  16.340 -0.2042 -0.6988  0.4013
 7406TIP3    H143633   2.437   4.180  16.264  1.0962 -0.8453 -0.2155
 7406TIP3    H243634   2.561   4.139  16.341 -0.2437 -0.1003  2.4552
 7407TIP3   OH243635   4.676   0.964   4.021 -0.2287 -0.0863  0.0701
 7407TIP3    H143636   4.723   0.890   3.983  1.5695  1.4287 -0.8272
 7407TIP3    H243637   4.719   0.980   4.105 -0.6102 -0.0484  0.2615
 7408TIP3   OH243638   0.660   2.457   1.328  0.0989 -0.4265  0.3907
 7408TIP3    H143639   0.587   2.402   1.356 -0.1710  0.1011  0.7464
 7408TIP3    H243640   0.729   2.396   1.305  0.4211 -0.8862  2.4556
 7409TIP3   OH243641   4.440   3.084   4.324 -0.0854 -0.4169  0.0881
 7409TIP3    H143642   4.491   3.005   4.338 -0.0820 -0.1074  2.0775
 7409TIP3    H243643   4.505   3.154   4.313 -0.0850 -0.6613 -1.8313
 7410TIP3   OH243644   3.736   0.188   5.929  0.0338  0.3764 -0.2331
 7410TIP3    H143645   3.713   0.164   5.839  0.0135 -0.0323 -0.1196
 7410TIP3    H243646   3.771   0.108   5.967  0.4397  0.6588 -0.0049
 7411TIP3   OH243647   0.060   5.002   0.991  0.5342  0.5348  0.2108
 7411TIP3    H143648  -0.011   5.017   1.053  1.1354  2.9126  0.4488
 7411TIP3    H243649   0.123   5.072   1.011  1.8575 -0.1195 -1.4901
 7412TIP3   OH243650   6.264   4.328   6.297  0.1777 -0.5938  0.6117
 7412TIP3    H143651   6.194   4.273   6.261  0.6028 -0.2742 -0.7505
 7412TIP3    H243652   6.232   4.353   6.384 -1.2706 -0.6980  0.1403
 7413TIP3   OH243653   6.487   0.514  13.297 -0.0406  0.4929 -0.4847
 7413TIP3    H143654   6.436   0.453  13.242  1.0501 -1.4668  0.5840
 7413TIP3    H243655   6.577   0.485  13.288  0.1263 -0.4974  2.9565
 7414TIP3   OH243656   2.373   0.322  12.317 -0.3757  0.3164 -0.1995
 7414TIP3    H143657   2.413   0.384  12.378  0.0153 -1.0006  0.9248
 7414TIP3    H243658   2.299   0.285  12.365 -1.9628  1.4719 -1.6467
 7415TIP3   OH243659   2.118   4.960  12.131  0.0284 -0.2351  0.1453
 7415TIP3    H143660   2.083   4.888  12.184  0.9779 -1.3267 -0.6551
 7415TIP3    H243661   2.098   4.934  12.041  0.7845  0.2806 -0.1772
 7416TIP3   OH243662   3.722   3.015   0.280 -0.5055  0.3528 -0.6971
 7416TIP3    H143663   3.810   2.985   0.304  0.1084  0.9983 -2.0285
 7416TIP3    H243664   3.701   2.966   0.201 -0.0134  2.4113 -2.1857
 7417TIP3   OH243665   3.113   2.894  11.121 -0.0528 -0.3578 -0.2252
 7417TIP3    H143666   3.074   2.907  11.034 -0.1406  2.1789  0.1340
 7417TIP3    H243667   3.200   2.860  11.103 -0.0140  0.2664 -1.3300
 7418TIP3   OH243668   6.465   1.901   0.091 -0.1386  0.0146  0.1730
 7418TIP3    H143669   6.497   1.918   0.180 -1.1306 -1.7971  0.9386
 7418TIP3    H243670   6.376   1.936   0.091  0.7369  2.4641 -1.0370
 7419TIP3   OH243671   4.968   2.958   5.924  0.1609 -0.1506 -0.1097
 7419TIP3    H143672   5.036   2.905   5.966  0.0768  0.8178  1.2936
 7419TIP3    H243673   4.922   3.000   5.996  0.2024  1.8254 -1.1651
 7420TIP3   OH243674   5.032   2.778   2.304  0.1702 -0.4803  0.7971
 7420TIP3    H143675   5.107   2.823   2.265  1.3238 -1.8265  1.3727
 7420TIP3    H243676   5.004   2.835   2.376 -1.9085  1.9848 -1.7131
 7421TIP3   OH243677   2.890   6.501   3.074 -0.1760  0.1311  0.7900
 7421TIP3    H143678   2.957   6.517   3.140  1.0472 -0.9637 -0.1504
 7421TIP3    H243679   2.854   6.415   3.096  1.7420 -1.2748 -1.1125
 7422TIP3   OH243680   2.479   2.825   1.414  0.3137  0.6594  0.2107
 7422TIP3    H143681   2.411   2.816   1.347  0.5852  2.6263 -0.4086
 7422TIP3    H243682   2.430   2.836   1.496 -0.1699  2.2006 -0.2517
 7423TIP3   OH243683   4.515   5.088   6.191 -0.6979 -0.0775 -0.3108
 7423TIP3    H143684   4.553   5.001   6.203 -0.2933 -0.0498 -1.3204
 7423TIP3    H243685   4.526   5.131   6.276 -0.0790 -0.6920 -0.0737
 7424TIP3   OH243686   5.808   3.875   4.938 -0.1776  0.3859  0.2693
 7424TIP3    H143687   5.802   3.965   4.972 -0.7969  0.2157  0.6099
 7424TIP3    H243688   5.828   3.886   4.845  0.0595  0.8746  0.3759
 7425TIP3   OH243689   6.365   1.524   5.324  1.0194 -0.5189 -0.2834
 7425TIP3    H143690   6.318   1.602   5.355  2.2266 -0.0844  0.5655
 7425TIP3    H243691   6.305   1.452   5.339  0.4218  0.0774  0.2755
 7426TIP3   OH243692   2.932   6.795   2.369  0.2729 -0.3901  0.1743
 7426TIP3    H143693   2.837   6.795   2.364  0.1588  2.5087  0.4567
 7426TIP3    H243694   2.961   6.809   2.279  0.5516 -2.4160 -0.1051
 7427TIP3   OH243695   6.207   4.656   0.116 -0.1883  0.3048 -0.4575
 7427TIP3    H143696   6.265   4.621   0.185 -0.4406  0.5485 -0.1209
 7427TIP3    H243697   6.141   4.706   0.163 -0.2989  0.5687 -0.8892
 7428TIP3   OH243698   6.336   3.683  14.930  0.2918 -0.0237 -0.4284
 7428TIP3    H143699   6.381   3.757  14.888 -3.5211  1.1723 -2.9241
 7428TIP3    H243700   6.346   3.611  14.869 -0.0164 -0.1314 -0.3557
 7429TIP3   OH243701   0.086   2.146   0.854  0.3757  0.0662  0.0384
 7429TIP3    H143702   0.082   2.190   0.939  0.7290 -0.5124  0.3561
 7429TIP3    H243703   0.026   2.072   0.863 -0.5043  0.6697 -0.6213
 7430TIP3   OH243704   6.576   0.297  16.154  0.5381  0.1316  0.8853
 7430TIP3    H143705   6.533   0.328  16.233 -0.1283  1.2926  0.0845
 7430TIP3    H243706   6.624   0.218  16.182 -0.3668  0.0417  2.2379
 7431TIP3   OH243707   2.455   3.138   5.304 -0.0786  0.0294  0.1289
 7431TIP3    H143708   2.436   3.047   5.282  1.3693 -0.1606 -0.4470
 7431TIP3    H243709   2.402   3.156   5.382 -2.5433 -0.4116 -1.3260
 7432TIP3   OH243710   5.961   2.124   0.016  0.2798  0.3809  0.2330
 7432TIP3    H143711   5.968   2.219   0.001 -0.4961  0.6233  1.2987
 7432TIP3    H243712   5.867   2.107   0.019  0.4077 -0.2042  1.3430
 7433TIP3   OH243713   4.024   5.190  12.396 -0.5758 -0.4617  0.5949
 7433TIP3    H143714   4.095   5.189  12.331 -1.2765  0.4793 -0.2206
 7433TIP3    H243715   3.944   5.184  12.344 -1.2278  1.9576  1.1957
 7434TIP3   OH243716   2.994   3.262  10.705 -0.8733 -0.0543  0.4117
 7434TIP3    H143717   3.012   3.329  10.770 -3.6830  0.7640  0.4753
 7434TIP3    H243718   2.929   3.205  10.746  0.3119 -1.9958 -0.2223
 7435TIP3   OH243719   5.172   6.017   0.852 -0.0741 -0.1577  0.4674
 7435TIP3    H143720   5.152   6.097   0.900  1.5011  1.1091 -0.8902
 7435TIP3    H243721   5.267   6.006   0.862 -0.3068 -2.0420  0.8936
 7436TIP3   OH243722   2.926   4.474   4.504 -0.6031  0.7173 -0.0224
 7436TIP3    H143723   2.952   4.425   4.426 -0.0156  0.5066  0.2965
 7436TIP3    H243724   2.846   4.430   4.534  0.6061 -0.8766  0.9848
 7437TIP3   OH243725   6.643   0.710   5.208  0.4829  0.2432  0.1684
 7437TIP3    H143726   6.687   0.720   5.124 -2.0291  1.1254 -1.1663
 7437TIP3    H243727   6.692   0.642   5.254  2.9940  0.9839 -1.2411
 7438TIP3   OH243728   1.010   5.468  11.087 -0.5931  0.2133 -0.5050
 7438TIP3    H143729   1.071   5.502  11.023 -1.0083  0.6345 -0.6830
 7438TIP3    H243730   0.974   5.546  11.130 -0.4427 -0.0530  0.1278
 7439TIP3   OH243731   0.607   0.533  16.442 -0.0314  0.6567 -0.1254
 7439TIP3    H143732   0.656   0.451  16.441 -0.5558  0.3392 -0.9446
 7439TIP3    H243733   0.520   0.509  16.412 -0.9520  1.0679  2.0442
 7440TIP3   OH243734   3.854   0.262  11.287 -0.4297 -0.7321  0.2666
 7440TIP3    H143735   3.802   0.182  11.285  0.3856 -1.2854  0.6700
 7440TIP3    H243736   3.934   0.239  11.239  0.3374 -0.5528  1.4192
 7441TIP3   OH243737   2.314   0.504  16.751  0.2721  0.2661  0.6408
 7441TIP3    H143738   2.262   0.440  16.703  0.3714  0.1747  0.6538
 7441TIP3    H243739   2.346   0.565  16.684 -0.6838  0.9220  0.7533
 7442TIP3   OH243740   5.244   2.475  13.113 -0.2677 -0.6638  0.2533
 7442TIP3    H143741   5.150   2.485  13.095 -0.0635  1.1881  0.0166
 7442TIP3    H243742   5.253   2.497  13.206 -0.2655 -2.4881  0.7113
 7443TIP3   OH243743   3.424   6.491   3.887  0.2923  0.3087  0.1158
 7443TIP3    H143744   3.371   6.570   3.896 -2.0280 -1.1437  0.3716
 7443TIP3    H243745   3.476   6.487   3.967  0.5605  1.6392  0.0222
 7444TIP3   OH243746   2.465   5.471   4.775  0.5408  0.4956  0.2821
 7444TIP3    H143747   2.516   5.469   4.694  1.0159 -1.2709  0.5784
 7444TIP3    H243748   2.421   5.386   4.778 -1.3845  1.4544  0.7122
 7445TIP3   OH243749   3.344   5.321  14.455 -0.3357  0.1010  0.4257
 7445TIP3    H143750   3.396   5.279  14.524  1.9387  0.3446 -1.0407
 7445TIP3    H243751   3.332   5.411  14.485  0.0309  0.0210  0.8239
 7446TIP3   OH243752   6.599   4.654   6.681  0.0410 -0.3013 -0.2660
 7446TIP3    H143753   6.668   4.596   6.648 -0.8061 -0.7711 -1.2849
 7446TIP3    H243754   6.646   4.725   6.725  1.1449 -0.9083 -0.4165
 7447TIP3   OH243755   0.984   2.348   6.050 -0.4194  0.1090 -0.4405
 7447TIP3    H143756   1.009   2.276   6.107 -2.4755 -0.1884  0.1800
 7447TIP3    H243757   1.030   2.424   6.085 -0.2836 -0.4142  0.5382
 7448TIP3   OH243758   5.750   1.634  15.356  0.4112 -0.3718  0.1787
 7448TIP3    H143759   5.787   1.546  15.355  1.3939  0.0211  0.5564
 7448TIP3    H243760   5.813   1.686  15.407  1.3943  1.2214 -2.4402
 7449TIP3   OH243761   4.863   5.010  14.679  0.3224 -0.2510 -0.1475
 7449TIP3    H143762   4.935   4.980  14.623  0.0564 -2.7868  0.7401
 7449TIP3    H243763   4.807   4.933  14.689 -0.8178  0.7543  1.7871
 7450TIP3   OH243764   2.173   1.643   4.140 -0.0953  0.5419 -0.1643
 7450TIP3    H143765   2.131   1.579   4.199  1.2916  0.6848  1.0437
 7450TIP3    H243766   2.119   1.722   4.148 -0.8025  0.0833 -0.2923
 7451TIP3   OH243767   4.485   4.591  14.168  0.1560 -0.2025 -0.7583
 7451TIP3    H143768   4.538   4.561  14.243 -0.4008 -0.3057 -0.4046
 7451TIP3    H243769   4.465   4.510  14.120 -0.2092 -0.2340 -0.5493
 7452TIP3   OH243770   0.346   2.805   3.088 -0.4069 -0.4914  0.1089
 7452TIP3    H143771   0.340   2.749   3.165 -1.7918 -0.7536 -0.1458
 7452TIP3    H243772   0.309   2.889   3.116  0.5826 -0.0738  0.1716
 7453TIP3   OH243773   3.072   1.269  14.283 -0.2275  0.0706 -0.2105
 7453TIP3    H143774   3.162   1.266  14.251 -0.1459 -0.9290  0.0689
 7453TIP3    H243775   3.079   1.239  14.374 -0.4351  2.9015  0.8379
 7454TIP3   OH243776   4.338   2.427  16.020 -0.1462  0.8806 -0.3517
 7454TIP3    H143777   4.370   2.517  16.019 -1.2905  1.3670  1.4009
 7454TIP3    H243778   4.277   2.424  16.094  0.8226 -1.6707  0.4593
 7455TIP3   OH243779   0.796   6.243  16.395 -0.1119 -0.0400 -0.3990
 7455TIP3    H143780   0.748   6.324  16.374 -1.1028 -1.0282 -2.2042
 7455TIP3    H243781   0.845   6.223  16.315 -1.4936 -2.2616 -0.7819
 7456TIP3   OH243782   0.297   5.757   4.919 -0.1401  0.5577  0.4037
 7456TIP3    H143783   0.243   5.707   4.857 -4.6265  3.2608  1.6506
 7456TIP3    H243784   0.260   5.735   5.005  2.5111  0.7566  1.6804
 7457TIP3   OH243785   1.885   5.597  13.747 -0.3223 -0.1585 -0.2949
 7457TIP3    H143786   1.884   5.693  13.749 -0.6901 -0.0706 -2.3627
 7457TIP3    H243787   1.928   5.575  13.665  1.0483 -1.8260  0.8064
 7458TIP3   OH243788   5.858   2.591   1.958 -0.4255  0.2324 -0.5144
 7458TIP3    H143789   5.931   2.545   1.914 -0.8667 -0.2017 -0.8079
 7458TIP3    H243790   5.833   2.660   1.896  0.0633  0.7061 -0.1904
 7459TIP3   OH243791   4.529   1.157  13.517  0.4328  0.1674 -0.4976
 7459TIP3    H143792   4.450   1.196  13.553 -0.2842 -0.6007 -1.1906
 7459TIP3    H243793   4.600   1.196  13.567 -0.3975  0.6818  0.3123
 7460TIP3   OH243794   1.161   5.253  16.419  0.2588 -0.1996  0.4873
 7460TIP3    H143795   1.155   5.333  16.367  2.6604  0.3545  0.9378
 7460TIP3    H243796   1.237   5.207  16.385 -0.0562 -1.4529  1.3872
 7461TIP3   OH243797   3.073   0.710  13.338 -0.0244 -0.1524  0.2779
 7461TIP3    H143798   3.102   0.675  13.254  0.7306 -0.1794  0.5424
 7461TIP3    H243799   3.075   0.634  13.397  0.7128  0.1202  0.6254
 7462TIP3   OH243800   5.376   6.045   4.144 -0.3135  0.5285 -0.3732
 7462TIP3    H143801   5.446   6.093   4.098  0.6824 -0.3102  0.2116
 7462TIP3    H243802   5.421   6.001   4.215 -1.2631 -0.9520 -0.6542
 7463TIP3   OH243803   5.250   2.898  14.790 -0.0386 -0.5714 -0.1362
 7463TIP3    H143804   5.238   2.930  14.701  1.2279 -1.2284 -0.5724
 7463TIP3    H243805   5.284   2.809  14.779  2.2020  0.0708  0.9216
 7464TIP3   OH243806   0.643   0.770  16.267  0.4757  0.0562 -0.0635
 7464TIP3    H143807   0.565   0.732  16.227 -1.6416  2.8261  1.0808
 7464TIP3    H243808   0.654   0.722  16.349  0.3417 -0.7154 -0.4871
 7465TIP3   OH243809   0.057   2.921  12.498 -0.0392 -0.0254  0.2155
 7465TIP3    H143810   0.002   2.844  12.482 -1.0535  0.7135  0.0740
 7465TIP3    H243811   0.129   2.888  12.552  0.1451 -1.3003 -0.7557
 7466TIP3   OH243812   1.332   1.284  15.755 -0.0167 -0.0186  0.3688
 7466TIP3    H143813   1.392   1.358  15.766  0.0049 -0.1794  1.3847
 7466TIP3    H243814   1.290   1.300  15.670 -1.4203  2.1528  1.3896
 7467TIP3   OH243815   2.376   4.303   1.565 -0.3273 -0.6744 -0.0885
 7467TIP3    H143816   2.296   4.251   1.567  0.3445 -1.7988 -0.9945
 7467TIP3    H243817   2.375   4.344   1.478 -1.4763  1.9275  1.0585
 7468TIP3   OH243818   0.836   0.861   4.930 -0.0388 -0.0143 -0.1877
 7468TIP3    H143819   0.896   0.925   4.967  0.8299 -1.1474  0.4459
 7468TIP3    H243820   0.787   0.909   4.864  1.6814  0.9043 -0.8534
 7469TIP3   OH243821   4.444   3.421   0.042  0.5660 -0.5614 -0.1782
 7469TIP3    H143822   4.435   3.377   0.127 -1.8144 -0.1932 -0.1773
 7469TIP3    H243823   4.463   3.512   0.064 -1.1668 -0.2164  0.0597
 7470TIP3   OH243824   5.251   2.452   4.465  0.0853 -0.4985 -0.0462
 7470TIP3    H143825   5.318   2.404   4.416  0.1628  0.1442 -0.5802
 7470TIP3    H243826   5.174   2.450   4.407 -0.2447 -0.9024  0.3986
 7471TIP3   OH243827   0.779   0.575  13.034  0.1345 -0.2496 -0.8193
 7471TIP3    H143828   0.728   0.539  12.961  0.2442  0.9026 -1.4790
 7471TIP3    H243829   0.849   0.625  12.991 -0.1039  0.8667  0.0798
 7472TIP3   OH243830   5.237   0.059   0.260  0.3320  0.3322  0.0580
 7472TIP3    H143831   5.285   0.114   0.197 -0.1184  0.3027 -0.3169
 7472TIP3    H243832   5.171   0.117   0.297 -0.0828  0.0723 -0.2675
 7473TIP3   OH243833   4.452   5.479  11.282 -0.0509  0.2206  0.5207
 7473TIP3    H143834   4.492   5.392  11.291 -0.8042 -0.1259  0.6105
 7473TIP3    H243835   4.381   5.466  11.220  0.1024  0.8731  0.2021
 7474TIP3   OH243836   1.729   6.738   3.361  0.2118 -0.0688  0.1287
 7474TIP3    H143837   1.658   6.712   3.420  0.3525 -0.0232  0.3185
 7474TIP3    H243838   1.805   6.745   3.418  0.1571  0.8634  0.0927
 7475TIP3   OH243839   4.223   0.456   0.408  0.1173 -0.4323 -0.1294
 7475TIP3    H143840   4.199   0.363   0.401 -0.6900 -0.1944 -0.5935
 7475TIP3    H243841   4.288   0.469   0.339  1.1169 -0.9119  0.6841
 7476TIP3   OH243842   4.654   2.538  12.372 -0.1126  0.5919  0.1376
 7476TIP3    H143843   4.710   2.495  12.307  0.0575  1.3593 -0.2303
 7476TIP3    H243844   4.715   2.584  12.430 -0.3642  1.5640 -0.3603
 7477TIP3   OH243845   6.322   3.264  16.996  0.0556  0.4620 -0.5692
 7477TIP3    H143846   6.247   3.304  17.038 -0.7408  0.5512 -2.0044
 7477TIP3    H243847   6.394   3.325  17.010 -0.3122  0.7189  0.2002
 7478TIP3   OH243848   0.108   2.712   1.280 -0.2239 -0.4995  0.1844
 7478TIP3    H143849   0.175   2.751   1.336  0.5866 -0.4392 -0.7807
 7478TIP3    H243850   0.075   2.784   1.227 -0.2614 -0.7198 -0.0992
 7479TIP3   OH243851   1.349   3.274  15.995  0.2533 -0.4832  1.6234
 7479TIP3    H143852   1.327   3.184  15.971  0.0559  0.3513 -1.8662
 7479TIP3    H243853   1.274   3.326  15.966  2.0314  1.2030 -0.2530
 7480TIP3   OH243854   3.217   3.096  17.119 -0.3050  0.1751 -0.3162
 7480TIP3    H143855   3.226   3.156  17.045 -1.6517  0.0964 -0.5657
 7480TIP3    H243856   3.274   3.132  17.187  1.0062  0.2158 -1.3988
 7481TIP3   OH243857   0.766   5.181  11.409  0.1572  0.2993 -0.3447
 7481TIP3    H143858   0.826   5.116  11.372  0.5736  1.6214 -2.1472
 7481TIP3    H243859   0.794   5.190  11.500  2.6211  0.7121 -1.0703
 7482TIP3   OH243860   0.565   0.164   4.135  0.5200 -0.0120  0.9249
 7482TIP3    H143861   0.631   0.188   4.070 -0.1583  0.1515  0.2966
 7482TIP3    H243862   0.565   0.237   4.196 -0.9838  1.2786 -0.5557
 7483TIP3   OH243863   3.816   2.589  16.252  0.4853 -0.7766 -0.1066
 7483TIP3    H143864   3.742   2.529  16.263  0.0764 -0.3693 -0.5777
 7483TIP3    H243865   3.780   2.664  16.204  1.0871 -0.3434  0.0982
 7484TIP3   OH243866   2.739   3.966   4.050  0.5439  0.0947 -0.0138
 7484TIP3    H143867   2.755   4.049   4.095  0.0487  0.6840 -0.8912
 7484TIP3    H243868   2.778   3.900   4.107 -1.1149  0.6732  1.9099
 7485TIP3   OH243869   3.594   5.889  10.859 -0.3129  0.0682  1.0703
 7485TIP3    H143870   3.661   5.938  10.907  0.8823 -0.8540  0.3831
 7485TIP3    H243871   3.643   5.832  10.801 -1.7122 -0.5966  0.5048
 7486TIP3   OH243872   4.128   2.324   5.709 -0.5123 -0.3516  0.4988
 7486TIP3    H143873   4.158   2.401   5.661 -1.2280  1.1687  2.3707
 7486TIP3    H243874   4.200   2.261   5.702 -0.8424 -0.5510 -3.0742
 7487TIP3   OH243875   3.367   6.768  14.014 -0.4704 -0.0468 -0.2616
 7487TIP3    H143876   3.408   6.826  14.078 -1.3885  0.8055 -0.4138
 7487TIP3    H243877   3.358   6.684  14.060  1.8213 -0.4279 -0.3798
 7488TIP3   OH243878   4.470   4.938  16.091  0.1740 -0.2403  0.0858
 7488TIP3    H143879   4.445   4.880  16.164  3.3772 -0.3736  1.2259
 7488TIP3    H243880   4.432   4.896  16.014 -1.4961 -1.2857  1.3969
 7489TIP3   OH243881   4.085   3.374   0.943  0.5421 -0.3143 -0.0612
 7489TIP3    H143882   4.024   3.368   0.870  0.4228 -0.8065  0.0737
 7489TIP3    H243883   4.158   3.318   0.918  0.9097  0.2127 -0.1876
 7490TIP3   OH243884   1.363   6.686   5.796  0.2503  0.0393  0.2171
 7490TIP3    H143885   1.320   6.772   5.789  0.0573 -0.1547 -1.2194
 7490TIP3    H243886   1.330   6.650   5.878 -2.0587  0.0635 -0.6174
 7491TIP3   OH243887   2.905   5.734  15.402 -0.2482 -0.1028  0.0830
 7491TIP3    H143888   2.854   5.694  15.473  0.8513 -0.6932  0.5615
 7491TIP3    H243889   2.855   5.715  15.323 -0.3771 -1.3657  0.4463
 7492TIP3   OH243890   3.660   0.230   4.617 -0.4943  0.1823 -0.3468
 7492TIP3    H143891   3.738   0.277   4.586 -0.7967 -0.2128 -1.7756
 7492TIP3    H243892   3.610   0.296   4.664 -0.5706  1.1491 -1.7200
 7493TIP3   OH243893   0.981   2.274  13.974 -0.7063 -0.4088 -0.9653
 7493TIP3    H143894   1.019   2.192  14.006 -1.4735 -0.5898 -0.4786
 7493TIP3    H243895   0.951   2.255  13.886 -1.5164 -0.8738 -0.6023
 7494TIP3   OH243896   5.311   1.562   2.562  0.3948  0.6867  0.2708
 7494TIP3    H143897   5.235   1.558   2.621  0.0009  0.5248 -0.2334
 7494TIP3    H243898   5.370   1.494   2.594 -1.5409 -2.2815 -1.8216
 7495TIP3   OH243899   2.980   5.110  15.091  0.0033 -0.4250  0.3037
 7495TIP3    H143900   2.996   5.053  15.166 -0.5159 -0.9294  0.0401
 7495TIP3    H243901   2.888   5.134  15.099 -0.0171 -0.3681 -0.0916
 7496TIP3   OH243902   5.132   2.875  16.895  0.6638 -0.0672  0.0171
 7496TIP3    H143903   5.105   2.818  16.967  1.0306  0.9520  0.9895
 7496TIP3    H243904   5.226   2.860  16.886  0.9022  0.8733  0.7571
 7497TIP3   OH243905   1.686   6.248   2.902  0.2079 -0.0334 -0.0288
 7497TIP3    H143906   1.629   6.173   2.917 -0.3210  0.1581 -0.9500
 7497TIP3    H243907   1.773   6.211   2.889  0.3502 -0.3147  1.6224
 7498TIP3   OH243908   0.835   5.372   1.768 -0.2694  0.7729  0.3151
 7498TIP3    H143909   0.811   5.326   1.848  2.5137  1.1325  1.4506
 7498TIP3    H243910   0.865   5.303   1.708  3.1734  0.8184  1.7493
 7499TIP3   OH243911   2.790   2.392   6.421  0.5322 -0.6831  0.0557
 7499TIP3    H143912   2.822   2.306   6.396  1.1468 -1.3571  2.8003
 7499TIP3    H243913   2.740   2.377   6.501  0.5653  1.4829  0.5543
 7500TIP3   OH243914   6.565   0.014  11.966  0.0109  0.0211 -0.0713
 7500TIP3    H143915   6.575  -0.051  11.896 -0.1523 -2.3367  1.9637
 7500TIP3    H243916   6.635  -0.006  12.028 -0.8403  0.9707  1.2459
 7501TIP3   OH243917   0.436   1.781   2.875  0.0218 -0.0048  0.3328
 7501TIP3    H143918   0.376   1.711   2.903  1.5451 -0.8792  1.6002
 7501TIP3    H243919   0.510   1.774   2.935  0.8865  1.7814 -0.4571
 7502TIP3   OH243920   6.048   2.144  16.868 -0.0722  0.1299  0.0857
 7502TIP3    H143921   6.110   2.192  16.923  1.0981 -0.6001 -0.5435
 7502TIP3    H243922   6.090   2.059  16.854 -0.0708  0.4437 -2.2924
 7503TIP3   OH243923   5.611   4.588  14.826 -0.1354 -0.3512  1.1242
 7503TIP3    H143924   5.575   4.641  14.755  0.6809 -1.2091  0.0404
 7503TIP3    H243925   5.548   4.599  14.898 -0.3313  1.5234  0.7179
 7504TIP3   OH243926   4.194   6.214   4.069 -0.1352 -0.1129 -0.3646
 7504TIP3    H143927   4.204   6.301   4.030 -0.4957  0.1037  0.0201
 7504TIP3    H243928   4.152   6.162   4.000  1.3220 -0.3718 -1.0993
 7505TIP3   OH243929   3.599   5.729  14.820 -0.1779  0.0420  0.1009
 7505TIP3    H143930   3.527   5.687  14.867  1.2483 -0.1156  2.3016
 7505TIP3    H243931   3.578   5.823  14.821  0.1761  0.1391  1.8433
 7506TIP3   OH243932   5.825   4.360   0.847  0.2618  0.3739 -0.4122
 7506TIP3    H143933   5.902   4.417   0.848  0.8637 -0.4068  0.5818
 7506TIP3    H243934   5.759   4.407   0.897  1.4201 -0.5816  2.2481
 7507TIP3   OH243935   6.149   2.948   3.393 -0.2461  0.0596 -0.0702
 7507TIP3    H143936   6.166   2.862   3.353 -1.6017  0.2345 -1.0810
 7507TIP3    H243937   6.086   2.930   3.463  0.6291  0.0395  0.7372
 7508TIP3   OH243938   6.611   0.564  12.506  0.6052  0.2481  0.7721
 7508TIP3    H143939   6.594   0.647  12.550  0.9929  0.4835  0.4812
 7508TIP3    H243940   6.544   0.559  12.438  1.2911  0.8791  0.0326
 7509TIP3   OH243941   0.527   2.652  13.557  0.1001  0.3994  0.3303
 7509TIP3    H143942   0.472   2.714  13.603 -0.0722 -0.1238  0.8453
 7509TIP3    H243943   0.614   2.692  13.557  0.2114  0.2042  1.5441
 7510TIP3   OH243944   3.490   5.836   0.066  0.1651  0.0921  0.6286
 7510TIP3    H143945   3.541   5.799  -0.006 -0.7556 -0.6271  0.3300
 7510TIP3    H243946   3.413   5.780   0.072 -0.8780  1.4801  0.6842
 7511TIP3   OH243947   2.265   2.307  12.904 -0.3974  0.2819 -0.0593
 7511TIP3    H143948   2.247   2.398  12.925  0.2806  0.0683  1.5386
 7511TIP3    H243949   2.231   2.258  12.978  1.8948 -0.5321  0.5239
 7512TIP3   OH243950   6.656   2.323   3.850  0.2938  0.0364  0.5515
 7512TIP3    H143951   6.711   2.402   3.846 -0.5865  0.6607  0.4885
 7512TIP3    H243952   6.601   2.329   3.772  0.8616 -1.1384  0.0446
 7513TIP3   OH243953   1.803   1.391  16.180  0.4350 -0.6569  0.4164
 7513TIP3    H143954   1.876   1.332  16.202  0.9308 -0.2542 -0.1247
 7513TIP3    H243955   1.778   1.365  16.091  0.5078 -0.2009  0.2621
 7514TIP3   OH243956   5.721   3.361  14.496 -0.4376 -0.0458 -0.0192
 7514TIP3    H143957   5.751   3.308  14.570  0.7150 -0.9313 -1.0633
 7514TIP3    H243958   5.688   3.296  14.433 -0.0402  0.5701 -0.8717
 7515TIP3   OH243959   5.316   2.672   4.204  0.0740  0.4943 -0.0598
 7515TIP3    H143960   5.346   2.720   4.282  1.0994  1.9874 -1.3143
 7515TIP3    H243961   5.227   2.703   4.190 -0.3379 -0.2301  0.8292
 7516TIP3   OH243962   4.252   2.421   5.057  0.2668  0.3579 -0.1785
 7516TIP3    H143963   4.267   2.478   4.981  1.6692 -1.6065 -1.4941
 7516TIP3    H243964   4.204   2.475   5.119  3.2071  3.5923 -0.4834
 7517TIP3   OH243965   6.057   2.427  11.915  0.0938 -0.5111 -0.2870
 7517TIP3    H143966   6.129   2.403  11.856  1.6307  0.6525  1.0129
 7517TIP3    H243967   6.100   2.469  11.990 -1.6992 -2.3840  1.9630
 7518TIP3   OH243968   6.580   1.824  14.124  0.4404  0.1736  0.1278
 7518TIP3    H143969   6.518   1.897  14.125  0.0339 -0.1634  0.0892
 7518TIP3    H243970   6.573   1.785  14.211  0.7088  0.2243  0.1732
 7519TIP3   OH243971   4.659   4.842   2.755 -0.3393  0.1133 -0.3396
 7519TIP3    H143972   4.613   4.891   2.824  0.1841 -0.9462  0.7859
 7519TIP3    H243973   4.741   4.891   2.742 -0.7046  0.6565 -0.6617
 7520TIP3   OH243974   1.666   5.919  14.289 -0.3326  0.1411 -0.1532
 7520TIP3    H143975   1.737   5.884  14.343 -1.6652 -0.9001  1.0033
 7520TIP3    H243976   1.702   5.922  14.201  0.9031 -1.1214  0.2692
 7521TIP3   OH243977   1.033   0.539  11.612  0.5201 -0.0418  0.0136
 7521TIP3    H143978   1.015   0.602  11.681  0.4491  0.9306 -0.8619
 7521TIP3    H243979   0.947   0.501  11.591  0.5132 -0.1960  0.3123
 7522TIP3   OH243980   6.379   2.199  15.186 -0.0921 -0.4264  0.3702
 7522TIP3    H143981   6.401   2.120  15.235 -0.2685 -0.3323  0.6047
 7522TIP3    H243982   6.414   2.270  15.239 -0.7766 -0.2889  0.6468
 7523TIP3   OH243983   1.079   5.111   4.507 -0.4735  0.5921 -0.0266
 7523TIP3    H143984   1.023   5.052   4.557 -0.0009 -3.4733 -3.6842
 7523TIP3    H243985   1.165   5.101   4.546 -0.8475  0.7559  0.8522
 7524TIP3   OH243986   3.019   5.588   3.938 -0.1433 -0.1489  0.5742
 7524TIP3    H143987   2.925   5.602   3.932 -0.0452  1.2203  1.7153
 7524TIP3    H243988   3.041   5.536   3.861 -1.5066  1.3200 -0.8728
 7525TIP3   OH243989   6.285   1.118   1.214 -0.2596 -0.5110 -0.3208
 7525TIP3    H143990   6.251   1.201   1.248  0.3639 -0.4590  0.2003
 7525TIP3    H243991   6.211   1.078   1.170 -0.3987  0.6302 -1.1611
 7526TIP3   OH243992   5.215   4.558   5.275 -0.3070 -0.3215  0.4109
 7526TIP3    H143993   5.254   4.474   5.301  0.8132 -0.0496 -0.3483
 7526TIP3    H243994   5.289   4.612   5.248 -0.9957  0.9775  1.0113
 7527TIP3   OH243995   2.500   4.855   3.380 -0.3051  0.0428  0.0758
 7527TIP3    H143996   2.493   4.950   3.393 -0.9211  0.8013 -4.0950
 7527TIP3    H243997   2.584   4.844   3.336 -1.1436 -0.9617 -1.3797
 7528TIP3   OH243998   0.230   6.441  11.372  0.6117  0.5640  0.3395
 7528TIP3    H143999   0.281   6.408  11.446  1.0961 -1.0219 -0.6623
 7528TIP3    H244000   0.288   6.430  11.296 -0.3786  0.8841 -0.4834
 7529TIP3   OH244001   1.256   5.238  12.356 -0.4655  0.1780  0.0697
 7529TIP3    H144002   1.289   5.162  12.309 -0.3633 -1.5467  2.7310
 7529TIP3    H244003   1.303   5.312  12.317  1.6003 -1.4333 -0.6895
 7530TIP3   OH244004   4.659   6.194  16.330 -0.3266  0.2476 -0.1404
 7530TIP3    H144005   4.664   6.250  16.252  2.2503 -0.5117 -0.5933
 7530TIP3    H244006   4.590   6.131  16.310 -0.0929  0.4223 -1.5825
 7531TIP3   OH244007   2.432   5.006  13.510  0.0856 -0.2635 -0.7310
 7531TIP3    H144008   2.488   4.929  13.521  2.0833  1.2129  0.0567
 7531TIP3    H244009   2.390   5.017  13.595  0.6336  0.1133 -0.5041
 7532TIP3   OH244010   1.440   4.991  14.552  0.3546  0.4069  0.1131
 7532TIP3    H144011   1.383   4.944  14.612 -0.7450 -1.4054 -2.1890
 7532TIP3    H244012   1.405   5.080  14.550 -1.0827 -0.1251  0.3857
 7533TIP3   OH244013   3.876   0.432   6.621 -0.4087 -0.7237 -0.4857
 7533TIP3    H144014   3.814   0.458   6.689 -0.2082  1.9033 -1.2082
 7533TIP3    H244015   3.868   0.499   6.554  1.4187 -1.6957 -1.7689
 7534TIP3   OH244016   2.402   0.498   2.393  0.2339 -0.9581 -0.3144
 7534TIP3    H144017   2.431   0.590   2.392 -1.5045 -0.3591  0.2185
 7534TIP3    H244018   2.309   0.503   2.416  0.8279 -3.0518  3.1365
 7535TIP3   OH244019   3.965   6.264   0.087 -0.5342 -0.5291  0.4358
 7535TIP3    H144020   4.024   6.196   0.119  0.0353  0.0564  0.6592
 7535TIP3    H244021   3.923   6.226   0.010  3.2034  0.3886 -2.3812
 7536TIP3   OH244022   2.717   2.882  12.675  0.4663  0.4130 -0.1670
 7536TIP3    H144023   2.754   2.827  12.744 -0.7496  1.0930  1.0835
 7536TIP3    H244024   2.643   2.926  12.717 -0.8677  0.1971 -2.1568
 7537TIP3   OH244025   3.300   1.607   1.202 -0.0199  0.1395 -1.0096
 7537TIP3    H144026   3.272   1.585   1.114 -0.1420 -0.6096 -0.7904
 7537TIP3    H244027   3.358   1.536   1.228 -0.3642  0.0970 -0.3103
 7538TIP3   OH244028   3.737   3.515   0.190  0.5763 -0.3658  0.3874
 7538TIP3    H144029   3.687   3.559   0.122  1.0193  0.3313  0.4995
 7538TIP3    H244030   3.706   3.425   0.189 -2.1420  0.4289  1.7908
 7539TIP3   OH244031   4.545   2.057   3.706  0.4285 -0.1197 -0.2994
 7539TIP3    H144032   4.582   1.995   3.643 -2.3914 -2.1854 -0.1075
 7539TIP3    H244033   4.585   2.033   3.790  2.3222  1.0237 -0.8101
 7540TIP3   OH244034   1.635   4.166  15.946  0.0103 -0.6653  0.0588
 7540TIP3    H144035   1.721   4.202  15.926 -0.4630 -0.1389 -1.0785
 7540TIP3    H244036   1.645   4.072  15.932  0.3217 -0.5768 -0.3313
 7541TIP3   OH244037   5.789   3.373   5.981 -0.3276  0.6325 -0.0064
 7541TIP3    H144038   5.707   3.334   6.013 -1.1446  2.2454 -0.0187
 7541TIP3    H244039   5.789   3.355   5.887 -2.2771  3.1795 -0.6195
 7542TIP3   OH244040   6.153   4.982  12.403  0.2900 -0.0323  0.1841
 7542TIP3    H144041   6.160   5.075  12.425  1.9844 -0.1470  0.2224
 7542TIP3    H244042   6.060   4.970  12.385  0.1402  1.8333 -0.5608
 7543TIP3   OH244043   4.113   5.802   3.342 -0.0802  0.1436 -0.1764
 7543TIP3    H144044   4.162   5.778   3.263  0.4402 -1.0196  0.4619
 7543TIP3    H244045   4.068   5.721   3.368  2.4637 -0.5930  2.6017
 7544TIP3   OH244046   4.128   3.535   1.738 -0.3869 -0.7157 -0.0870
 7544TIP3    H144047   4.094   3.594   1.671  2.6168  2.6548  0.9807
 7544TIP3    H244048   4.068   3.544   1.812 -1.1540 -0.7891 -0.6874
 7545TIP3   OH244049   5.095   0.320   5.662 -0.8582 -0.2844 -0.5323
 7545TIP3    H144050   5.159   0.249   5.654 -0.2599  0.2980 -1.0358
 7545TIP3    H244051   5.028   0.285   5.721 -1.0012 -1.5767 -1.4097
 7546TIP3   OH244052   3.549   5.224   3.713 -0.6411 -0.5391 -0.3780
 7546TIP3    H144053   3.601   5.292   3.755  0.1168 -0.8156 -0.8419
 7546TIP3    H244054   3.506   5.178   3.785 -1.0856  0.3494 -0.0524
 7547TIP3   OH244055   5.199   5.507  11.501  0.3162  0.1688 -0.0995
 7547TIP3    H144056   5.218   5.554  11.420  0.3383 -0.0201 -0.2037
 7547TIP3    H244057   5.284   5.500  11.545  1.4560 -4.1819 -2.3836
 7548TIP3   OH244058   4.503   1.737  11.978 -0.4842  0.3863  0.1795
 7548TIP3    H144059   4.578   1.702  11.929 -0.3495  1.8182 -0.7103
 7548TIP3    H244060   4.538   1.754  12.066 -0.3198 -0.8018  0.3624
 7549TIP3   OH244061   1.979   4.329   3.342 -0.2506 -0.1912 -0.3221
 7549TIP3    H144062   2.053   4.290   3.389 -0.8119 -2.2811 -1.0393
 7549TIP3    H244063   1.999   4.313   3.249 -1.3764 -0.4125 -0.5440
 7550TIP3   OH244064   4.806   3.634   6.199 -0.1586  0.0945  0.1765
 7550TIP3    H144065   4.776   3.546   6.223  0.0269 -1.4161 -4.2105
 7550TIP3    H244066   4.729   3.676   6.160  0.7233  0.2474 -1.4779
 7551TIP3   OH244067   2.588   4.635   2.399  0.0244 -0.1573  0.7082
 7551TIP3    H144068   2.540   4.554   2.418  0.9482 -0.4922  1.7155
 7551TIP3    H244069   2.679   4.608   2.390  0.3056  0.7324  0.7583
 7552TIP3   OH244070   2.520   2.255   1.221 -0.0102 -0.6123 -0.2592
 7552TIP3    H144071   2.536   2.189   1.153  1.6190 -0.1630 -0.3388
 7552TIP3    H244072   2.607   2.283   1.249 -0.6446  1.6666 -0.3613
 7553TIP3   OH244073   1.536   6.267   4.798  0.1953 -0.3532 -0.5183
 7553TIP3    H144074   1.526   6.243   4.706  0.9147 -0.8584 -0.4714
 7553TIP3    H244075   1.452   6.244   4.838  0.2307 -1.0841 -0.8504
 7554TIP3   OH244076   2.875   3.977  14.299  0.2162 -0.0321 -0.1056
 7554TIP3    H144077   2.800   4.032  14.273  0.4698  0.4017  0.0747
 7554TIP3    H244078   2.837   3.911  14.357 -0.0587  0.0811 -0.1536
 7555TIP3   OH244079   6.747   3.821   1.750 -0.0722 -0.3800 -0.1405
 7555TIP3    H144080   6.694   3.746   1.722  1.3280 -0.9579 -1.3566
 7555TIP3    H244081   6.792   3.790   1.828 -1.4052  0.0932  0.8636
 7556TIP3   OH244082   5.672   1.291   0.802  0.1243  0.4709  0.0451
 7556TIP3    H144083   5.581   1.271   0.779  0.3034 -0.7292  0.3282
 7556TIP3    H244084   5.665   1.350   0.878 -0.4418 -1.1279  1.2981
 7557TIP3   OH244085   1.760   5.765   1.695 -0.5241  0.1705  0.8789
 7557TIP3    H144086   1.706   5.716   1.757 -2.5367  2.4550  1.0381
 7557TIP3    H244087   1.769   5.707   1.620 -3.1224 -0.3726  0.9077
 7558TIP3   OH244088   6.760   3.631  10.596  0.0158 -0.7900  0.0816
 7558TIP3    H144089   6.834   3.643  10.537  0.7412  0.8216  1.2298
 7558TIP3    H244090   6.694   3.693  10.565  0.0853 -0.5195  0.4663
 7559TIP3   OH244091   3.115   2.526   1.294  0.2857  0.1214  0.2255
 7559TIP3    H144092   3.112   2.572   1.210  0.3362  1.7712  1.0665
 7559TIP3    H244093   3.204   2.492   1.300  0.6705  1.0654  0.1160
 7560TIP3   OH244094   0.450   2.094   2.432 -0.5214  0.0512  0.2464
 7560TIP3    H144095   0.464   2.165   2.495  1.0244  1.3206 -1.4365
 7560TIP3    H244096   0.491   2.018   2.472 -0.4436  0.5741  1.1974
 7561TIP3   OH244097   5.959   5.843   3.528 -0.0191 -0.6308  0.6151
 7561TIP3    H144098   5.897   5.893   3.474  1.7029  1.1151  0.1567
 7561TIP3    H244099   5.979   5.765   3.475  0.0704  0.0374 -0.3729
 7562TIP3   OH244100   0.598   6.471   5.733  0.0113  0.0087 -0.5467
 7562TIP3    H144101   0.668   6.420   5.772  1.6585  1.5430 -1.3908
 7562TIP3    H244102   0.555   6.411   5.672 -0.4878 -1.4065  1.1234
 7563TIP3   OH244103   2.138   4.538   5.628 -0.5549 -0.3350  0.4510
 7563TIP3    H144104   2.073   4.609   5.624 -0.5140 -0.3476 -1.2197
 7563TIP3    H244105   2.122   4.496   5.712 -1.1797  1.0977  1.0834
 7564TIP3   OH244106   3.045   0.794  10.659 -0.0071  0.1798  0.1937
 7564TIP3    H144107   3.039   0.850  10.582 -1.0664 -0.7218 -0.4078
 7564TIP3    H244108   3.049   0.855  10.733 -2.1329  1.0839 -0.3707
 7565TIP3   OH244109   4.379   2.241   5.649  0.6331  0.4416 -0.4166
 7565TIP3    H144110   4.463   2.236   5.696  0.7144 -0.6757 -0.6407
 7565TIP3    H244111   4.399   2.208   5.562  0.3418  1.9073 -1.0709
 7566TIP3   OH244112   5.770   4.047  16.450 -0.0543 -0.3079  0.0631
 7566TIP3    H144113   5.761   3.995  16.371 -2.2606  1.4150 -0.9038
 7566TIP3    H244114   5.858   4.085  16.444  0.3383 -1.3053 -0.7961
 7567TIP3   OH244115   5.932   3.341  10.774 -0.4734 -0.1042 -0.2754
 7567TIP3    H144116   6.006   3.280  10.779  2.0647  2.7967  0.1392
 7567TIP3    H244117   5.918   3.369  10.864 -0.2876  1.3295 -0.6714
 7568TIP3   OH244118   3.566   4.156   3.914 -0.3042  0.0895  0.7376
 7568TIP3    H144119   3.583   4.111   3.831 -2.5287 -1.1408  0.8628
 7568TIP3    H244120   3.605   4.242   3.903  1.3798 -0.7895 -0.7184
 7569TIP3   OH244121   6.233   2.250  15.623 -0.0535  0.2348  0.1048
 7569TIP3    H144122   6.224   2.287  15.711  0.1811 -2.4538  1.3535
 7569TIP3    H244123   6.321   2.277  15.595 -0.0234  0.8957  0.7996
 7570TIP3   OH244124   4.956   4.694  16.603 -0.1285 -0.2121 -0.3860
 7570TIP3    H144125   5.046   4.668  16.581 -0.4111 -1.2876 -0.3418
 7570TIP3    H244126   4.941   4.773  16.552  1.3833  0.9356  0.8157
 7571TIP3   OH244127   2.952   1.801   1.274  0.1337 -0.3342 -0.0411
 7571TIP3    H144128   3.032   1.839   1.238 -0.1207 -0.3085 -0.5924
 7571TIP3    H244129   2.909   1.873   1.320  0.0458 -0.1498 -0.4089
 7572TIP3   OH244130   4.992   6.594  13.140  0.1652  0.1790 -0.0899
 7572TIP3    H144131   4.910   6.640  13.124  0.4974  0.1116 -2.2415
 7572TIP3    H244132   5.047   6.616  13.065  0.7596 -2.7421 -0.6184
 7573TIP3   OH244133   5.339   5.262  16.723 -0.3188 -0.0528  0.3669
 7573TIP3    H144134   5.306   5.238  16.637 -0.3449 -0.3684  0.4625
 7573TIP3    H244135   5.268   5.238  16.783  0.0468 -0.6660  0.5648
 7574TIP3   OH244136   3.685   5.207  11.627  0.5146 -0.8298  0.1746
 7574TIP3    H144137   3.735   5.286  11.605 -1.7658  0.1097 -2.0323
 7574TIP3    H244138   3.677   5.160  11.544 -1.0292 -1.6496  0.7613
 7575TIP3   OH244139   4.051   2.794   4.849  0.0412 -0.4241  0.5065
 7575TIP3    H144140   3.997   2.718   4.867 -0.7065  0.1644  0.8237
 7575TIP3    H244141   4.049   2.845   4.930 -0.4269  0.4958 -0.0612
 7576TIP3   OH244142   1.545   2.810  11.243  0.1394  0.2874 -0.4038
 7576TIP3    H144143   1.541   2.809  11.147 -0.3025 -0.0702 -0.3870
 7576TIP3    H244144   1.616   2.871  11.263  0.2815  0.3163 -0.9591
 7577TIP3   OH244145   6.652   4.145  15.088 -0.1830 -0.0973  0.1007
 7577TIP3    H144146   6.669   4.220  15.030 -2.5028 -0.1130 -0.6887
 7577TIP3    H244147   6.734   4.133  15.135  0.7286  2.0219 -0.8012
 7578TIP3   OH244148   1.774   0.937   0.524  0.6419  0.0459  0.1279
 7578TIP3    H144149   1.706   1.005   0.523  2.3952  1.8730  0.6154
 7578TIP3    H244150   1.819   0.947   0.440 -0.0860 -1.6891 -0.5461
 7579TIP3   OH244151   2.787   4.841   4.779  0.2946  0.4210  0.1251
 7579TIP3    H144152   2.796   4.893   4.700 -0.3251  0.6954  0.2307
 7579TIP3    H244153   2.717   4.884   4.829 -1.6255 -1.5737 -0.6714
 7580TIP3   OH244154   2.072   3.199  15.871  0.0657  0.0539 -0.1091
 7580TIP3    H144155   2.048   3.266  15.935  2.2900  1.2264 -0.4182
 7580TIP3    H244156   2.103   3.249  15.795 -0.4668 -1.3370 -1.2788
 7581TIP3   OH244157   4.860   5.791  14.267  0.1678 -0.8923 -0.1868
 7581TIP3    H144158   4.814   5.764  14.346  0.4840  0.4897  0.4974
 7581TIP3    H244159   4.819   5.740  14.197 -2.4431  0.2819  0.3633
 7582TIP3   OH244160   4.476   4.746  12.581 -0.5617  0.6672 -0.3674
 7582TIP3    H144161   4.402   4.802  12.560 -1.1279  0.0450 -0.0407
 7582TIP3    H244162   4.439   4.658  12.586 -0.2661  0.6359  2.2156
 7583TIP3   OH244163   5.333   4.435  10.463 -0.0885 -0.5321 -0.6869
 7583TIP3    H144164   5.302   4.346  10.478  0.4953 -0.6480 -0.1287
 7583TIP3    H244165   5.428   4.427  10.459 -0.0269  0.0720 -0.5742
 7584TIP3   OH244166   1.257   5.897  11.221  0.3946  0.2130  0.2635
 7584TIP3    H144167   1.233   5.858  11.137  0.7596 -1.6211  0.9815
 7584TIP3    H244168   1.178   5.944  11.249 -0.3798 -0.7742 -0.1946
 7585TIP3   OH244169   3.596   0.214   1.964 -0.0477  0.0634 -0.3833
 7585TIP3    H144170   3.621   0.201   2.055  1.3600  2.9749 -0.2422
 7585TIP3    H244171   3.631   0.137   1.919 -0.6345 -1.3600  1.4357
 7586TIP3   OH244172   5.963   5.454  14.478  0.1602 -0.1189 -0.2679
 7586TIP3    H144173   5.987   5.546  14.491 -0.3499  0.3032 -1.9978
 7586TIP3    H244174   6.035   5.405  14.518  0.8832  1.0542 -0.0739
 7587TIP3   OH244175   3.831   2.930   2.367  0.2544 -0.0791  0.8847
 7587TIP3    H144176   3.802   2.840   2.350  0.1891 -0.3495  2.2942
 7587TIP3    H244177   3.925   2.923   2.384  1.2920  0.7486 -3.2898
 7588TIP3   OH244178   5.502   1.820   4.932 -0.0787 -0.3989  0.2114
 7588TIP3    H144179   5.469   1.732   4.917  0.7617 -0.7169  0.1757
 7588TIP3    H244180   5.427   1.877   4.916 -0.4102 -1.0435 -0.5799
 7589TIP3   OH244181   5.043   6.152   3.858  0.3847  0.8012 -0.0935
 7589TIP3    H144182   4.992   6.147   3.939 -0.4983  2.9327 -0.4575
 7589TIP3    H244183   5.127   6.189   3.884  0.3849  0.7738 -0.0551
 7590TIP3   OH244184   4.562   0.946  12.387 -0.2812 -0.0950  0.1090
 7590TIP3    H144185   4.528   0.868  12.431  0.9900 -0.3229  0.7110
 7590TIP3    H244186   4.638   0.915  12.338 -0.2188  0.6236 -0.2593
 7591TIP3   OH244187   1.645   0.204   5.509  0.4396 -0.0614  0.0992
 7591TIP3    H144188   1.605   0.181   5.425  0.5709 -0.7777  0.2215
 7591TIP3    H244189   1.738   0.186   5.498  0.9099  2.3939 -0.4504
 7592TIP3   OH244190   0.640   5.449  11.421  0.6928 -0.0078  0.1225
 7592TIP3    H144191   0.591   5.493  11.351 -0.1971 -1.3640 -0.1538
 7592TIP3    H244192   0.652   5.360  11.389  2.0746 -0.1091  0.8503
 7593TIP3   OH244193   1.879   5.350  12.249  0.0949  0.2032  0.1905
 7593TIP3    H144194   1.937   5.338  12.324 -1.0487 -1.7727  0.8412
 7593TIP3    H244195   1.927   5.313  12.175  0.0083 -0.6975  0.5716
 7594TIP3   OH244196   6.322   0.216  12.338  0.0934 -0.3366 -0.0748
 7594TIP3    H144197   6.270   0.187  12.412  1.4022  0.8789  1.4024
 7594TIP3    H244198   6.404   0.247  12.377  1.6037 -1.3789 -2.2040
 7595TIP3   OH244199   2.043   4.007  12.583  0.0374  0.0157  0.4208
 7595TIP3    H144200   2.057   3.987  12.490  0.6772  0.6808  0.3614
 7595TIP3    H244201   1.998   3.930  12.618 -0.4054 -0.1512 -0.4876
 7596TIP3   OH244202   2.748   2.900   5.714 -0.8679  0.2868  0.0414
 7596TIP3    H144203   2.746   2.922   5.621 -0.6511  0.5683  0.0984
 7596TIP3    H244204   2.668   2.938   5.749 -1.2164 -0.2881 -0.1271
 7597TIP3   OH244205   1.135   6.627  14.032  0.6353 -0.1613 -1.1128
 7597TIP3    H144206   1.168   6.716  14.043  0.9114 -0.1587 -1.9191
 7597TIP3    H244207   1.178   6.594  13.953 -0.3373 -0.5987 -1.4870
 7598TIP3   OH244208   5.587   5.301   3.929  0.2384 -0.1838  0.4239
 7598TIP3    H144209   5.658   5.351   3.970 -1.4537  0.9124  2.1914
 7598TIP3    H244210   5.516   5.303   3.994 -1.4060 -1.2790 -1.2463
 7599TIP3   OH244211   2.783   3.162   2.809  0.4166 -0.0800  0.6999
 7599TIP3    H144212   2.799   3.072   2.836  1.0726 -0.2546 -0.2055
 7599TIP3    H244213   2.839   3.214   2.866 -0.2573 -0.1977  1.4908
 7600TIP3   OH244214   0.422   0.930  16.136 -0.1114  0.2708 -0.1730
 7600TIP3    H144215   0.369   0.861  16.175  1.2397 -0.2676  0.7919
 7600TIP3    H244216   0.415   1.004  16.197 -0.4024  0.4767 -0.4561
 7601TIP3   OH244217   1.102   5.439  16.843  0.0220  0.6354  0.7227
 7601TIP3    H144218   1.175   5.431  16.780 -1.4859 -0.4786 -1.0139
 7601TIP3    H244219   1.077   5.348  16.860 -1.7149  1.0010  0.2945
 7602TIP3   OH244220   6.178   6.063  11.637  0.0439 -0.0766 -0.0488
 7602TIP3    H144221   6.200   6.155  11.624 -1.0885  0.2104 -0.0696
 7602TIP3    H244222   6.261   6.021  11.661  0.3857  1.1423  1.0053
 7603TIP3   OH244223   5.951   4.772  17.175 -0.2696  0.8276 -0.7149
 7603TIP3    H144224   5.984   4.682  17.169 -1.0619  0.5821 -1.8434
 7603TIP3    H244225   5.867   4.763  17.219  1.0798  1.4596  2.2249
 7604TIP3   OH244226   6.652   5.650   4.354  0.3652  0.5736  0.1847
 7604TIP3    H144227   6.674   5.558   4.340  2.9075  1.1245  0.0101
 7604TIP3    H244228   6.730   5.698   4.325 -0.3169  2.7074  1.6089
 7605TIP3   OH244229   0.513   1.714   6.042  0.1564  0.5623  0.4050
 7605TIP3    H144230   0.566   1.663   5.981 -0.2949 -1.5733  1.7199
 7605TIP3    H244231   0.462   1.649   6.091 -1.1472  2.3350  1.5310
 7606TIP3   OH244232   4.156   1.385  14.357 -0.1362 -0.7750  0.4864
 7606TIP3    H144233   4.091   1.455  14.368 -0.4712 -0.9302 -0.4488
 7606TIP3    H244234   4.109   1.316  14.310  0.4666 -1.2359  0.5537
 7607TIP3   OH244235   2.370   6.239  16.511  0.4960 -0.5703  0.4603
 7607TIP3    H144236   2.439   6.249  16.577  0.8365  0.0143  0.0172
 7607TIP3    H244237   2.412   6.263  16.428 -0.2884 -0.0343  0.2110
 7608TIP3   OH244238   0.124   5.222  10.742  0.1226 -0.0647 -0.1389
 7608TIP3    H144239   0.153   5.140  10.782  0.4685 -0.0882 -0.4287
 7608TIP3    H244240   0.076   5.194  10.664  1.0565  0.0217 -0.7675
 7609TIP3   OH244241   3.600   1.770   4.053 -0.0473 -0.0893  0.6126
 7609TIP3    H144242   3.532   1.708   4.026 -0.7251  0.6016  0.7092
 7609TIP3    H244243   3.618   1.822   3.975 -1.0609  1.0350  1.0995
 7610TIP3   OH244244   6.666   2.904  12.209 -0.1368 -0.0951 -0.4394
 7610TIP3    H144245   6.753   2.892  12.173  0.0487  3.2578 -1.4759
 7610TIP3    H244246   6.667   2.857  12.292  3.4175  1.5332  0.6287
 7611TIP3   OH244247   3.818   0.998   0.502 -0.1758 -0.6905  0.2163
 7611TIP3    H144248   3.790   0.985   0.411  0.3858 -0.9088  0.0721
 7611TIP3    H244249   3.850   0.912   0.530  2.1026 -0.0518 -0.2438
 7612TIP3   OH244250   5.392   1.966  15.492  0.0925  0.5322 -0.2650
 7612TIP3    H144251   5.449   1.926  15.425  1.4858  0.9311  0.6400
 7612TIP3    H244252   5.364   1.892  15.547  3.2134  0.7145  1.8188
 7613TIP3   OH244253   6.767   5.276   3.816 -0.2149 -0.0096  0.1055
 7613TIP3    H144254   6.769   5.337   3.890 -0.9321  0.8229 -0.5488
 7613TIP3    H244255   6.751   5.191   3.857  0.6015  0.2518  1.0095
 7614TIP3   OH244256   1.061   5.640  12.328 -0.7814  0.4351  0.1342
 7614TIP3    H144257   1.063   5.573  12.397 -2.4441  1.3253  1.1014
 7614TIP3    H244258   1.066   5.723  12.376 -0.8860  1.0446 -0.8940
 7615TIP3   OH244259   1.138   2.727  13.341 -0.0603  0.4080  0.2516
 7615TIP3    H144260   1.128   2.758  13.431  2.0098 -0.3790  0.8036
 7615TIP3    H244261   1.083   2.787  13.289 -0.7172  1.3312  1.9267
 7616TIP3   OH244262   3.123   3.512   4.903 -0.1663 -0.5160 -0.3398
 7616TIP3    H144263   3.055   3.469   4.851  0.2145  0.4895 -1.7582
 7616TIP3    H244264   3.074   3.565   4.966 -0.7755  0.7288 -1.7854
 7617TIP3   OH244265   3.009   2.204  11.760 -0.3207 -0.2008  0.1646
 7617TIP3    H144266   3.022   2.185  11.853 -0.3193 -0.4367  0.1142
 7617TIP3    H244267   3.016   2.300  11.755  1.5058 -0.3070  0.1327
 7618TIP3   OH244268   2.447   6.012   1.410  0.3661 -0.5658 -0.5008
 7618TIP3    H144269   2.490   5.978   1.488 -0.0939  0.6299  0.3167
 7618TIP3    H244270   2.357   6.028   1.438  0.4895  1.0178 -0.8839
 7619TIP3   OH244271   2.274   1.505  10.744 -0.4288  0.3598  0.3371
 7619TIP3    H144272   2.298   1.552  10.664  1.5488 -0.7469  0.2232
 7619TIP3    H244273   2.276   1.413  10.719 -0.6219  0.0371  1.4656
 7620TIP3   OH244274   0.226   2.859  16.339 -0.3334  0.1605 -0.7005
 7620TIP3    H144275   0.321   2.868  16.350 -0.4259  0.7924 -0.3633
 7620TIP3    H244276   0.196   2.947  16.316 -0.8099 -0.0897 -1.0673
 7621TIP3   OH244277   1.506   2.019  12.132 -0.6493  0.1099 -0.0066
 7621TIP3    H144278   1.456   2.099  12.151 -1.6995 -0.1820 -1.4050
 7621TIP3    H244279   1.587   2.051  12.091 -0.9860  0.4714 -0.4023
 7622TIP3   OH244280   5.179   0.516  13.679  0.6033  0.0738 -0.1802
 7622TIP3    H144281   5.126   0.546  13.752 -0.1492 -0.8857 -0.3143
 7622TIP3    H244282   5.193   0.423  13.695  4.9547  0.7761  1.5347
 7623TIP3   OH244283   2.107   3.332   4.226  0.6312 -0.1707  0.1838
 7623TIP3    H144284   2.040   3.322   4.293  0.1234 -2.0662 -0.5394
 7623TIP3    H244285   2.152   3.247   4.225  1.0325  0.0370 -1.4204
 7624TIP3   OH244286   2.779   2.097  14.775 -0.0082  0.0708 -0.2422
 7624TIP3    H144287   2.832   2.079  14.852  1.8448  1.8813 -1.0229
 7624TIP3    H244288   2.813   2.037  14.708  2.6268  2.6077 -1.3449
 7625TIP3   OH244289   4.097   6.002  14.377  0.2570 -0.3871 -0.1853
 7625TIP3    H144290   4.078   5.996  14.471 -2.5371  0.0965 -0.6166
 7625TIP3    H244291   4.101   5.910  14.348 -1.3670 -0.5552  0.0311
 7626TIP3   OH244292   5.893   5.703   4.296  0.1503  0.2916  0.1807
 7626TIP3    H144293   5.820   5.642   4.284  0.8722 -0.3310 -1.1527
 7626TIP3    H244294   5.965   5.649   4.328  0.4632  0.6454  0.0760
 7627TIP3   OH244295   4.775   6.180   3.342 -0.1709  0.2768 -0.0691
 7627TIP3    H144296   4.747   6.093   3.316 -0.7779  0.2243  0.7000
 7627TIP3    H244297   4.869   6.172   3.359  0.0414  0.0942 -1.2540
 7628TIP3   OH244298   4.920   2.397  16.257 -0.1435 -0.0577  0.2716
 7628TIP3    H144299   4.995   2.399  16.197 -0.4115 -0.4706 -0.0876
 7628TIP3    H244300   4.957   2.412  16.343  0.3706 -0.3640  0.1088
 7629TIP3   OH244301   2.660   3.476   3.436 -0.0108  0.2332 -0.2187
 7629TIP3    H144302   2.635   3.566   3.458  0.4882  0.6508 -1.3035
 7629TIP3    H244303   2.733   3.485   3.374  0.3363 -0.9249 -0.0065
 7630TIP3   OH244304   2.933   0.857  14.921 -0.4719  0.7580  0.3329
 7630TIP3    H144305   2.892   0.876  14.837 -0.3813  1.1913  0.3828
 7630TIP3    H244306   2.863   0.822  14.975 -0.6903  1.1257  0.2916
 7631TIP3   OH244307   5.472   3.200   4.742  0.6672 -0.3954  0.0395
 7631TIP3    H144308   5.438   3.112   4.725 -1.0525  0.3951 -0.8037
 7631TIP3    H244309   5.433   3.224   4.827 -0.0334  0.0763 -0.4011
 7632TIP3   OH244310   0.099   2.826   5.667  0.0836 -0.7547 -0.3675
 7632TIP3    H144311   0.034   2.765   5.634  0.2815 -1.1693  0.0056
 7632TIP3    H244312   0.080   2.908   5.622 -0.1151 -1.1189 -0.9487
 7633TIP3   OH244313   6.791   3.633   0.779  0.0784  0.2244  0.3877
 7633TIP3    H144314   6.860   3.660   0.719  0.8249 -2.8319 -0.3228
 7633TIP3    H244315   6.717   3.609   0.723  1.1242 -3.6311  0.3350
 7634TIP3   OH244316   0.238   4.654   4.861  0.3185 -0.2235  0.2490
 7634TIP3    H144317   0.265   4.635   4.951  0.6238  0.5341  0.3237
 7634TIP3    H244318   0.279   4.585   4.809  1.1513  0.0292  0.5494
 7635TIP3   OH244319   1.388   4.106   5.649  0.4896 -0.1051  0.3138
 7635TIP3    H144320   1.384   4.106   5.745  1.5704 -0.3459  0.3641
 7635TIP3    H244321   1.445   4.033   5.627 -0.2122 -0.4122 -0.5527
 7636TIP3   OH244322   6.644   0.804  16.404 -0.5220 -0.1746 -0.2493
 7636TIP3    H144323   6.629   0.790  16.310  0.2063 -0.2726 -0.3627
 7636TIP3    H244324   6.665   0.716  16.437  2.4898  0.2753 -0.6514
 7637TIP3   OH244325   3.331   1.254   5.157 -0.0351  0.8896  0.0855
 7637TIP3    H144326   3.347   1.295   5.242 -2.4048  0.3420  0.8753
 7637TIP3    H244327   3.243   1.218   5.164 -0.1613  0.4931 -2.4961
 7638TIP3   OH244328   1.733   1.121   0.861  0.0861 -0.0127 -0.0393
 7638TIP3    H144329   1.797   1.143   0.793  0.8949  1.3602  1.1243
 7638TIP3    H244330   1.785   1.105   0.939 -0.9031 -0.6293  0.5219
 7639TIP3   OH244331   1.116   4.274  12.322 -0.0417 -0.1007 -0.0349
 7639TIP3    H144332   1.152   4.291  12.409 -0.6404  0.2465  0.1575
 7639TIP3    H244333   1.096   4.180  12.322  2.1624 -0.6181 -0.6655
 7640TIP3   OH244334   0.739   0.091  11.812  0.5460 -0.0543 -0.4291
 7640TIP3    H144335   0.799   0.040  11.866 -1.5985  0.0482  2.2679
 7640TIP3    H244336   0.655   0.047  11.822 -0.6214  1.9266 -0.9870
 7641TIP3   OH244337   1.379   2.326  14.764  0.1113 -0.4072  0.5445
 7641TIP3    H144338   1.298   2.282  14.737 -0.2488  1.7145 -2.2510
 7641TIP3    H244339   1.427   2.260  14.814 -2.9403 -2.0024  1.6123
 7642TIP3   OH244340   1.320   0.318   1.453 -0.6199  0.4884 -0.8090
 7642TIP3    H144341   1.290   0.251   1.392  2.1486 -1.6686 -0.0049
 7642TIP3    H244342   1.367   0.381   1.398 -0.9484  0.3335 -1.2672
 7643TIP3   OH244343   3.497   5.937  14.402 -0.2653 -0.0518 -0.0121
 7643TIP3    H144344   3.486   5.993  14.479 -0.9731 -0.2522  0.0429
 7643TIP3    H244345   3.510   5.849  14.438  1.8194  0.1928 -0.0726
 7644TIP3   OH244346   2.069   3.392  16.065 -0.6691  0.2727  0.6194
 7644TIP3    H144347   2.026   3.477  16.079 -0.2674  0.4564  0.7432
 7644TIP3    H244348   2.158   3.404  16.098 -0.4593 -0.0464  0.1787
 7645TIP3   OH244349   2.767   5.126   3.749  0.5105  0.2772 -0.2162
 7645TIP3    H144350   2.794   5.135   3.840 -0.1957 -0.8231  0.1335
 7645TIP3    H244351   2.699   5.193   3.737 -1.7428 -1.5999  1.0912
 7646TIP3   OH244352   3.904   3.172   4.237 -0.4697  0.1201 -0.4213
 7646TIP3    H144353   3.822   3.146   4.277 -0.7413  1.1072 -0.3309
 7646TIP3    H244354   3.941   3.237   4.297  0.6959 -0.7753 -0.1286
 7647TIP3   OH244355   3.788   1.900  16.083  0.4703  0.1493 -0.4039
 7647TIP3    H144356   3.858   1.868  16.026  1.6154 -0.4769  1.2706
 7647TIP3    H244357   3.809   1.864  16.169 -2.8849 -1.5210 -0.1352
 7648TIP3   OH244358   5.427   6.708   4.782 -0.3127  0.2914  0.0643
 7648TIP3    H144359   5.499   6.762   4.751  0.6275 -0.4726  0.8300
 7648TIP3    H244360   5.463   6.619   4.784 -1.0877 -0.0240  1.0005
 7649TIP3   OH244361   5.553   4.663  16.815 -0.5520 -0.2932  0.0707
 7649TIP3    H144362   5.575   4.624  16.899 -0.5249  1.3297  0.8604
 7649TIP3    H244363   5.459   4.651  16.806 -0.5406 -0.5378  0.2872
 7650TIP3   OH244364   4.313   1.658  12.777 -0.3477  0.0126  0.1720
 7650TIP3    H144365   4.284   1.634  12.689  0.3560 -0.4014  0.0443
 7650TIP3    H244366   4.258   1.607  12.836  0.4792 -1.2199 -0.0815
 7651TIP3   OH244367   5.791   0.689   0.831  0.2649 -0.5914  0.6137
 7651TIP3    H144368   5.718   0.633   0.857 -0.4008 -0.5736 -1.0732
 7651TIP3    H244369   5.829   0.646   0.755  0.7058  0.4533  0.2173
 7652TIP3   OH244370   0.072   1.441   3.746  0.1259  0.3076 -0.0691
 7652TIP3    H144371   0.031   1.357   3.725  1.6417  0.0829 -2.6151
 7652TIP3    H244372   0.012   1.483   3.808 -0.4034 -2.8339  1.7503
 7653TIP3   OH244373   6.753   5.986  11.604  0.6884  0.1584 -0.0125
 7653TIP3    H144374   6.801   5.981  11.687 -0.2504 -1.8623  0.4758
 7653TIP3    H244375   6.700   6.065  11.612  2.1923  1.1653  0.3949
 7654TIP3   OH244376   0.204   0.771   3.930 -0.0011 -0.0577  0.3455
 7654TIP3    H144377   0.261   0.708   3.976  1.3377 -0.3120 -1.5087
 7654TIP3    H244378   0.262   0.844   3.909 -1.2068  1.1906  1.2485
 7655TIP3   OH244379   2.345   0.465  13.621 -0.4485 -0.5087  0.2301
 7655TIP3    H144380   2.283   0.536  13.609  0.4847  0.3499  0.3084
 7655TIP3    H244381   2.299   0.400  13.674 -2.1813 -1.1160 -1.8744
 7656TIP3   OH244382   6.741   1.217  14.210  0.3959 -0.0367  0.3669
 7656TIP3    H144383   6.684   1.290  14.232  0.8729 -0.0196  1.6046
 7656TIP3    H244384   6.715   1.192  14.121 -0.4824  0.9487  0.3332
 7657TIP3   OH244385   0.123   2.819  12.059 -0.3418  0.0245  0.4062
 7657TIP3    H144386   0.189   2.803  11.991  0.9425  0.3785  1.5245
 7657TIP3    H244387   0.059   2.749  12.048  1.1310 -1.3667  0.3778
 7658TIP3   OH244388   2.745   4.203   0.418  0.1571 -0.4632  0.1086
 7658TIP3    H144389   2.674   4.142   0.437  0.3973 -0.9302 -0.4639
 7658TIP3    H244390   2.765   4.244   0.502 -1.3907  0.3251  0.1277
 7659TIP3   OH244391   1.360   2.818   4.899 -0.4087  0.6207 -0.0134
 7659TIP3    H144392   1.294   2.763   4.857  1.6940 -0.1431 -2.6105
 7659TIP3    H244393   1.354   2.797   4.992 -0.9022 -2.7037 -0.6809
 7660TIP3   OH244394   2.613   0.239   1.708  0.0004  0.0171  0.0471
 7660TIP3    H144395   2.647   0.327   1.690 -1.4902  0.8121  0.9101
 7660TIP3    H244396   2.584   0.207   1.622 -0.9316  1.0463 -0.0420
 7661TIP3   OH244397   0.731   3.094   2.999  0.7164  0.1373 -0.0983
 7661TIP3    H144398   0.651   3.144   2.984  0.2510  0.1291  1.9919
 7661TIP3    H244399   0.734   3.032   2.926  0.6993  2.3553 -2.1056
 7662TIP3   OH244400   1.424   3.603  12.955 -0.2899  0.2667 -0.1492
 7662TIP3    H144401   1.358   3.661  12.993 -1.5435 -1.3818  0.2890
 7662TIP3    H244402   1.452   3.649  12.876 -0.8722  1.6940  0.4257
 7663TIP3   OH244403   2.012   1.434   3.119  0.5417  0.0947 -0.1950
 7663TIP3    H144404   2.012   1.498   3.190  1.3617  0.8618 -0.8566
 7663TIP3    H244405   2.097   1.445   3.077  0.0731 -0.3450 -1.2943
 7664TIP3   OH244406   6.571   1.315   1.877 -0.6481 -0.3783 -0.3145
 7664TIP3    H144407   6.526   1.367   1.944 -1.0826 -0.3966 -0.5871
 7664TIP3    H244408   6.590   1.232   1.920 -2.9468 -1.2702 -0.8517
 7665TIP3   OH244409   5.331   2.605   0.323  0.4818 -0.1565 -0.0509
 7665TIP3    H144410   5.361   2.522   0.286  2.8198  0.7445 -0.3420
 7665TIP3    H244411   5.366   2.671   0.264 -0.8466  1.0959  0.5052
 7666TIP3   OH244412   4.413   0.896   4.293  0.2609 -0.3854 -0.4228
 7666TIP3    H144413   4.331   0.932   4.326  0.9034 -1.0709  2.1389
 7666TIP3    H244414   4.407   0.905   4.198 -1.7886  1.6440 -0.1720
 7667TIP3   OH244415   3.967   5.259  15.909  0.4548  0.0853 -0.4715
 7667TIP3    H144416   3.882   5.302  15.896  0.5281  0.7197  0.9541
 7667TIP3    H244417   4.030   5.318  15.868  0.3002  0.0559 -0.7542
 7668TIP3   OH244418   2.587   6.278  14.766 -0.1381 -0.4829 -0.4123
 7668TIP3    H144419   2.590   6.192  14.725 -2.2436 -0.5825 -0.4810
 7668TIP3    H244420   2.599   6.340  14.694  0.7119 -0.6967 -0.4612
 7669TIP3   OH244421   2.331   0.905  15.993 -0.4229  0.0992 -0.4335
 7669TIP3    H144422   2.369   0.842  15.932 -0.3020 -1.2808  1.0212
 7669TIP3    H244423   2.383   0.896  16.073 -2.5526 -0.4372  0.9564
 7670TIP3   OH244424   0.573   1.731  14.105 -0.0669  0.4644  0.2138
 7670TIP3    H144425   0.535   1.786  14.037 -0.1179 -0.3448 -0.4185
 7670TIP3    H244426   0.618   1.792  14.163 -1.2589  1.3140  0.2778
 7671TIP3   OH244427   0.785   2.400   4.795  0.3473  0.1022 -0.1334
 7671TIP3    H144428   0.778   2.495   4.791  2.5145  0.3129 -0.1687
 7671TIP3    H244429   0.775   2.371   4.705  1.2943  0.4524 -0.3536
 7672TIP3   OH244430   6.637   5.363  16.912  0.0002  0.5750 -0.0090
 7672TIP3    H144431   6.605   5.378  17.001  0.9568  1.4835  0.1995
 7672TIP3    H244432   6.705   5.429  16.899  0.8693 -0.4477 -0.9099
 7673TIP3   OH244433   2.005   4.496  13.975  0.2915  0.3296  0.0114
 7673TIP3    H144434   2.072   4.441  14.014  2.6024  2.3415 -0.8012
 7673TIP3    H244435   2.030   4.502  13.883 -0.9781  1.2185 -0.3075
 7674TIP3   OH244436   4.302   6.243  14.459  0.3809  0.2050 -0.1258
 7674TIP3    H144437   4.309   6.162  14.508  2.0818 -0.0414 -0.7024
 7674TIP3    H244438   4.371   6.299  14.494 -1.7179  2.0713  1.3484
 7675TIP3   OH244439   2.865   5.619  14.052 -0.7964  0.2825 -0.0804
 7675TIP3    H144440   2.950   5.663  14.045  0.3525 -1.9836 -1.7182
 7675TIP3    H244441   2.850   5.612  14.146  0.2870  1.6936  0.2336
 7676TIP3   OH244442   2.440   2.902  15.418 -0.2075 -0.1127  0.1922
 7676TIP3    H144443   2.412   2.818  15.381 -1.6011  0.8125 -0.9769
 7676TIP3    H244444   2.386   2.913  15.496 -0.1761 -0.2088  0.2279
 7677TIP3   OH244445   4.545   2.939  12.740  0.3462  0.2222  0.4851
 7677TIP3    H144446   4.547   2.854  12.783  0.6098 -0.5976 -1.0549
 7677TIP3    H244447   4.622   2.985  12.774  0.6145 -0.4389  0.7978
 7678TIP3   OH244448   6.600   1.728   0.484  0.6343  0.3777 -0.4033
 7678TIP3    H144449   6.576   1.676   0.407 -1.5427  0.4514  0.1754
 7678TIP3    H244450   6.641   1.807   0.449  0.3013  0.0950 -1.4481
 7679TIP3   OH244451   1.199   6.450  15.149  0.2693  0.3144 -0.5753
 7679TIP3    H144452   1.201   6.538  15.110 -1.8352 -0.4719 -2.7733
 7679TIP3    H244453   1.138   6.402  15.093  0.0826 -2.0942  1.5485
 7680TIP3   OH244454   6.088   4.736   0.540 -0.2471  0.1781  0.2300
 7680TIP3    H144455   6.005   4.737   0.589 -0.2842  0.0821  0.1690
 7680TIP3    H244456   6.153   4.766   0.603 -0.5231  1.5019 -0.0823
 7681TIP3   OH244457   1.245   2.589   0.588 -0.1659 -0.3198 -0.1342
 7681TIP3    H144458   1.155   2.621   0.585  0.1325  0.5843  0.2099
 7681TIP3    H244459   1.294   2.647   0.530  0.4566  0.1221  0.8058
 7682TIP3   OH244460   6.225   0.409   1.894  0.0957 -0.0641 -0.0581
 7682TIP3    H144461   6.276   0.328   1.887  1.0311  0.4348  0.7329
 7682TIP3    H244462   6.174   0.398   1.975 -1.2217 -0.6277 -0.9247
 7683TIP3   OH244463   0.600   4.164  12.168  0.3311 -0.1133 -0.0378
 7683TIP3    H144464   0.524   4.209  12.206  2.0919  1.8530  1.3962
 7683TIP3    H244465   0.600   4.078  12.210 -1.4796 -0.4419 -0.6264
 7684TIP3   OH244466   3.613   5.912  16.534  0.2359  0.1258  0.2877
 7684TIP3    H144467   3.546   5.980  16.531 -0.8227 -0.9149 -2.0669
 7684TIP3    H244468   3.693   5.959  16.557 -0.3185  2.3414 -1.8400
 7685TIP3   OH244469   5.985   3.441   1.185  0.2608 -0.7346 -0.0829
 7685TIP3    H144470   5.928   3.484   1.122 -0.7595  0.0291  1.3018
 7685TIP3    H244471   5.946   3.461   1.270  1.7549 -1.4746  0.8199
 7686TIP3   OH244472   3.113   0.021   6.260 -0.3039  0.1312  0.0966
 7686TIP3    H144473   3.022  -0.010   6.264  0.2160 -1.7154 -1.2709
 7686TIP3    H244474   3.166  -0.055   6.282  1.0157 -0.0346 -3.1401
 7687TIP3   OH244475   0.461   4.546   2.214  0.2127 -0.2323  0.2468
 7687TIP3    H144476   0.472   4.496   2.133 -0.5016 -0.9495  0.5761
 7687TIP3    H244477   0.438   4.480   2.280 -1.7415  0.6146  0.4834
 7688TIP3   OH244478   2.236   5.518  16.406 -0.2609 -0.0242 -0.0925
 7688TIP3    H144479   2.308   5.540  16.347  0.0913  1.0898  0.7386
 7688TIP3    H244480   2.275   5.461  16.472 -0.3147 -0.0382 -0.0736
 7689TIP3   OH244481   0.494   0.581  12.046  0.0090  1.0225 -0.1348
 7689TIP3    H144482   0.520   0.515  11.982  0.0807  0.8162  0.1006
 7689TIP3    H244483   0.405   0.556  12.071 -0.0972  1.2258 -0.3087
 7690TIP3   OH244484   2.373   5.528   1.934  0.0884  0.1709 -0.4755
 7690TIP3    H144485   2.447   5.536   1.873  0.5439 -2.4177 -0.3826
 7690TIP3    H244486   2.297   5.512   1.878  0.3484 -1.2603 -0.4668
 7691TIP3   OH244487   0.909   6.191  11.512 -0.0104  0.7466  0.5329
 7691TIP3    H144488   0.897   6.275  11.555  0.5742  0.6681  0.8519
 7691TIP3    H244489   0.926   6.129  11.583 -0.8911  0.2671  0.3413
 7692TIP3   OH244490   4.773   3.991   1.517  0.7031 -0.2044  0.5789
 7692TIP3    H144491   4.694   3.960   1.472  0.2241  0.3281  1.0326
 7692TIP3    H244492   4.835   3.919   1.509 -0.5032 -1.4771  1.9242
 7693TIP3   OH244493   2.892   0.966  12.985 -0.0457  0.1840  0.2052
 7693TIP3    H144494   2.859   0.876  12.983 -0.6524  0.3969  0.2452
 7693TIP3    H244495   2.894   0.990  13.078  0.3325  0.1332  0.2104
 7694TIP3   OH244496   4.734   1.364  16.682 -0.0976  0.5191 -0.3807
 7694TIP3    H144497   4.642   1.341  16.670 -0.3770  0.6880  1.2152
 7694TIP3    H244498   4.757   1.329  16.768  1.1389  1.0789 -0.4564
 7695TIP3   OH244499   3.558   6.576   0.137  0.0035 -0.2758  0.1024
 7695TIP3    H144500   3.650   6.553   0.131  0.6795  2.4323 -1.2304
 7695TIP3    H244501   3.533   6.600   0.048 -1.2021  1.6708  0.8895
 7696TIP3   OH244502   4.610   0.221  12.580 -0.0216  0.2171 -0.3742
 7696TIP3    H144503   4.554   0.298  12.570  1.4355  1.1767 -1.5151
 7696TIP3    H244504   4.604   0.198  12.673 -0.1021  2.0031  0.0855
 7697TIP3   OH244505   5.983   5.187  15.699 -0.1740 -0.0093  0.3060
 7697TIP3    H144506   6.065   5.162  15.740 -0.2011 -0.2958  0.1870
 7697TIP3    H244507   5.942   5.246  15.763 -1.6005 -2.7501  2.1265
 7698TIP3   OH244508   4.168   1.922  13.759 -0.2190  0.7021 -0.3015
 7698TIP3    H144509   4.224   1.978  13.705 -0.2041  1.4365  0.4633
 7698TIP3    H244510   4.200   1.833  13.742  2.3632  1.1958  1.3893
 7699TIP3   OH244511   3.584   5.436   6.004 -0.1086  0.2707  0.0700
 7699TIP3    H144512   3.545   5.396   5.927  0.0123 -1.6479  0.9584
 7699TIP3    H244513   3.676   5.408   6.002 -0.6338 -1.8696  2.1394
 7700TIP3   OH244514   5.647   4.599   3.062  0.6601 -0.0048 -0.4091
 7700TIP3    H144515   5.656   4.642   3.147  2.7900 -1.9180  0.4490
 7700TIP3    H244516   5.731   4.615   3.018  0.2600 -0.5509 -1.3970
 7701TIP3   OH244517   6.174   6.405  13.109  0.3257 -0.3277  0.0137
 7701TIP3    H144518   6.245   6.468  13.103  0.0468 -0.0591 -0.6516
 7701TIP3    H244519   6.155   6.382  13.018 -2.3705  1.8327 -0.1003
 7702TIP3   OH244520   4.424   1.864  15.655 -0.2230 -0.6878 -0.3125
 7702TIP3    H144521   4.437   1.775  15.621  0.1749 -0.3766 -1.0173
 7702TIP3    H244522   4.512   1.901  15.656 -0.7206  0.9828 -3.7430
 7703TIP3   OH244523   6.199   4.789  16.629 -0.0552  0.0177  0.1260
 7703TIP3    H144524   6.223   4.882  16.621  0.8476 -0.1102  1.1268
 7703TIP3    H244525   6.166   4.780  16.718  0.7801 -0.8076  0.3676
 7704TIP3   OH244526   2.904   2.877   2.468  0.0248  0.0409 -0.4699
 7704TIP3    H144527   2.875   2.964   2.497  1.6815  0.7263 -0.7498
 7704TIP3    H244528   2.956   2.843   2.541 -1.4982 -1.2131  0.0746
 7705TIP3   OH244529   5.715   3.457   1.573  0.9036 -0.1844  0.2036
 7705TIP3    H144530   5.619   3.457   1.572  0.8841 -1.4649  0.4568
 7705TIP3    H244531   5.738   3.548   1.593 -0.1793  0.7434 -2.3980
 7706TIP3   OH244532   4.523   2.782   1.213 -0.4504 -0.2870  0.1861
 7706TIP3    H144533   4.567   2.697   1.207 -2.3032 -1.2702 -0.5091
 7706TIP3    H244534   4.569   2.837   1.150  0.2995 -1.0026  0.0893
 7707TIP3   OH244535   4.819   4.631  12.818 -0.4773 -0.2043 -0.1291
 7707TIP3    H144536   4.879   4.686  12.870 -1.2622  0.6136 -0.0673
 7707TIP3    H244537   4.871   4.554  12.796  0.6446  0.5328 -0.1688
 7708TIP3   OH244538   4.816   4.173   5.521 -0.2127  0.3106 -0.1396
 7708TIP3    H144539   4.808   4.241   5.455 -0.5327  0.6494  0.2448
 7708TIP3    H244540   4.857   4.217   5.596  0.3557 -0.1220 -0.1872
 7709TIP3   OH244541   0.111   0.928   2.970  0.7093  0.1555 -0.1640
 7709TIP3    H144542   0.027   0.972   2.979  0.8029  0.0769  1.3503
 7709TIP3    H244543   0.116   0.903   2.877 -0.8126  0.3857 -0.3251
 7710TIP3   OH244544   4.332   2.130   2.968  0.0936  0.0355 -0.5292
 7710TIP3    H144545   4.241   2.158   2.970  0.2581  0.6953 -1.4418
 7710TIP3    H244546   4.369   2.164   3.049 -0.4284 -0.0796 -0.2381
 7711TIP3   OH244547   4.383   2.346  15.393 -0.3660 -0.2816  0.5256
 7711TIP3    H144548   4.415   2.344  15.302 -1.7967 -0.0446 -0.0133
 7711TIP3    H244549   4.436   2.280  15.438  0.5001 -0.2716 -0.4331
 7712TIP3   OH244550   5.186   1.140  12.899  0.8293  0.0127  0.0994
 7712TIP3    H144551   5.220   1.058  12.936 -1.1338 -0.2330  1.5028
 7712TIP3    H244552   5.165   1.193  12.976 -0.5272  0.7201 -0.7374
 7713TIP3   OH244553   3.351   5.555   2.798 -0.0285 -0.2929  0.0449
 7713TIP3    H144554   3.258   5.579   2.800 -0.3867 -1.6400  0.0522
 7713TIP3    H244555   3.352   5.460   2.793  1.3640 -0.3105  0.1666
 7714TIP3   OH244556   3.051   5.800  14.954 -0.0913  0.1689 -0.0858
 7714TIP3    H144557   3.059   5.842  15.040 -0.6082 -0.2385  0.1651
 7714TIP3    H244558   3.053   5.706  14.973 -0.0881  0.0750 -0.5322
 7715TIP3   OH244559   5.548   4.434   0.519 -1.0564  0.3403 -0.2756
 7715TIP3    H144560   5.626   4.484   0.544 -2.4536  2.3861  0.2665
 7715TIP3    H244561   5.582   4.362   0.466  1.1738  1.3390 -0.3437
 7716TIP3   OH244562   6.283   2.704  16.774  0.1305  0.0449 -0.1577
 7716TIP3    H144563   6.277   2.661  16.860  0.1360  3.3183  1.6565
 7716TIP3    H244564   6.201   2.682  16.731 -0.6683 -0.3039  1.4537
 7717TIP3   OH244565   0.687   4.828  14.688  0.0176  0.5563 -0.7668
 7717TIP3    H144566   0.773   4.837  14.646  0.3301 -1.1160 -0.5547
 7717TIP3    H244567   0.706   4.785  14.772 -1.2644 -2.9380 -2.0769
 7718TIP3   OH244568   2.493   3.851  13.520  0.1096  0.4776  0.3498
 7718TIP3    H144569   2.457   3.918  13.578  2.0270  1.8861  0.0005
 7718TIP3    H244570   2.421   3.790  13.507 -1.1469  1.4735  2.1673
 7719TIP3   OH244571   3.810   0.836   1.521  0.1613  1.0623  0.2020
 7719TIP3    H144572   3.843   0.925   1.513  1.0802  0.5719 -3.2015
 7719TIP3    H244573   3.714   0.845   1.515  0.1583  1.8743  1.2296
 7720TIP3   OH244574   3.328   4.627  15.246 -0.0513 -0.3018  0.4890
 7720TIP3    H144575   3.328   4.720  15.267 -0.5734  0.0517 -0.9560
 7720TIP3    H244576   3.238   4.599  15.261  0.5294 -1.1155  2.9428
 7721TIP3   OH244577   3.387   5.825  14.163  0.1856  1.0347  0.1353
 7721TIP3    H144578   3.426   5.738  14.169  1.9749  1.5765 -2.2624
 7721TIP3    H244579   3.437   5.879  14.223  0.6070  0.8904 -0.0841
 7722TIP3   OH244580   2.446   0.007  14.427  0.3384  0.2982 -0.1803
 7722TIP3    H144581   2.494   0.089  14.415  0.4911 -0.0712 -2.7209
 7722TIP3    H244582   2.357   0.035  14.449  0.1569  1.2495 -1.8792
 7723TIP3   OH244583   2.581   5.360  11.826 -0.3688 -0.2349  0.1029
 7723TIP3    H144584   2.536   5.350  11.910 -0.3199  1.9528  0.4593
 7723TIP3    H244585   2.673   5.371  11.850 -0.2706 -0.2036 -0.2804
 7724TIP3   OH244586   2.672   1.024   2.207  0.4115  0.6912 -0.2278
 7724TIP3    H144587   2.686   0.936   2.173  0.3990  0.1081  1.1880
 7724TIP3    H244588   2.631   1.010   2.293 -1.1658  2.1215 -0.6915
 7725TIP3   OH244589   6.421   4.846  14.301 -0.8013 -0.8733  0.1193
 7725TIP3    H144590   6.358   4.856  14.229 -1.0166 -1.8853  0.1395
 7725TIP3    H244591   6.500   4.811  14.258 -1.0370 -1.7831  0.4011
 7726TIP3   OH244592   3.216   0.582   1.090 -0.4110  0.5023 -0.4874
 7726TIP3    H144593   3.192   0.490   1.104  2.5529 -0.3125 -0.0847
 7726TIP3    H244594   3.183   0.627   1.167 -0.3239 -0.5723  0.2038
 7727TIP3   OH244595   1.993   0.087   0.936 -0.1104 -0.2156  0.0505
 7727TIP3    H144596   2.036   0.002   0.929  0.2072  0.0271 -1.1573
 7727TIP3    H244597   1.977   0.114   0.846 -0.6032  0.8155  0.4234
 7728TIP3   OH244598   6.576   5.909   0.078 -0.5861 -0.3057 -0.0401
 7728TIP3    H144599   6.628   5.889  -0.000  0.5002  0.2209  0.5253
 7728TIP3    H244600   6.597   6.000   0.098  0.2877 -0.8514  1.7039
 7729TIP3   OH244601   4.946   2.882  11.149  0.1677 -0.2259  0.2077
 7729TIP3    H144602   4.903   2.807  11.190 -1.1774 -0.2724 -1.2218
 7729TIP3    H244603   5.039   2.857  11.146 -0.3798 -2.3584 -1.2511
 7730TIP3   OH244604   6.636   3.169  12.802 -0.1406  0.3828 -0.0027
 7730TIP3    H144605   6.560   3.129  12.844  1.8643 -0.1980  3.4532
 7730TIP3    H244606   6.699   3.098  12.793  0.7792  1.2678 -0.8183
 7731TIP3   OH244607   4.771   0.258  13.298 -0.2225 -0.5875 -0.2537
 7731TIP3    H144608   4.780   0.346  13.263  0.1330 -1.1751 -1.7153
 7731TIP3    H244609   4.855   0.239  13.339 -0.5985  0.0546  0.8792
 7732TIP3   OH244610   6.724   1.817   4.464 -0.0743 -0.0800  0.3705
 7732TIP3    H144611   6.712   1.812   4.369  0.8062  0.4397  0.2256
 7732TIP3    H244612   6.763   1.733   4.487  0.6697  0.1937  0.1212
 7733TIP3   OH244613   1.412   5.782   1.701 -0.1045  0.3303 -0.1414
 7733TIP3    H144614   1.437   5.689   1.699 -1.4476 -0.0729 -2.3891
 7733TIP3    H244615   1.319   5.780   1.724 -1.1319  0.7057 -3.6311
 7734TIP3   OH244616   0.083   3.832  12.091  0.6004  0.2327 -0.3426
 7734TIP3    H144617   0.148   3.775  12.048  1.2944 -1.4374  2.6258
 7734TIP3    H244618   0.001   3.813  12.045  1.1242 -2.0645 -0.4488
 7735TIP3   OH244619   6.534   6.772  12.861 -0.4505 -0.0459  0.0190
 7735TIP3    H144620   6.606   6.744  12.919  0.9558  1.3434 -0.9794
 7735TIP3    H244621   6.520   6.864  12.883 -0.7474  0.1548 -0.9710
 7736TIP3   OH244622   2.334   1.775  16.530 -0.7644 -0.3716  0.1472
 7736TIP3    H144623   2.398   1.840  16.500  0.0404 -0.6475  1.2040
 7736TIP3    H244624   2.385   1.694  16.537 -1.1024 -0.4887  1.4840
 7737TIP3   OH244625   1.438   0.134   2.796 -0.0650 -0.2089  0.2039
 7737TIP3    H144626   1.448   0.100   2.885 -1.5359  0.0379  0.4798
 7737TIP3    H244627   1.528   0.153   2.768  0.6272 -2.1642  0.8757
 7738TIP3   OH244628   6.261   2.894  16.579 -0.0655  0.4396 -0.0942
 7738TIP3    H144629   6.270   2.851  16.664 -0.7084 -0.1663 -0.3196
 7738TIP3    H244630   6.272   2.987  16.597  1.0828  0.2184  0.4519
 7739TIP3   OH244631   5.851   2.010  16.309 -0.0092  0.0236  0.0251
 7739TIP3    H144632   5.888   2.075  16.249  0.0327  0.2900  0.3380
 7739TIP3    H244633   5.758   2.008  16.288  0.4920 -2.7033 -2.7694
 7740TIP3   OH244634   3.444   1.242  11.178  0.5528 -0.0722 -0.2035
 7740TIP3    H144635   3.396   1.186  11.117  1.7805 -1.2743 -0.1133
 7740TIP3    H244636   3.511   1.286  11.124  0.7997 -0.1365  0.0463
 7741TIP3   OH244637   3.016   2.943   3.171  0.3332  0.0440 -0.3191
 7741TIP3    H144638   3.091   2.987   3.130 -0.4129  0.9886 -0.7021
 7741TIP3    H244639   2.976   2.893   3.101  0.8904 -0.8951  0.0063
 7742TIP3   OH244640   3.492   3.413   5.196 -0.5813 -0.6882 -0.2396
 7742TIP3    H144641   3.552   3.483   5.171 -1.6087 -0.2881 -1.7802
 7742TIP3    H244642   3.461   3.437   5.283 -1.6455  1.3352 -1.1183
 7743TIP3   OH244643   1.071   4.588   3.213 -0.5456 -0.0532  0.3537
 7743TIP3    H144644   1.002   4.645   3.178  0.4265 -0.0256 -1.6661
 7743TIP3    H244645   1.031   4.501   3.214 -0.3371 -0.2290 -1.8572
 7744TIP3   OH244646   3.148   1.277   2.744  0.1100 -0.5184 -0.3222
 7744TIP3    H144647   3.052   1.269   2.747  0.1030 -0.3785 -0.1863
 7744TIP3    H244648   3.166   1.364   2.778  0.3653 -1.0427  0.9248
 7745TIP3   OH244649   1.992   1.841   2.910  0.3149  0.1938 -0.8120
 7745TIP3    H144650   1.950   1.846   2.996  1.6122  0.0237 -0.1370
 7745TIP3    H244651   1.992   1.747   2.890  1.3476  0.0503 -0.2657
 7746TIP3   OH244652   1.347   1.359  15.051  0.1730  0.0755 -0.3557
 7746TIP3    H144653   1.348   1.267  15.025 -1.6569  0.0671 -0.4926
 7746TIP3    H244654   1.256   1.377  15.072  1.0344  0.8410  3.3884
 7747TIP3   OH244655   0.614   3.819   6.486  0.8761 -0.3450 -0.7309
 7747TIP3    H144656   0.710   3.814   6.487  0.8387 -1.0315 -0.1854
 7747TIP3    H244657   0.587   3.758   6.418  0.7239 -2.5763  1.1896
 7748TIP3   OH244658   4.270   1.693   0.369  0.2167 -0.8559  0.4297
 7748TIP3    H144659   4.319   1.771   0.395  0.4802 -1.4061  1.6309
 7748TIP3    H244660   4.231   1.717   0.285 -0.5568  0.9383  1.2443
 7749TIP3   OH244661   6.573   2.093  13.620 -0.0193 -0.1078  0.3093
 7749TIP3    H144662   6.655   2.061  13.581 -0.0034 -1.4406  1.3583
 7749TIP3    H244663   6.565   2.044  13.701 -1.8018  0.1194  0.3013
 7750TIP3   OH244664   1.840   1.303   1.715 -0.2534 -0.6795 -0.2297
 7750TIP3    H144665   1.892   1.370   1.759 -0.1384 -2.1772  2.0956
 7750TIP3    H244666   1.754   1.343   1.703  0.3613  0.5409 -0.7461
 7751TIP3   OH244667   2.489   2.638   1.890 -0.4648  0.5110 -0.8609
 7751TIP3    H144668   2.482   2.623   1.984 -0.0705  1.2808 -0.6932
 7751TIP3    H244669   2.506   2.552   1.852 -0.5821  0.2059 -0.2216
 7752TIP3   OH244670   2.464   1.331  13.037  0.0736 -0.0566 -0.1814
 7752TIP3    H144671   2.555   1.325  13.066 -0.3136 -0.3881  1.0020
 7752TIP3    H244672   2.441   1.423  13.051  0.8132  0.5406 -2.4020
 7753TIP3   OH244673   5.385   2.597   2.503 -0.5013 -0.4870  0.1302
 7753TIP3    H144674   5.292   2.583   2.519 -0.4060 -0.8384  0.3727
 7753TIP3    H244675   5.408   2.532   2.437 -0.0110 -1.6406  1.4158
 7754TIP3   OH244676   0.600   0.644  14.618 -0.4378 -0.3886 -0.0932
 7754TIP3    H144677   0.614   0.566  14.565 -1.7735 -0.3550 -0.5370
 7754TIP3    H244678   0.617   0.616  14.708  1.6718 -0.4936 -0.4838
 7755TIP3   OH244679   1.898   5.891  16.736 -0.6190 -0.1074 -0.8200
 7755TIP3    H144680   1.924   5.813  16.786 -0.8523  0.7993  0.7737
 7755TIP3    H244681   1.946   5.883  16.654  0.8524 -0.9856  0.0636
 7756TIP3   OH244682   1.507   4.978  13.894  0.1203 -0.2890  0.0578
 7756TIP3    H144683   1.598   4.953  13.909  0.5546  0.6952 -0.8046
 7756TIP3    H244684   1.512   5.060  13.844 -1.2353  0.7184  1.4803
 7757TIP3   OH244685   3.860   2.214   5.632 -0.6375  0.4988 -0.1859
 7757TIP3    H144686   3.880   2.121   5.618 -1.5483  0.2109  0.3992
 7757TIP3    H244687   3.946   2.254   5.645  0.0896  0.3079 -3.5005
 7758TIP3   OH244688   0.373   4.365  17.021 -0.2851 -0.0645 -0.4792
 7758TIP3    H144689   0.358   4.282  17.065  2.9405 -1.3180 -1.4979
 7758TIP3    H244690   0.447   4.404  17.067 -0.1294  1.0364 -1.5959
 7759TIP3   OH244691   6.618   0.110   0.053 -0.0437  0.1327 -0.3071
 7759TIP3    H144692   6.632   0.061  -0.028  1.9845 -0.8714  0.5752
 7759TIP3    H244693   6.552   0.059   0.101 -1.7723  1.1013 -1.5568
 7760TIP3   OH244694   0.880   3.685   4.923 -0.1615 -0.2297 -0.7622
 7760TIP3    H144695   0.938   3.655   4.853  0.3879  0.5878 -0.6775
 7760TIP3    H244696   0.919   3.649   5.003 -1.8795 -2.8384 -0.9787
 7761TIP3   OH244697   5.386   0.092  13.868 -0.0268  0.0068  0.0636
 7761TIP3    H144698   5.427   0.015  13.829 -1.2420 -1.3102  1.2776
 7761TIP3    H244699   5.449   0.122  13.934  0.1715 -0.3515  0.0410
 7762TIP3   OH244700   4.196   1.245  16.219  0.1163 -0.0152 -0.3143
 7762TIP3    H144701   4.124   1.193  16.254 -0.5409  0.8607 -0.3250
 7762TIP3    H244702   4.166   1.275  16.134  1.5565 -1.8130 -1.5355
 7763TIP3   OH244703   4.989   5.329  11.542 -0.6566 -0.6394 -0.2439
 7763TIP3    H144704   5.067   5.369  11.505  0.4678 -1.7536  0.8394
 7763TIP3    H244705   4.955   5.272  11.472 -0.7279  0.1321 -0.8418
 7764TIP3   OH244706   3.872   0.955  15.026 -0.2503  0.2357  0.0105
 7764TIP3    H144707   3.850   0.977  15.116 -0.3444  2.5390 -0.5169
 7764TIP3    H244708   3.935   1.022  15.000 -0.3084 -0.3267 -1.6821
 7765TIP3   OH244709   6.022   2.226   1.119  0.0205  0.5685  0.0079
 7765TIP3    H144710   6.016   2.190   1.031  0.5034  1.3615 -0.3596
 7765TIP3    H244711   6.113   2.214   1.144 -0.3937 -0.8332  0.9276
 7766TIP3   OH244712   5.862   6.531   4.961 -0.1440 -0.1085 -0.4198
 7766TIP3    H144713   5.781   6.531   5.013 -0.1608  0.2273 -0.4476
 7766TIP3    H244714   5.881   6.438   4.948 -1.6094 -0.2505 -2.0618
 7767TIP3   OH244715   6.494   5.349   4.876 -0.3529  0.1043 -0.2853
 7767TIP3    H144716   6.583   5.344   4.839 -0.2898 -0.6140 -0.0547
 7767TIP3    H244717   6.488   5.437   4.912 -0.1978  0.6183 -1.4557
 7768TIP3   OH244718   6.437   2.024  16.467  0.8458  0.1928 -0.0677
 7768TIP3    H144719   6.475   2.111  16.453  0.1530  0.5346  0.1299
 7768TIP3    H244720   6.400   2.001  16.381  1.1168  0.0502 -0.1462
 7769TIP3   OH244721   5.802   3.278   6.526 -0.5745 -0.6187  0.2014
 7769TIP3    H144722   5.811   3.368   6.495  0.1152  0.2780  2.7765
 7769TIP3    H244723   5.711   3.270   6.553 -0.2121 -0.0553  1.6716
 7770TIP3   OH244724   0.190   3.259   1.015  0.5807 -0.2514 -0.3881
 7770TIP3    H144725   0.247   3.279   1.089 -0.8297 -1.4586  1.0728
 7770TIP3    H244726   0.102   3.253   1.052 -0.1246 -1.2141 -2.0931
 7771TIP3   OH244727   0.106   0.843   1.447  0.1629  0.0391 -0.4289
 7771TIP3    H144728   0.144   0.919   1.490  3.0117 -1.0627 -0.7802
 7771TIP3    H244729   0.068   0.878   1.366 -0.8087  1.3894  0.5720
 7772TIP3   OH244730   6.465   3.895  14.210  0.4332 -0.6897 -0.4033
 7772TIP3    H144731   6.381   3.852  14.196 -1.7106  2.9034 -0.0170
 7772TIP3    H244732   6.495   3.917  14.122  0.4281 -1.0892 -0.5053
 7773TIP3   OH244733   5.613   2.558  13.269 -0.0930 -0.0016  0.4068
 7773TIP3    H144734   5.534   2.537  13.319  0.2711 -3.7660 -0.2499
 7773TIP3    H244735   5.683   2.557  13.334 -0.4377  3.4277  1.0039
 7774TIP3   OH244736   2.750   5.612   3.868  0.3954  0.7845 -0.0043
 7774TIP3    H144737   2.745   5.697   3.912  0.3908  1.1269 -0.6423
 7774TIP3    H244738   2.662   5.600   3.831  0.0952  0.0207  0.9418
 7775TIP3   OH244739   4.387   3.586   2.767 -0.1747 -0.4427  0.2881
 7775TIP3    H144740   4.321   3.614   2.703  0.8001 -2.9497 -2.0322
 7775TIP3    H244741   4.467   3.631   2.740 -0.4573  1.2127  2.0134
 7776TIP3   OH244742   2.445   5.705  12.598 -0.1875  0.8310 -0.3804
 7776TIP3    H144743   2.487   5.697  12.512  1.7170 -0.0422  0.5734
 7776TIP3    H244744   2.455   5.797  12.621  0.6311  0.7666 -0.4567
 7777TIP3   OH244745   0.233   6.492  13.780  0.1469 -0.9169 -0.0059
 7777TIP3    H144746   0.289   6.542  13.839 -1.9129 -0.6672  1.8691
 7777TIP3    H244747   0.145   6.505  13.814 -0.9330 -2.3561 -2.0452
 7778TIP3   OH244748   3.132   1.559  15.466  0.2364 -0.7033 -0.1634
 7778TIP3    H144749   3.217   1.555  15.422  0.9926  0.0136  1.1515
 7778TIP3    H244750   3.142   1.501  15.541 -0.4951 -0.7260 -0.0762
 7779TIP3   OH244751   3.705   5.334  15.975 -0.4303  0.7655 -0.5260
 7779TIP3    H144752   3.752   5.358  16.055  3.7145  1.7112 -2.9434
 7779TIP3    H244753   3.685   5.418  15.934 -2.4989  0.2864 -0.5969
 7780TIP3   OH244754   0.119   3.016   1.727 -0.1057  0.1427  0.0616
 7780TIP3    H144755   0.095   2.987   1.640 -0.4769 -0.4698  0.3611
 7780TIP3    H244756   0.136   2.936   1.776  0.7252  0.5004  0.3806
 7781TIP3   OH244757   4.157   5.867  11.472  0.5414 -0.2313 -0.1467
 7781TIP3    H144758   4.229   5.823  11.517 -0.1081 -0.0915  1.0740
 7781TIP3    H244759   4.199   5.935  11.421  1.2367  0.3797  1.1838
 7782TIP3   OH244760   2.046   6.449  17.043 -0.0322  0.4265  0.4866
 7782TIP3    H144761   2.036   6.409  16.957 -1.6499 -1.1069  1.3255
 7782TIP3    H244762   2.013   6.383  17.104  1.2435  1.3959  2.3155
 7783TIP3   OH244763   6.717   1.478  15.059 -0.1355 -0.3224 -0.3470
 7783TIP3    H144764   6.737   1.387  15.082 -0.0637 -0.0975  0.4971
 7783TIP3    H244765   6.802   1.520  15.048 -0.1299  0.0560  0.9565
 7784TIP3   OH244766   5.847   4.586   3.727 -0.0738  0.3733 -0.0905
 7784TIP3    H144767   5.900   4.513   3.695 -1.0946 -0.0217 -0.9486
 7784TIP3    H244768   5.757   4.560   3.708 -0.5243  1.4258  0.5139
 7785TIP3   OH244769   6.462   1.257  16.976 -0.0733  0.3583  0.0931
 7785TIP3    H144770   6.424   1.343  16.992  0.0107  0.1924  1.2755
 7785TIP3    H244771   6.394   1.195  17.003 -0.3774  0.0211 -1.3280
 7786TIP3   OH244772   0.324   3.383  11.909 -0.2994  0.0096  0.6409
 7786TIP3    H144773   0.260   3.312  11.914 -0.4004 -0.1350 -1.6782
 7786TIP3    H244774   0.273   3.463  11.922 -0.6851 -0.1894  0.3742
 7787TIP3   OH244775   2.418   0.520  10.825 -0.6512  0.1698 -0.2029
 7787TIP3    H144776   2.470   0.586  10.871 -0.1303 -0.1595 -0.3086
 7787TIP3    H244777   2.418   0.549  10.734 -2.5682  1.3997  0.1228
 7788TIP3   OH244778   1.359   2.938  13.468 -0.3476 -0.0388 -0.2311
 7788TIP3    H144779   1.296   2.972  13.406 -0.3579 -0.6565 -0.5590
 7788TIP3    H244780   1.311   2.873  13.520 -0.4726  0.8122  0.7519
 7789TIP3   OH244781   4.739   6.723   5.768  0.3116  0.1585 -0.2678
 7789TIP3    H144782   4.684   6.775   5.711 -1.6867 -0.8565  0.6409
 7789TIP3    H244783   4.775   6.655   5.711 -0.0090  0.3616 -0.7147
 7790TIP3   OH244784   5.420   2.343   0.263  0.7727 -0.1461  0.0018
 7790TIP3    H144785   5.468   2.324   0.182 -0.9446  1.5785 -1.5646
 7790TIP3    H244786   5.414   2.259   0.308  3.2913 -0.8282 -0.7702
 7791TIP3   OH244787   5.669   0.480   4.160 -0.5764  0.2569 -0.2131
 7791TIP3    H144788   5.705   0.562   4.127 -0.8874  1.1112  1.4501
 7791TIP3    H244789   5.712   0.412   4.109  1.2306  1.3724 -0.2457
 7792TIP3   OH244790   3.446   4.273   1.735 -0.4071  0.3520  0.2724
 7792TIP3    H144791   3.522   4.325   1.761  0.6662 -1.0459  0.0191
 7792TIP3    H244792   3.461   4.252   1.643 -1.1609  0.1627  0.1868
 7793TIP3   OH244793   2.912   4.731   4.351  0.1395 -0.0326  0.0213
 7793TIP3    H144794   2.954   4.666   4.408  1.1684 -1.1417 -1.8987
 7793TIP3    H244795   2.973   4.742   4.278 -1.9028 -0.0894 -1.8031
 7794TIP3   OH244796   6.468   0.320   4.775  0.2621 -0.6905  0.3633
 7794TIP3    H144797   6.393   0.297   4.829 -0.1112  1.7035  0.9690
 7794TIP3    H244798   6.542   0.276   4.817 -0.3424 -0.5609  1.6103
 7795TIP3   OH244799   4.980   4.741  12.034  0.0595  0.7426 -0.2111
 7795TIP3    H144800   5.006   4.716  12.122 -0.5835  0.1247 -0.1935
 7795TIP3    H244801   5.060   4.776  11.995  0.5821  0.1435  0.2957
 7796TIP3   OH244802   0.298   1.793   1.499  0.4904 -0.8458  0.0883
 7796TIP3    H144803   0.244   1.861   1.539  0.1076 -1.6834  1.0533
 7796TIP3    H244804   0.326   1.830   1.415 -1.9048 -0.5302 -0.6417
 7797TIP3   OH244805   3.048   0.564  15.895  0.1343  0.5195  0.2460
 7797TIP3    H144806   2.961   0.554  15.933 -0.0735  2.4655  0.3545
 7797TIP3    H244807   3.095   0.620  15.957  1.1642  0.3114 -0.3106
 7798TIP3   OH244808   3.593   2.608   6.225  0.1173  0.0073  0.0461
 7798TIP3    H144809   3.537   2.557   6.167  2.1321 -1.7114 -0.5104
 7798TIP3    H244810   3.677   2.614   6.179  0.4516  2.4629  0.8545
 7799TIP3   OH244811   3.793   2.497  16.968  0.6808 -0.4199  1.0271
 7799TIP3    H144812   3.852   2.566  16.996 -0.6207  0.4567  1.7392
 7799TIP3    H244813   3.812   2.423  17.025  0.2268  0.2935  2.1320
 7800TIP3   OH244814   1.277   1.273   0.922  0.1855  0.2439 -0.1763
 7800TIP3    H144815   1.370   1.280   0.945 -0.0064 -0.4045  0.9072
 7800TIP3    H244816   1.243   1.361   0.934  0.4151  0.2328  0.6815
 7801TIP3   OH244817   6.674   4.148  11.414 -0.1414 -0.7936 -0.3781
 7801TIP3    H144818   6.718   4.198  11.483  0.3404 -0.6360 -0.7960
 7801TIP3    H244819   6.581   4.153  11.437 -0.0071 -0.5494  0.1308
 7802TIP3   OH244820   3.703   5.022   2.431 -0.1447 -0.0372  0.1762
 7802TIP3    H144821   3.664   5.073   2.359 -0.0738 -0.9469 -0.5356
 7802TIP3    H244822   3.631   5.008   2.492 -1.1404 -2.0910 -1.3474
 7803TIP3   OH244823   5.973   3.249   0.173  0.4155 -0.1693 -0.2054
 7803TIP3    H144824   6.066   3.226   0.177  0.3756 -0.1938  2.0333
 7803TIP3    H244825   5.931   3.187   0.233 -0.5728  1.8352  1.2651
 7804TIP3   OH244826   1.227   1.493  11.632 -0.1882  0.0232  0.1629
 7804TIP3    H144827   1.308   1.449  11.659 -0.8648  0.4165  3.1996
 7804TIP3    H244828   1.248   1.586  11.634 -1.1377  0.2726  3.0561
 7805TIP3   OH244829   6.240   4.211   3.887 -0.3057  0.2007  0.3313
 7805TIP3    H144830   6.262   4.140   3.947  0.8036  0.1265 -0.1450
 7805TIP3    H244831   6.171   4.260   3.932 -0.7774 -0.9063  0.8606
 7806TIP3   OH244832   2.706   2.536  10.903  0.5157  0.2534  0.4441
 7806TIP3    H144833   2.756   2.463  10.867 -1.2509 -1.1414  0.6858
 7806TIP3    H244834   2.735   2.612  10.852  1.2824 -0.8783 -0.8870
 7807TIP3   OH244835   1.375   4.467   2.627 -0.4005 -0.3666 -0.1056
 7807TIP3    H144836   1.321   4.497   2.700 -1.0024 -2.0205  0.1725
 7807TIP3    H244837   1.314   4.455   2.554  0.0958  0.6743 -0.7074
 7808TIP3   OH244838   3.197   3.108  15.367  0.0187 -0.1018 -0.3593
 7808TIP3    H144839   3.215   3.066  15.451 -1.2757 -0.2780 -0.1627
 7808TIP3    H244840   3.125   3.168  15.384  0.9258  1.2122 -0.9526
 7809TIP3   OH244841   0.803   1.721  12.944  0.2107 -0.2084  0.1867
 7809TIP3    H144842   0.730   1.773  12.977 -1.4670 -0.3625 -2.9495
 7809TIP3    H244843   0.769   1.632  12.940  1.2129 -0.6157  0.3594
 7810TIP3   OH244844   5.530   6.217   3.982 -0.1953  0.0509 -0.0606
 7810TIP3    H144845   5.555   6.261   4.063  0.0818 -0.8944  0.3887
 7810TIP3    H244846   5.612   6.210   3.933 -0.3343  0.4879 -0.3575
 7811TIP3   OH244847   0.051   5.502  15.863 -0.5431 -0.0204 -0.3050
 7811TIP3    H144848   0.133   5.552  15.867  1.7007 -3.3903 -0.1401
 7811TIP3    H244849   0.022   5.511  15.773  1.5852 -0.9329 -1.1469
 7812TIP3   OH244850   4.766   0.244  11.999  0.2324  0.6340  0.0722
 7812TIP3    H144851   4.709   0.319  11.979 -0.4463  0.2612  0.5632
 7812TIP3    H244852   4.833   0.280  12.056 -0.3318  0.7874  0.6510
 7813TIP3   OH244853   6.599   2.642  11.603 -0.3134 -0.0368 -0.1681
 7813TIP3    H144854   6.590   2.698  11.525 -1.6411  1.8469  1.2285
 7813TIP3    H244855   6.682   2.669  11.643  0.6046 -1.3352 -1.1132
 7814TIP3   OH244856   4.972   1.392   1.197 -0.4463 -0.3397  0.3240
 7814TIP3    H144857   4.998   1.304   1.226 -0.0254 -0.0933  0.7129
 7814TIP3    H244858   4.987   1.447   1.274  0.5948  0.3201 -0.3288
 7815TIP3   OH244859   0.811   0.674  14.027  0.0285  0.0731  0.6920
 7815TIP3    H144860   0.896   0.716  14.037 -0.6921  1.3420  1.7488
 7815TIP3    H244861   0.823   0.586  14.062  1.4956 -0.6017 -1.3347
 7816TIP3   OH244862   6.681   5.559  15.606  0.5591 -0.6336 -0.5219
 7816TIP3    H144863   6.699   5.648  15.639 -0.8466 -0.3704 -0.4146
 7816TIP3    H244864   6.760   5.536  15.557  2.0071 -0.3536  1.5607
 7817TIP3   OH244865   3.801   3.845  13.206 -0.6727 -0.2051  0.1276
 7817TIP3    H144866   3.737   3.866  13.138 -2.1424 -0.3780  1.4351
 7817TIP3    H244867   3.809   3.750  13.203  1.2058 -0.0893 -1.4612
 7818TIP3   OH244868   3.539   5.668  15.297 -0.3069  0.5638 -0.4513
 7818TIP3    H144869   3.575   5.580  15.282 -1.0914 -0.0225  0.8574
 7818TIP3    H244870   3.584   5.724  15.235  2.2848 -0.2661  0.5514
 7819TIP3   OH244871   1.091   0.686  12.494  0.4401 -0.0407 -0.0563
 7819TIP3    H144872   1.015   0.631  12.514  1.0202 -0.8272  0.0312
 7819TIP3    H244873   1.156   0.663  12.560  0.9592  0.2076 -0.4660
 7820TIP3   OH244874   0.087   4.902  16.795 -0.2335 -1.0120 -0.1102
 7820TIP3    H144875   0.177   4.932  16.779  0.0068 -2.1319 -1.0567
 7820TIP3    H244876   0.057   4.953  16.869  0.2211  1.3165 -1.4485
 7821TIP3   OH244877   2.460   3.843  12.979 -0.2182 -0.0378  0.0052
 7821TIP3    H144878   2.527   3.793  13.025 -0.5255 -1.8259 -1.4069
 7821TIP3    H244879   2.499   3.864  12.894 -0.9786 -0.0044 -0.3467
 7822TIP3   OH244880   4.298   3.889   2.282  0.6927  0.1798  0.3703
 7822TIP3    H144881   4.208   3.913   2.261 -0.0146 -1.8169  0.9006
 7822TIP3    H244882   4.346   3.902   2.200 -0.2786  0.3561 -0.1894
 7823TIP3   OH244883   6.530   3.970   4.859 -0.1066 -0.1596 -0.0467
 7823TIP3    H144884   6.591   3.988   4.931  1.1464  1.5461 -1.4739
 7823TIP3    H244885   6.539   3.875   4.845  0.8794 -0.2451  0.9357
 7824TIP3   OH244886   2.822   0.970  13.508 -0.6045 -0.6565 -0.1753
 7824TIP3    H144887   2.779   0.911  13.570 -0.2532 -1.4218 -0.6350
 7824TIP3    H244888   2.844   1.048  13.559 -0.9110 -1.0051  0.4958
 7825TIP3   OH244889   2.341   2.217   4.755 -0.3689  0.1228  0.3147
 7825TIP3    H144890   2.298   2.217   4.841 -0.0082  0.6519  0.4985
 7825TIP3    H244891   2.287   2.277   4.702  0.6826  1.5740  0.8326
 7826TIP3   OH244892   4.384   0.104   5.297  0.2686  0.3698 -0.2773
 7826TIP3    H144893   4.308   0.046   5.285 -0.2911  0.7006  1.3955
 7826TIP3    H244894   4.400   0.141   5.210 -2.1005  1.0249 -0.5087
 7827TIP3   OH244895   2.529   4.985   1.370 -0.0737 -0.2349 -0.3504
 7827TIP3    H144896   2.543   5.057   1.308 -0.8482  1.4481  1.3223
 7827TIP3    H244897   2.613   4.939   1.372  0.7204  1.1161 -0.8770
 7828TIP3   OH244898   2.545   6.375  15.922  0.2374 -0.2961  0.2457
 7828TIP3    H144899   2.456   6.390  15.891  0.2854 -0.2708  0.1175
 7828TIP3    H244900   2.545   6.284  15.952  0.7600 -1.0700 -1.9034
 7829TIP3   OH244901   4.089   3.516  13.184  0.0504  0.3774 -0.0393
 7829TIP3    H144902   4.106   3.423  13.195  0.0703  0.3521 -0.2695
 7829TIP3    H244903   3.999   3.528  13.214  0.1128  0.3191  0.1716
 7830TIP3   OH244904   0.895   6.467   4.212  0.0059 -0.0702  0.1010
 7830TIP3    H144905   0.879   6.410   4.137 -1.0215  0.8399 -0.4021
 7830TIP3    H244906   0.970   6.428   4.257  1.6212  0.1934 -2.2197
 7831TIP3   OH244907   5.297   0.987   5.134  0.1262 -0.4541 -0.3120
 7831TIP3    H144908   5.222   1.022   5.182  0.0537  0.9332 -1.3732
 7831TIP3    H244909   5.277   0.894   5.123 -1.8987  0.0256 -1.3190
 7832TIP3   OH244910   4.683   0.529  15.769 -0.0445  0.0252  0.0460
 7832TIP3    H144911   4.609   0.477  15.799  0.5163 -1.0386 -0.3640
 7832TIP3    H244912   4.708   0.582  15.845  0.0872 -1.1515  0.8386
 7833TIP3   OH244913   4.804   2.614  15.203  0.6227 -0.1462 -0.4975
 7833TIP3    H144914   4.729   2.567  15.238  1.0997 -0.1670  0.5204
 7833TIP3    H244915   4.831   2.672  15.274  1.2831  0.2068 -1.0261
 7834TIP3   OH244916   6.106   1.718   3.745  0.4146 -0.8408 -0.5093
 7834TIP3    H144917   6.044   1.780   3.707 -0.3097  0.0909  1.9873
 7834TIP3    H244918   6.052   1.653   3.789  1.1675 -0.9234  0.3418
 7835TIP3   OH244919   4.464   3.053   5.583 -0.0556 -0.1120  0.0966
 7835TIP3    H144920   4.472   3.143   5.614  1.3748 -0.6203  1.3260
 7835TIP3    H244921   4.495   3.055   5.492  1.6653  0.3621  0.6586
 7836TIP3   OH244922   4.677   2.491   4.924 -0.0017 -0.4914  0.3773
 7836TIP3    H144923   4.601   2.433   4.933  0.5987 -1.1440  1.4731
 7836TIP3    H244924   4.685   2.533   5.010  0.6927 -0.2012  0.1752
 7837TIP3   OH244925   5.172   1.942   1.633 -0.3622 -0.0189  0.6519
 7837TIP3    H144926   5.077   1.938   1.642 -0.1151 -0.7735  3.7417
 7837TIP3    H244927   5.190   2.035   1.618 -1.4761  0.5981  2.7358
 7838TIP3   OH244928   1.398   5.628  14.785  0.1551  0.3060 -0.4951
 7838TIP3    H144929   1.415   5.535  14.766  2.1138  0.2492  1.1862
 7838TIP3    H244930   1.410   5.672  14.701 -1.7265 -1.0181 -1.5319
 7839TIP3   OH244931   4.333   5.595  15.815  0.4380  0.5235 -0.2220
 7839TIP3    H144932   4.393   5.523  15.834  0.0655  0.2605 -0.0189
 7839TIP3    H244933   4.253   5.552  15.785 -0.0022  0.8193  0.5036
 7840TIP3   OH244934   5.113   1.731   4.806  0.0428 -0.0463  0.2304
 7840TIP3    H144935   5.167   1.718   4.885  0.0005  0.7688  0.4007
 7840TIP3    H244936   5.177   1.748   4.736  0.0274  1.6118  0.5632
 7841TIP3   OH244937   6.243   1.356  11.033 -0.0335  0.1286  0.5798
 7841TIP3    H144938   6.285   1.365  10.948 -0.5885 -0.9806  0.1835
 7841TIP3    H244939   6.281   1.277  11.071 -1.0903 -0.3981  0.5884
 7842TIP3   OH244940   5.328   6.556  12.209 -0.2057  0.0833  0.0958
 7842TIP3    H144941   5.406   6.525  12.165  1.1681  2.9436  0.2593
 7842TIP3    H244942   5.343   6.537  12.301  0.2088  0.3704  0.0932
 7843TIP3   OH244943   1.361   2.964   1.708 -0.0201 -0.3570 -0.1527
 7843TIP3    H144944   1.447   2.921   1.706 -0.5904 -1.6281  0.7992
 7843TIP3    H244945   1.338   2.978   1.617  1.3793  0.3917 -0.4133
 7844TIP3   OH244946   6.309   6.457   3.509  0.1201 -0.0807 -0.0929
 7844TIP3    H144947   6.371   6.435   3.439  1.9566 -0.9256  1.7045
 7844TIP3    H244948   6.360   6.449   3.590 -1.7912  1.3245  1.3435
 7845TIP3   OH244949   4.085   2.567   2.016 -0.9151 -0.1846 -0.5442
 7845TIP3    H144950   4.148   2.543   2.084 -1.2997 -0.4609 -0.2859
 7845TIP3    H244951   4.019   2.497   2.018 -2.8197  1.5376  1.1459
 7846TIP3   OH244952   2.779   5.749  10.555 -0.0714  0.1388 -0.0260
 7846TIP3    H144953   2.835   5.675  10.534 -0.8569 -0.1789 -1.1089
 7846TIP3    H244954   2.792   5.810  10.482  0.2738  0.8989  0.6593
 7847TIP3   OH244955   2.715   5.723  14.523  0.0291 -0.8004  0.2596
 7847TIP3    H144956   2.776   5.723  14.450  0.9287 -2.9792  0.9401
 7847TIP3    H244957   2.646   5.662  14.497 -1.9404  1.5558 -0.4667
 7848TIP3   OH244958   6.075   6.257   3.548  0.4464  0.5428 -0.1471
 7848TIP3    H144959   6.123   6.176   3.562 -0.7259 -0.2771 -0.6731
 7848TIP3    H244960   6.142   6.324   3.537  1.4560 -0.0183  2.0382
 7849TIP3   OH244961   2.022   3.820   3.680 -0.7442 -0.1160 -0.4340
 7849TIP3    H144962   1.970   3.825   3.600 -0.3142  0.4858 -0.6828
 7849TIP3    H244963   2.112   3.830   3.651 -0.7103  2.7952  0.3243
 7850TIP3   OH244964   3.328   3.995   2.890 -0.3339 -0.7545 -0.4086
 7850TIP3    H144965   3.409   4.046   2.890 -0.8999  0.2050  0.4336
 7850TIP3    H244966   3.318   3.965   2.800  1.3558 -1.5781 -0.3639
 7851TIP3   OH244967   5.176   3.642  11.599 -0.4556 -0.5411  0.1332
 7851TIP3    H144968   5.186   3.670  11.508  0.4199  1.2243  0.7391
 7851TIP3    H244969   5.113   3.703  11.636  1.1532  0.4620  1.3629
 7852TIP3   OH244970   0.996   4.349  14.492  0.0821  0.0489 -0.2555
 7852TIP3    H144971   0.907   4.314  14.501 -0.2567  0.9137 -0.1246
 7852TIP3    H244972   0.994   4.399  14.411  0.6421 -0.4728 -0.5942
 7853TIP3   OH244973   3.371   4.254   4.331  0.5840  0.2973 -0.8455
 7853TIP3    H144974   3.303   4.294   4.385  2.4196  2.0039  0.3342
 7853TIP3    H244975   3.445   4.241   4.390  0.8756 -2.8644 -1.7340
 7854TIP3   OH244976   0.138   3.011   0.571  0.2842  0.6909  0.4829
 7854TIP3    H144977   0.135   3.098   0.532  0.9560  1.1187  1.3517
 7854TIP3    H244978   0.047   2.990   0.592  0.1238  1.1772  0.2784
 7855TIP3   OH244979   3.190   2.354   2.421  0.4650 -0.1992 -0.1120
 7855TIP3    H144980   3.236   2.395   2.348  0.9113 -1.0875 -0.3430
 7855TIP3    H244981   3.102   2.390   2.417  0.2010 -0.9264 -1.6842
 7856TIP3   OH244982   4.420   1.514  11.579  0.2393  0.6784  0.1549
 7856TIP3    H144983   4.422   1.605  11.609  1.5204  0.2024  1.7173
 7856TIP3    H244984   4.499   1.505  11.525 -0.8450  0.9273 -1.5343
 7857TIP3   OH244985   1.469   5.765   3.209  0.1658 -0.1702  0.1819
 7857TIP3    H144986   1.558   5.747   3.180  0.2446 -0.2674  0.4752
 7857TIP3    H244987   1.466   5.730   3.298 -0.5789 -1.4363 -0.3090
 7858TIP3   OH244988   4.345   5.781  12.609  0.7428 -0.0847  0.7882
 7858TIP3    H144989   4.267   5.834  12.624 -0.1024 -1.2553  0.6355
 7858TIP3    H244990   4.384   5.818  12.530  0.0013  0.1248  0.5104
 7859TIP3   OH244991   5.362   0.227   0.046  0.1934 -0.3585  0.0484
 7859TIP3    H144992   5.292   0.226  -0.019 -1.3525  2.4123  1.4859
 7859TIP3    H244993   5.439   0.258  -0.001 -0.4600 -0.0089 -0.8209
 7860TIP3   OH244994   2.372   3.275  14.382  0.3786  0.0927  0.1169
 7860TIP3    H144995   2.293   3.273  14.436 -0.9553  0.4468 -1.7161
 7860TIP3    H244996   2.367   3.195  14.330  0.4475  0.8080 -1.0245
 7861TIP3   OH244997   0.883   2.874  16.999 -0.5172 -0.1603 -0.2841
 7861TIP3    H144998   0.881   2.780  16.978  1.6499 -0.8909  2.2657
 7861TIP3    H244999   0.961   2.907  16.954 -0.4320  0.0612  0.0216
 7862TIP3   OH245000   5.918   2.700  16.325 -0.2647  0.2791  0.2002
 7862TIP3    H145001   5.846   2.748  16.365 -1.4488 -1.3703  0.1066
 7862TIP3    H245002   5.907   2.715  16.231 -0.6611 -0.1937  0.1682
 7863TIP3   OH245003   6.499   3.841  14.479 -0.5644  0.2870  0.0440
 7863TIP3    H145004   6.507   3.821  14.386  0.0353 -0.7814  0.3138
 7863TIP3    H245005   6.443   3.918  14.481  0.8571  1.4294 -1.3069
 7864TIP3   OH245006   1.417   2.034  15.396  0.0830  0.2563 -0.3541
 7864TIP3    H145007   1.423   2.026  15.491 -0.5551 -0.7610 -0.3816
 7864TIP3    H245008   1.393   1.946  15.366  0.9903  0.3867 -1.5208
 7865TIP3   OH245009   1.457   4.610  16.203 -0.7354 -0.0782  0.4173
 7865TIP3    H145010   1.424   4.521  16.200 -1.1282  0.0555  0.6824
 7865TIP3    H245011   1.490   4.621  16.292  0.3191 -0.3087  0.0668
 7866TIP3   OH245012   5.530   6.728   1.542  0.5512  0.0090  0.1163
 7866TIP3    H145013   5.530   6.777   1.460 -1.1984  0.9209  0.6097
 7866TIP3    H245014   5.549   6.793   1.610  1.0760 -0.5598  0.5272
 7867TIP3   OH245015   0.920   4.203   2.203  0.6755 -0.0499 -0.0108
 7867TIP3    H145016   1.004   4.238   2.172  0.7407 -0.1199  0.0892
 7867TIP3    H245017   0.907   4.243   2.289  1.1486 -0.9068  0.4728
 7868TIP3   OH245018   5.539   2.422   1.852  0.2978  0.1751 -0.1307
 7868TIP3    H145019   5.586   2.355   1.901 -0.0530  0.1080  0.1192
 7868TIP3    H245020   5.606   2.485   1.826  0.2990  0.9745  1.6680
 7869TIP3   OH245021   1.297   0.507   3.019  0.3020  0.1526  0.0608
 7869TIP3    H145022   1.226   0.502   3.083 -0.2714  1.4045 -0.4374
 7869TIP3    H245023   1.254   0.531   2.938  0.9896 -1.6273 -0.8856
 7870TIP3   OH245024   2.416   5.106   3.132 -0.3462 -0.0532 -0.2202
 7870TIP3    H145025   2.372   5.187   3.109 -1.7436 -0.7308 -0.0280
 7870TIP3    H245026   2.474   5.130   3.204 -1.4406  0.6125  0.4675
 7871TIP3   OH245027   0.637   1.215   6.194 -0.3056 -0.4744  1.1939
 7871TIP3    H145028   0.610   1.124   6.204  1.5504 -1.1074  0.8942
 7871TIP3    H245029   0.727   1.210   6.162 -0.7342  1.4711 -0.5573
 7872TIP3   OH245030   3.362   5.835  16.116  0.0121 -0.7433 -0.2602
 7872TIP3    H145031   3.326   5.761  16.166  2.0711  0.4761  3.3744
 7872TIP3    H245032   3.453   5.811  16.100  0.2872  0.3530 -0.3925
 7873TIP3   OH245033   0.585   2.061  15.689  0.0982  0.1319 -0.4358
 7873TIP3    H145034   0.632   1.978  15.688  0.1451  0.1024 -3.1399
 7873TIP3    H245035   0.504   2.042  15.736  1.7397 -0.3699  2.4118
 7874TIP3   OH245036   1.384   2.059  15.679 -0.6074 -0.5301  0.5584
 7874TIP3    H145037   1.299   2.023  15.652 -1.1279 -0.3411  1.8982
 7874TIP3    H245038   1.363   2.138  15.727  0.4771  0.9621 -1.2599
 7875TIP3   OH245039   1.982   5.965   1.714  0.0736 -0.1279 -0.2612
 7875TIP3    H145040   1.935   6.046   1.729  0.2720 -0.0144 -0.2472
 7875TIP3    H245041   1.916   5.896   1.722  0.1393 -0.0679  0.9820
 7876TIP3   OH245042   1.847   1.064  13.358  0.1276  0.5158  0.2959
 7876TIP3    H145043   1.922   1.072  13.418  1.4007 -1.2046 -0.9371
 7876TIP3    H245044   1.852   1.142  13.304  0.5098  0.8439  0.7911
 7877TIP3   OH245045   0.393   4.475  12.778 -0.2944 -0.0643  0.4937
 7877TIP3    H145046   0.325   4.407  12.781 -2.3458  1.6275 -2.3461
 7877TIP3    H245047   0.368   4.538  12.845 -1.4964  0.4255 -0.3692
 7878TIP3   OH245048   2.871   0.651  10.837  0.1942  0.1528  0.3761
 7878TIP3    H145049   2.940   0.697  10.789  0.1554  0.6417  0.7755
 7878TIP3    H245050   2.843   0.713  10.904 -0.7285  0.0042  0.1404
 7879TIP3   OH245051   5.901   2.550  14.240 -0.2883 -0.5317 -0.2368
 7879TIP3    H145052   5.907   2.572  14.147  0.9597 -0.5188 -0.1630
 7879TIP3    H245053   5.924   2.457  14.244  0.8472 -0.2541  0.1761
 7880TIP3   OH245054   6.048   6.514   5.172 -0.0475 -0.4824 -0.2861
 7880TIP3    H145055   6.141   6.536   5.184  0.5952 -2.8198 -0.5001
 7880TIP3    H245056   6.028   6.541   5.083  0.3686  0.1696 -0.1931
 7881TIP3   OH245057   3.388   2.389  12.037  0.0772  0.1885 -0.1848
 7881TIP3    H145058   3.388   2.328  11.963 -0.1380 -0.0499  0.0060
 7881TIP3    H245059   3.456   2.453  12.016  0.4913 -0.2680 -0.2701
 7882TIP3   OH245060   3.733   4.214   0.684  0.0077  0.1495 -0.2326
 7882TIP3    H145061   3.710   4.173   0.601  0.6653 -0.1378 -0.2851
 7882TIP3    H245062   3.829   4.214   0.685  0.0158 -0.4236  0.7993
 7883TIP3   OH245063   4.957   2.579   4.877 -0.7458  0.0838 -0.3766
 7883TIP3    H145064   4.990   2.513   4.816  0.4671 -0.5613  0.9189
 7883TIP3    H245065   4.862   2.575   4.867 -0.6801 -1.5233 -0.7089
 7884TIP3   OH245066   4.456   0.442  12.664 -0.3216 -0.0506  0.7075
 7884TIP3    H145067   4.401   0.416  12.590 -1.1490  2.8936  0.1638
 7884TIP3    H245068   4.405   0.417  12.741 -0.2181 -1.6035  0.3114
 7885TIP3   OH245069   6.684   4.136  15.569  0.1316  0.2610 -0.2545
 7885TIP3    H145070   6.624   4.092  15.630  0.9193 -3.0627 -1.6253
 7885TIP3    H245071   6.627   4.169  15.500 -0.3957 -0.1910 -0.0517
 7886TIP3   OH245072   6.053   3.612  15.824 -0.3661  0.2259  0.0893
 7886TIP3    H145073   6.075   3.705  15.821 -0.8540  0.3273 -0.7107
 7886TIP3    H245074   6.090   3.581  15.906  0.8804  0.8440 -0.2225
 7887TIP3   OH245075   3.746   4.796   4.753  0.2972 -0.0092 -0.2545
 7887TIP3    H145076   3.801   4.758   4.685  2.4942  1.1098  0.7820
 7887TIP3    H245077   3.785   4.882   4.770 -3.6892  2.3660 -1.6390
 7888TIP3   OH245078   6.125   2.760  16.069 -0.6172  0.0393 -0.4317
 7888TIP3    H145079   6.169   2.834  16.110 -1.1946 -0.1760  0.6177
 7888TIP3    H245080   6.195   2.698  16.049 -0.1473  0.8016 -1.2019
 7889TIP3   OH245081   5.411   1.179  12.583 -0.3959  0.3076 -0.2770
 7889TIP3    H145082   5.414   1.087  12.611 -0.5423  0.2344 -0.5035
 7889TIP3    H245083   5.321   1.193  12.554 -0.4492  0.6040  0.0213
 7890TIP3   OH245084   5.305   6.581   1.525 -0.1087 -0.1644  0.5737
 7890TIP3    H145085   5.394   6.615   1.517 -0.6955  1.0810 -1.1597
 7890TIP3    H245086   5.280   6.558   1.435 -1.0798 -1.7447  1.2047
 7891TIP3   OH245087   1.449   0.700  15.562 -0.1782 -0.5739  0.9034
 7891TIP3    H145088   1.404   0.683  15.645 -0.1084 -1.2198  0.8165
 7891TIP3    H245089   1.494   0.617  15.543 -1.3516 -0.9218 -0.5141
 7892TIP3   OH245090   1.895   0.541   6.689  0.0411  0.0582 -0.2632
 7892TIP3    H145091   1.912   0.598   6.764 -0.3074 -1.3756  0.9727
 7892TIP3    H245092   1.967   0.557   6.629  1.5567 -0.3304  1.3798
 7893TIP3   OH245093   4.215   2.828   3.996  0.0800  0.5575 -0.4207
 7893TIP3    H145094   4.158   2.753   4.014 -0.2299  0.9337  0.1771
 7893TIP3    H245095   4.291   2.790   3.952  1.1976 -0.5198  2.2492
 7894TIP3   OH245096   3.563   0.636   1.951 -0.2204 -0.2403  0.0401
 7894TIP3    H145097   3.497   0.584   1.997  0.1075  0.1041  0.9145
 7894TIP3    H245098   3.629   0.572   1.923 -1.0190 -0.6202 -1.0476
 7895TIP3   OH245099   2.718   2.594  10.611 -0.4361 -0.0107  0.2191
 7895TIP3    H145100   2.745   2.659  10.676 -3.1977  0.8297  0.6628
 7895TIP3    H245101   2.688   2.645  10.536 -3.6986 -0.5835  0.9845
 7896TIP3   OH245102   1.750   3.048  13.153 -0.1685 -0.1054  0.1284
 7896TIP3    H145103   1.694   2.970  13.142 -0.8680  0.3076  0.6440
 7896TIP3    H245104   1.839   3.016  13.139 -0.3895 -1.1455  0.9349
 7897TIP3   OH245105   4.278   1.177  16.584 -0.0988  0.5362  0.2597
 7897TIP3    H145106   4.197   1.125  16.580  0.5607 -0.5675  0.6731
 7897TIP3    H245107   4.348   1.112  16.577  0.7572  1.3454  1.1002
 7898TIP3   OH245108   3.939   2.863   1.329 -0.1117 -0.7965  0.4451
 7898TIP3    H145109   3.905   2.883   1.417 -1.5058 -1.9083  0.1977
 7898TIP3    H245110   4.026   2.826   1.345 -0.1497 -0.5419  1.3148
 7899TIP3   OH245111   2.972   6.384  11.899  0.1424  0.0949 -0.4813
 7899TIP3    H145112   2.940   6.459  11.849  2.7594  1.1850 -0.7065
 7899TIP3    H245113   3.003   6.323  11.833  0.0226 -0.2072 -0.2572
 7900TIP3   OH245114   4.781   2.695  11.266  0.0964  0.0796 -0.3397
 7900TIP3    H145115   4.756   2.682  11.358 -1.1798 -0.3978 -0.7343
 7900TIP3    H245116   4.750   2.783  11.245 -0.3089 -0.1067 -0.5281
 7901TIP3   OH245117   4.603   1.925   3.176  0.7900  0.3031 -0.1465
 7901TIP3    H145118   4.660   2.001   3.184 -0.4579  1.1996  0.6350
 7901TIP3    H245119   4.663   1.850   3.171  2.0716  1.3762 -1.9913
 7902TIP3   OH245120   4.653   2.745   4.205 -0.0895 -0.8818 -0.8780
 7902TIP3    H145121   4.558   2.756   4.213  0.1066  1.0216 -0.5142
 7902TIP3    H245122   4.680   2.816   4.146  1.3043 -0.1808  0.5254
 7903TIP3   OH245123   5.247   2.263  11.276 -0.0036 -0.1436  0.4071
 7903TIP3    H145124   5.263   2.307  11.192 -1.6206 -1.3843 -0.6208
 7903TIP3    H245125   5.152   2.250  11.278  0.2170 -1.8407  1.5421
 7904TIP3   OH245126   0.258   6.101  10.536 -0.1388  0.1196  0.0583
 7904TIP3    H145127   0.188   6.063  10.483 -0.4889  1.0052 -0.1322
 7904TIP3    H245128   0.227   6.188  10.559  1.1616  0.7764 -0.5541
 7905TIP3   OH245129   1.927   2.228  16.080  0.2673  0.1594  0.5195
 7905TIP3    H145130   1.960   2.315  16.105 -0.4348  0.3239  0.8950
 7905TIP3    H245131   2.002   2.185  16.039  1.0271  0.4271  1.5804
 7906TIP3   OH245132   5.143   2.587   2.121  0.5791 -0.3415  0.3202
 7906TIP3    H145133   5.182   2.609   2.036  0.4587 -0.2652  0.2850
 7906TIP3    H245134   5.125   2.672   2.162  0.9749 -0.3759  0.5771
 7907TIP3   OH245135   1.976   1.196  16.260  0.3298 -0.7050 -0.2726
 7907TIP3    H145136   1.966   1.103  16.241 -1.1580 -0.5941 -0.1646
 7907TIP3    H245137   2.067   1.215  16.240  0.5295 -2.0765 -0.7694
 7908TIP3   OH245138   2.800   6.512   1.220 -0.1469 -0.2114 -0.8953
 7908TIP3    H145139   2.891   6.527   1.246 -0.1918  1.5691 -1.6729
 7908TIP3    H245140   2.795   6.417   1.205  0.7161 -0.8704  2.2621
 7909TIP3   OH245141   0.592   5.585  10.747 -0.3345 -0.3849 -0.3475
 7909TIP3    H145142   0.615   5.656  10.808 -0.9523 -2.2939  2.2852
 7909TIP3    H245143   0.506   5.611  10.712  1.4128  2.3309 -3.1634
 7910TIP3   OH245144   5.805   5.576   2.432  0.0316 -0.4624 -0.2742
 7910TIP3    H145145   5.717   5.554   2.464 -0.8485  1.0434 -1.5278
 7910TIP3    H245146   5.859   5.500   2.457 -1.6355 -1.4965  0.3788
 7911TIP3   OH245147   3.212   2.751   3.987  1.0246 -0.0912 -0.3886
 7911TIP3    H145148   3.180   2.837   4.013  1.0292 -0.2506  0.1501
 7911TIP3    H245149   3.306   2.754   4.003  0.8189 -0.6987  1.0940
 7912TIP3   OH245150   1.411   5.119  16.769 -0.3943 -0.1191  0.1260
 7912TIP3    H145151   1.338   5.129  16.708 -1.4944 -1.6872  1.1021
 7912TIP3    H245152   1.434   5.026  16.764  2.4761  0.5468 -1.1402
 7913TIP3   OH245153   5.642   4.187  17.035  0.0895  0.5682  0.1383
 7913TIP3    H145154   5.708   4.199  17.104 -1.7168 -0.6997  2.2375
 7913TIP3    H245155   5.673   4.110  16.987  0.6636  0.5970  0.4444
 7914TIP3   OH245156   1.699   0.999   4.420 -0.5151 -0.2659 -0.4729
 7914TIP3    H145157   1.730   1.059   4.488  0.6184 -1.2454 -0.0887
 7914TIP3    H245158   1.620   0.959   4.457 -0.4976 -0.0284 -0.1747
 7915TIP3   OH245159   0.490   5.293   3.875  0.2016  0.5434  0.5423
 7915TIP3    H145160   0.482   5.370   3.932 -0.2180  1.8961 -1.2485
 7915TIP3    H245161   0.399   5.271   3.852  0.3564 -0.1023  0.5183
 7916TIP3   OH245162   5.884   1.223   6.260 -0.2928 -0.1523  0.7157
 7916TIP3    H145163   5.914   1.291   6.320 -0.1927  0.2663  0.1981
 7916TIP3    H245164   5.888   1.143   6.312  3.7847 -0.5427  0.1091
 7917TIP3   OH245165   1.465   5.519   3.409 -0.6643 -0.3040 -0.1028
 7917TIP3    H145166   1.442   5.538   3.499  0.9156  1.1363  0.0663
 7917TIP3    H245167   1.558   5.497   3.412 -0.9367 -1.7825 -1.2098
 7918TIP3   OH245168   1.292   0.622  12.281  0.0927  0.5941  0.2564
 7918TIP3    H145169   1.207   0.664  12.290 -0.0183  0.2633  0.8768
 7918TIP3    H245170   1.273   0.529  12.293  0.3208  0.3424 -1.1619
 7919TIP3   OH245171   4.373   5.804   5.207  0.2562 -0.0864  0.5292
 7919TIP3    H145172   4.431   5.797   5.283  0.0880  2.1597  0.9488
 7919TIP3    H245173   4.430   5.794   5.132  0.7297 -0.5862  0.9484
 7920TIP3   OH245174   6.009   2.133   2.111 -0.2425 -0.0915 -0.3706
 7920TIP3    H145175   6.027   2.225   2.129  0.0256  0.5134 -3.1823
 7920TIP3    H245176   6.091   2.100   2.074 -1.0095 -0.8039 -1.5072
 7921TIP3   OH245177   4.252   6.699  12.935 -0.5956 -0.5979 -0.1722
 7921TIP3    H145178   4.261   6.776  12.878  1.5649  0.9382  2.0014
 7921TIP3    H245179   4.297   6.629  12.888  0.4557  0.4199 -0.7446
 7922TIP3   OH245180   0.212   2.048  14.530  0.3073 -1.0005 -0.3397
 7922TIP3    H145181   0.281   2.096  14.485  0.6099 -0.5961  0.5267
 7922TIP3    H245182   0.248   1.960  14.544  0.2910 -1.0633 -0.6935
 7923TIP3   OH245183   1.470   3.686  12.307  0.3395 -0.0424  0.0438
 7923TIP3    H145184   1.408   3.755  12.283  1.6573  0.7089 -1.4089
 7923TIP3    H245185   1.556   3.729  12.305  1.1256 -1.5297 -0.0505
 7924TIP3   OH245186   5.101   2.118   6.257 -0.1393 -0.3352  0.1112
 7924TIP3    H145187   5.191   2.110   6.225  1.0586  2.8188  2.1792
 7924TIP3    H245188   5.048   2.127   6.178  1.7322  0.2930 -1.1506
 7925TIP3   OH245189   1.465   6.514   1.051  0.5058  0.3388 -0.6192
 7925TIP3    H145190   1.445   6.472   1.134 -1.1005  0.6369 -0.8144
 7925TIP3    H245191   1.532   6.459   1.011  0.0698 -0.7614  0.1251
 7926TIP3   OH245192   1.762   6.095  13.063  0.0652  0.5183 -0.0222
 7926TIP3    H145193   1.696   6.045  13.110 -1.9590  1.3209 -1.8485
 7926TIP3    H245194   1.732   6.186  13.068  0.6358  0.8212 -1.5051
 7927TIP3   OH245195   2.019   5.963  10.762  0.1355 -0.0008  0.2438
 7927TIP3    H145196   1.977   6.048  10.772  0.9204  0.3562  0.6152
 7927TIP3    H245197   2.093   5.966  10.823  0.7001 -0.6058 -0.3983
 7928TIP3   OH245198   5.086   0.460   6.072 -0.3131  0.1132  0.0533
 7928TIP3    H145199   5.148   0.532   6.087 -0.9176  0.6928 -0.1698
 7928TIP3    H245200   5.003   0.504   6.054 -1.2642 -0.6441  2.2428
 7929TIP3   OH245201   0.871   6.489  15.449  0.5648 -0.5192 -0.0770
 7929TIP3    H145202   0.927   6.567  15.441 -1.5830  0.9498 -2.2402
 7929TIP3    H245203   0.794   6.520  15.497  0.0547 -1.5208 -0.2325
 7930TIP3   OH245204   4.966   2.793   0.875  0.1761  0.1350 -0.5528
 7930TIP3    H145205   4.980   2.734   0.801  2.5278 -0.3000  0.1877
 7930TIP3    H245206   5.009   2.751   0.949 -3.0558  0.0100  1.4603
 7931TIP3   OH245207   2.131   2.043  11.144  0.1823 -0.4320 -0.1863
 7931TIP3    H145208   2.135   2.068  11.052  0.4743  0.1819 -0.0112
 7931TIP3    H245209   2.179   1.961  11.148  0.9444 -0.0124 -0.4368
 7932TIP3   OH245210   4.640   1.073   2.323  0.7547 -0.1516  0.5064
 7932TIP3    H145211   4.675   1.160   2.343  2.6219 -0.8673  0.5293
 7932TIP3    H245212   4.618   1.036   2.408  1.6920 -0.3746  0.6646
 7933TIP3   OH245213   0.686   0.647  13.426  0.1593 -0.0618  0.5523
 7933TIP3    H145214   0.644   0.575  13.379 -0.2694  0.8483 -0.5119
 7933TIP3    H245215   0.666   0.630  13.518 -1.8954 -0.1029  0.1571
 7934TIP3   OH245216   1.943   1.456   1.053  0.3952 -0.2489  0.0069
 7934TIP3    H145217   2.016   1.452   0.991  0.3418  0.0348 -0.0773
 7934TIP3    H245218   1.929   1.366   1.080  0.4449 -0.3722 -0.3700
 7935TIP3   OH245219   2.912   6.704   4.433  0.2641  0.3602  0.1336
 7935TIP3    H145220   2.951   6.639   4.374 -1.1681  0.1466 -0.6474
 7935TIP3    H245221   2.970   6.706   4.509  1.4718 -0.3043 -0.7311
 7936TIP3   OH245222   3.360   2.774  11.088 -0.4042 -0.0095 -0.6571
 7936TIP3    H145223   3.395   2.710  11.026  0.0706  0.2740 -0.6880
 7936TIP3    H245224   3.424   2.845  11.088 -0.4477  0.0401  0.0878
 7937TIP3   OH245225   0.784   4.228   5.662 -0.2788 -0.4206 -0.0245
 7937TIP3    H145226   0.805   4.306   5.713 -1.4179  0.0260 -0.2078
 7937TIP3    H245227   0.733   4.173   5.721 -3.1895  0.8925 -1.0992
 7938TIP3   OH245228   1.280   5.706   0.287  0.0801  0.1054  0.0175
 7938TIP3    H145229   1.192   5.742   0.282  0.3904  0.8517 -0.3688
 7938TIP3    H245230   1.277   5.627   0.234  0.0211  0.9639 -1.3059
 7939TIP3   OH245231   6.434   4.048   1.329 -1.3353  0.1471 -0.1762
 7939TIP3    H145232   6.529   4.041   1.320 -1.3998  0.3996 -1.2758
 7939TIP3    H245233   6.406   3.961   1.357 -0.5862  0.6602  2.3530
 7940TIP3   OH245234   0.383   4.053   0.836  0.4489  0.3115  0.9457
 7940TIP3    H145235   0.370   3.967   0.874  0.0429  0.5640  1.3881
 7940TIP3    H245236   0.461   4.087   0.880  1.7273 -0.5396 -0.5292
 7941TIP3   OH245237   5.283   2.430  10.531 -0.1835  0.1000  0.0159
 7941TIP3    H145238   5.322   2.375  10.599 -2.6507 -0.2725  1.2594
 7941TIP3    H245239   5.267   2.369  10.458  1.7737  0.3381 -0.6563
 7942TIP3   OH245240   4.710   0.525  11.266  0.5567  0.6230 -0.7981
 7942TIP3    H145241   4.758   0.593  11.312  0.3588  0.2867 -0.0769
 7942TIP3    H245242   4.624   0.564  11.248  0.1238  0.2759  0.4158
 7943TIP3   OH245243   2.850   4.239   5.400 -0.7603 -0.5965 -0.6740
 7943TIP3    H145244   2.922   4.196   5.354 -0.3179 -0.5974  0.0058
 7943TIP3    H245245   2.893   4.294   5.466 -1.3554  0.0258 -0.7907
 7944TIP3   OH245246   4.174   6.440  11.562 -0.1034 -0.1178  0.1491
 7944TIP3    H145247   4.209   6.528  11.548  0.3144 -0.4831 -1.2721
 7944TIP3    H245248   4.238   6.399  11.620  0.9885 -0.2270 -1.0758
 7945TIP3   OH245249   5.062   4.683  14.543 -0.3918 -0.3738  0.2402
 7945TIP3    H145250   5.107   4.755  14.586 -0.1149 -1.4456  1.8623
 7945TIP3    H245251   5.093   4.605  14.589 -0.5354 -1.5535 -1.5702
 7946TIP3   OH245252   4.553   5.024   4.333 -0.2384 -0.1482 -0.4133
 7946TIP3    H145253   4.595   4.950   4.290  1.9581 -1.3473  3.2595
 7946TIP3    H245254   4.616   5.096   4.323  0.8965 -0.7748  1.5478
 7947TIP3   OH245255   5.943   6.018  12.844 -0.4700 -0.2519  0.7311
 7947TIP3    H145256   5.871   5.965  12.811  0.7744 -1.0450 -0.8784
 7947TIP3    H245257   5.966   6.076  12.770  1.0449 -0.6019  0.8982
 7948TIP3   OH245258   5.686   4.632  11.761  0.0665 -0.1599  0.1231
 7948TIP3    H145259   5.774   4.666  11.778  0.5081  0.5617 -3.0037
 7948TIP3    H245260   5.698   4.538  11.747  0.5316  0.0700 -1.1409
 7949TIP3   OH245261   3.038   5.266   5.568 -0.1714  0.2677 -0.3075
 7949TIP3    H145262   2.956   5.232   5.606 -0.2330  0.8846  0.1324
 7949TIP3    H245263   3.010   5.334   5.508  0.0477  1.1172  0.5264
 7950TIP3   OH245264   5.725   3.649  12.592 -0.2216  0.1512  0.2758
 7950TIP3    H145265   5.794   3.602  12.637  1.2932  1.3224 -0.6954
 7950TIP3    H245266   5.671   3.581  12.552  0.0499 -0.8045  1.4866
 7951TIP3   OH245267   3.120   5.502   5.711  0.6513  0.3062  0.0022
 7951TIP3    H145268   3.079   5.416   5.701 -0.1165  0.6075  0.3926
 7951TIP3    H245269   3.142   5.529   5.622  1.1136 -0.3942 -0.1002
 7952TIP3   OH245270   6.458   5.543  10.895  0.2933  0.0724 -0.1789
 7952TIP3    H145271   6.493   5.632  10.891 -0.2342  0.3010  0.1758
 7952TIP3    H245272   6.430   5.532  10.986  2.9059 -1.4581  0.5369
 7953TIP3   OH245273   2.509   2.719  16.032  0.2087 -0.4124 -0.3344
 7953TIP3    H145274   2.494   2.814  16.039  0.0896 -0.4393 -0.2217
 7953TIP3    H245275   2.431   2.686  15.988 -0.2680 -0.6137  0.6558
 7954TIP3   OH245276   4.129   3.376   3.481  0.5922 -0.3914 -0.4194
 7954TIP3    H145277   4.113   3.461   3.441 -1.6949  0.1060  1.3110
 7954TIP3    H245278   4.185   3.395   3.557 -1.0553 -0.1069  0.7974
 7955TIP3   OH245279   6.432   1.980  12.588  0.0331 -0.6405 -0.2562
 7955TIP3    H145280   6.478   1.897  12.602 -0.6762 -0.9947  0.0259
 7955TIP3    H245281   6.371   1.986  12.662 -0.5123 -0.2774 -0.7285
 7956TIP3   OH245282   1.167   1.427  12.457 -0.2710 -0.4524  0.4283
 7956TIP3    H145283   1.258   1.415  12.430 -0.4428  0.0387 -0.4260
 7956TIP3    H245284   1.132   1.339  12.464  0.3930 -0.6632  1.2257
 7957TIP3   OH245285   4.751   6.250   3.690  0.3307 -0.2510  0.1172
 7957TIP3    H145286   4.703   6.169   3.673  0.9236 -0.4395 -0.7057
 7957TIP3    H245287   4.838   6.221   3.718  0.4245  0.0968  0.1883
 7958TIP3   OH245288   0.234   0.947   3.603 -0.0723  0.0819 -0.1144
 7958TIP3    H145289   0.206   0.950   3.694 -2.4952 -1.4931 -0.7171
 7958TIP3    H245290   0.164   0.991   3.554  0.5327 -0.2421 -1.3297
 7959TIP3   OH245291   2.886   1.926  11.396  0.4943  0.2651  0.1601
 7959TIP3    H145292   2.863   1.999  11.338  0.7235 -0.6493 -1.1086
 7959TIP3    H245293   2.810   1.868  11.392  0.3058  0.4215  1.1865
 7960TIP3   OH245294   2.581   4.453  11.214  0.2723  0.5549  0.1075
 7960TIP3    H145295   2.654   4.485  11.161  0.6888  0.9778  0.9163
 7960TIP3    H245296   2.604   4.477  11.304  0.7561 -2.2628  0.8280
 7961TIP3   OH245297   1.822   6.318  14.864  0.1992  0.0427 -0.4156
 7961TIP3    H145298   1.879   6.387  14.895 -0.9338  0.7736  0.0961
 7961TIP3    H245299   1.734   6.345  14.890 -0.3448 -1.2589 -0.7965
 7962TIP3   OH245300   6.671   6.011  12.699 -0.7432  0.1313 -0.3349
 7962TIP3    H145301   6.607   5.997  12.630 -0.8686 -0.5452 -0.0930
 7962TIP3    H245302   6.756   6.001  12.655 -0.7618  1.8808 -0.8339
 7963TIP3   OH245303   1.880   5.697  15.309 -0.8033 -0.2892  0.0276
 7963TIP3    H145304   1.816   5.744  15.256  0.4281  0.6346 -0.7242
 7963TIP3    H245305   1.964   5.719  15.268  0.0920 -0.4787  1.6881
 7964TIP3   OH245306   6.098   5.254   4.393 -0.1133 -0.2632 -0.8150
 7964TIP3    H145307   6.021   5.232   4.342 -0.4458  1.4690 -1.1272
 7964TIP3    H245308   6.154   5.176   4.388 -1.8716 -1.6034 -0.4528
 7965TIP3   OH245309   1.918   1.766   4.144 -0.2763  0.2040 -0.0423
 7965TIP3    H145310   1.944   1.712   4.069 -0.6833  0.1975 -0.1819
 7965TIP3    H245311   1.854   1.712   4.191 -1.7126  1.0698 -0.9223
 7966TIP3   OH245312   5.052   0.253  16.299 -0.5785  0.2289 -0.0948
 7966TIP3    H145313   5.031   0.326  16.357  0.1884  0.7504 -0.4651
 7966TIP3    H245314   5.147   0.247  16.300 -0.2974  2.0100 -3.3820
 7967TIP3   OH245315   2.363   3.074   5.807  0.2270 -0.1576  0.1998
 7967TIP3    H145316   2.316   3.040   5.731  1.3846 -2.0094  0.2508
 7967TIP3    H245317   2.449   3.099   5.773  0.5919 -0.5648  0.8059
 7968TIP3   OH245318   6.789   2.813   3.852  0.6625 -0.1802  0.8541
 7968TIP3    H145319   6.712   2.782   3.805  0.1540 -1.1491  2.2640
 7968TIP3    H245320   6.754   2.863   3.926  1.4472  1.4049  0.2127
 7969TIP3   OH245321   4.627   3.058  14.745 -0.0317 -0.0487 -0.0938
 7969TIP3    H145322   4.551   3.058  14.803  0.3377  1.3531  0.4247
 7969TIP3    H245323   4.603   2.998  14.674 -1.0617 -0.6827  0.7555
 7970TIP3   OH245324   3.463   2.316   2.763 -0.1461 -0.1065  0.0623
 7970TIP3    H145325   3.553   2.289   2.779 -0.2170  0.6014  1.9403
 7970TIP3    H245326   3.458   2.405   2.798 -0.8516  1.0116 -2.6359
 7971TIP3   OH245327   3.046   4.138   1.520  0.1386 -0.1931  0.8013
 7971TIP3    H145328   3.105   4.089   1.577 -1.2156 -0.5891  1.9116
 7971TIP3    H245329   3.061   4.230   1.543  0.0394 -0.3129  1.3535
 7972TIP3   OH245330   6.156   6.495  14.306 -0.1488  0.6890 -0.3684
 7972TIP3    H145331   6.173   6.589  14.303  0.7037  0.5235 -1.2615
 7972TIP3    H245332   6.143   6.470  14.214  0.1994 -0.1501 -0.2011
 7973TIP3   OH245333   1.196   0.071  12.534  0.2732  0.4622  0.0357
 7973TIP3    H145334   1.268   0.119  12.494  1.8382 -1.3567  0.5545
 7973TIP3    H245335   1.126   0.137  12.544  0.9950  1.7533 -2.5368
 7974TIP3   OH245336   6.221   0.870   2.570 -0.0261  0.3969  0.1483
 7974TIP3    H145337   6.303   0.918   2.560  1.3814 -2.0288 -0.5981
 7974TIP3    H245338   6.190   0.855   2.481  0.0507 -0.8009  0.3014
 7975TIP3   OH245339   0.727   5.948  16.588 -0.0568 -0.0714 -0.8542
 7975TIP3    H145340   0.687   6.013  16.531 -0.6274  1.5699  1.2861
 7975TIP3    H245341   0.757   5.880  16.529 -0.8395  1.3877 -3.0653
 7976TIP3   OH245342   2.197   1.057   4.401  0.4808 -0.0635 -0.6056
 7976TIP3    H145343   2.186   1.145   4.439 -3.3548 -1.0017  0.9170
 7976TIP3    H245344   2.290   1.037   4.417  1.0465  2.9150  0.7596
 7977TIP3   OH245345   5.651   5.785   0.294 -0.3848  0.1283  0.5026
 7977TIP3    H145346   5.599   5.708   0.320  2.1221 -1.6248  0.6883
 7977TIP3    H245347   5.640   5.791   0.199 -0.5091 -0.5517  0.4675
 7978TIP3   OH245348   3.801   3.058   1.202  0.1061 -0.2084  0.1125
 7978TIP3    H145349   3.862   3.064   1.128  1.5505 -0.5500  1.2284
 7978TIP3    H245350   3.827   2.978   1.248 -1.3616 -0.4875  0.5030
 7979TIP3   OH245351   2.077   5.247  12.095  0.2348  0.1543 -0.1728
 7979TIP3    H145352   2.169   5.270  12.094  0.0265  1.0082 -0.5411
 7979TIP3    H245353   2.076   5.151  12.100  1.1325  0.1364 -0.2113
 7980TIP3   OH245354   4.364   1.427  11.002 -0.3899  0.1886 -0.1240
 7980TIP3    H145355   4.275   1.402  11.027 -0.0556 -2.8090 -1.4926
 7980TIP3    H245356   4.391   1.360  10.939  2.4597  1.6142 -0.5733
 7981TIP3   OH245357   5.974   5.895   4.112 -0.1484  0.3341  0.5868
 7981TIP3    H145358   5.932   5.826   4.163 -0.2120 -0.2511 -0.2221
 7981TIP3    H245359   5.911   5.967   4.113  0.4755  0.9069  2.5413
 7982TIP3   OH245360   0.931   4.258   2.481 -0.0839 -0.3374  0.1512
 7982TIP3    H145361   0.898   4.230   2.566 -0.6910  1.3987  0.5289
 7982TIP3    H245362   0.953   4.350   2.493  0.9746 -0.3658 -1.2577
 7983TIP3   OH245363   1.521   4.201  11.980  0.3909 -0.1658  0.0410
 7983TIP3    H145364   1.571   4.283  11.983  1.0610 -0.5734  0.2420
 7983TIP3    H245365   1.506   4.185  11.887  4.0398 -2.0345 -0.3968
 7984TIP3   OH245366   1.644   5.132  15.557 -0.0750  0.2189  0.2422
 7984TIP3    H145367   1.617   5.220  15.531  0.2038  0.1248 -0.3876
 7984TIP3    H245368   1.740   5.138  15.565 -0.1606  0.2635  1.3386
 7985TIP3   OH245369   0.854   1.815  16.230 -0.0603 -0.7052 -0.2791
 7985TIP3    H145370   0.908   1.801  16.308  1.7422 -0.3136 -1.3911
 7985TIP3    H245371   0.776   1.859  16.263  0.9020 -0.0367  1.2401
 7986TIP3   OH245372   5.384   0.671   3.483  0.1131  0.0745  0.5060
 7986TIP3    H145373   5.290   0.683   3.484  0.0837 -0.0907  1.5600
 7986TIP3    H245374   5.400   0.602   3.548  1.0033  0.5248  0.7936
 7987TIP3   OH245375   1.334   5.777   2.037  0.1023  0.0277  0.0268
 7987TIP3    H145376   1.389   5.724   1.980 -0.0082  0.4246 -0.4580
 7987TIP3    H245377   1.251   5.730   2.041  0.4436 -0.5403  0.7102
 7988TIP3   OH245378   1.582   1.823  11.613  0.3414  0.1329  0.1272
 7988TIP3    H145379   1.608   1.913  11.592  1.5183  0.5151  2.8649
 7988TIP3    H245380   1.567   1.823  11.707 -0.2956 -2.4025  0.0949
 7989TIP3   OH245381   4.283   3.879   3.618 -0.2918  0.4868 -0.3213
 7989TIP3    H145382   4.217   3.815   3.645  1.1944 -1.3770 -0.8466
 7989TIP3    H245383   4.302   3.857   3.527 -1.4070  3.2425 -1.2987
 7990TIP3   OH245384   4.091   1.178  13.812  0.2110 -0.1235  0.6308
 7990TIP3    H145385   4.096   1.273  13.819  0.8856 -0.1727  0.8493
 7990TIP3    H245386   4.021   1.153  13.873 -1.2028  0.3759 -0.7195
 7991TIP3   OH245387   6.741   2.272  11.772  0.4240  0.1421  0.4023
 7991TIP3    H145388   6.832   2.304  11.768  1.2167 -2.0360 -0.2981
 7991TIP3    H245389   6.719   2.251  11.681 -1.3322  1.9359  0.3474
 7992TIP3   OH245390   2.928   4.079  13.881 -0.8903  0.3258 -0.0802
 7992TIP3    H145391   2.959   4.006  13.934  1.8182  1.2029 -0.3458
 7992TIP3    H245392   2.882   4.038  13.808  1.8022 -1.2604 -1.0102
 7993TIP3   OH245393   2.315   4.928  14.735  0.3547 -0.4480 -0.5361
 7993TIP3    H145394   2.388   4.986  14.757  0.7175 -0.7165 -1.0204
 7993TIP3    H245395   2.245   4.987  14.708  0.6136 -0.2237 -0.7172
 7994TIP3   OH245396   0.233   5.180   0.554  0.2586  0.0623 -0.1132
 7994TIP3    H145397   0.181   5.143   0.482 -2.2766  1.2132  1.0002
 7994TIP3    H245398   0.279   5.254   0.515 -2.6111  1.8995 -0.2763
 7995TIP3   OH245399   3.884   5.992   4.651  0.5329  0.4841 -0.6674
 7995TIP3    H145400   3.913   5.964   4.564  0.4977 -1.3477 -0.1207
 7995TIP3    H245401   3.910   6.084   4.656 -0.0624  0.8320 -2.8630
 7996TIP3   OH245402   4.437   1.237   4.600  0.0221 -0.2714  0.2309
 7996TIP3    H145403   4.472   1.325   4.614  0.3346 -0.2565 -0.6143
 7996TIP3    H245404   4.386   1.243   4.520  0.0192 -0.8533  0.1844
 7997TIP3   OH245405   2.141   4.984   3.559  0.1233  0.2791  0.0078
 7997TIP3    H145406   2.055   4.987   3.602 -0.4282  0.1463 -1.0535
 7997TIP3    H245407   2.194   5.047   3.607 -1.4923  2.8072 -1.2866
 7998TIP3   OH245408   5.502   0.142  13.163 -0.0811 -0.7321  0.0103
 7998TIP3    H145409   5.595   0.132  13.142  0.0307  0.7875 -0.3694
 7998TIP3    H245410   5.501   0.171  13.254 -0.1352 -0.1733 -0.1634
 7999TIP3   OH245411   2.711   4.600   2.880  0.4572  0.0006 -0.0150
 7999TIP3    H145412   2.758   4.526   2.841  0.8217  0.5224 -0.5739
 7999TIP3    H245413   2.704   4.665   2.810 -1.3638 -0.1646 -0.0382
 8000TIP3   OH245414   0.324   5.449   1.749  0.0153 -0.5819 -0.2202
 8000TIP3    H145415   0.275   5.395   1.687  1.5605 -1.5121 -0.6888
 8000TIP3    H245416   0.395   5.487   1.697  0.6288 -0.4121  0.7191
 8001TIP3   OH245417   0.271   0.744   0.677 -0.0989 -0.5049 -0.2519
 8001TIP3    H145418   0.355   0.703   0.655  0.6312  0.3848  0.8015
 8001TIP3    H245419   0.277   0.763   0.771 -1.3338 -0.0822 -0.2401
 8002TIP3   OH245420   1.522   0.051  10.430  0.0799  0.0281 -0.8479
 8002TIP3    H145421   1.584   0.123  10.427  1.0724 -0.7957 -0.5327
 8002TIP3    H245422   1.485   0.046  10.342 -0.5091  1.3441 -0.6927
 8003TIP3   OH245423   0.704   3.486  15.203  0.1257  0.4237  0.2660
 8003TIP3    H145424   0.613   3.488  15.233 -0.1653 -1.4109 -0.3936
 8003TIP3    H245425   0.727   3.579  15.193 -1.6854  0.9306  0.3827
 8004TIP3   OH245426   1.838   0.591   1.138 -0.2136  0.0249  0.4052
 8004TIP3    H145427   1.778   0.607   1.065  1.1428 -1.3405 -1.1030
 8004TIP3    H245428   1.923   0.576   1.096  0.3739 -2.0632  2.1485
 8005TIP3   OH245429   3.757   4.451   4.655 -0.3632 -0.3807  0.9459
 8005TIP3    H145430   3.664   4.468   4.666 -0.3403  0.9509 -0.6797
 8005TIP3    H245431   3.799   4.501   4.726 -0.7096  1.5994 -0.1832
 8006TIP3   OH245432   4.007   3.764   6.372  0.9472 -0.8925  0.5025
 8006TIP3    H145433   4.084   3.811   6.404  1.5527  0.5857 -2.7116
 8006TIP3    H245434   3.949   3.833   6.339  0.3205 -2.1918 -1.2558
 8007TIP3   OH245435   1.508   6.548  15.820 -0.0020 -0.1858  0.1301
 8007TIP3    H145436   1.555   6.576  15.899  0.7029 -0.9149 -0.0278
 8007TIP3    H245437   1.537   6.609  15.752 -0.7705  0.5778  0.4624
 8008TIP3   OH245438   6.304   1.085  11.443 -0.3962  0.5710 -0.1552
 8008TIP3    H145439   6.285   1.120  11.530 -0.0751  2.0499 -0.6589
 8008TIP3    H245440   6.342   0.999  11.460  2.6006  2.0587  1.3519
 8009TIP3   OH245441   6.474   4.827  14.553  0.1187  0.0195 -0.0941
 8009TIP3    H145442   6.429   4.845  14.470 -0.2492  0.4739  0.2015
 8009TIP3    H245443   6.546   4.769  14.528 -1.4631 -1.9369 -0.3640
 8010TIP3   OH245444   2.055   1.345   5.242 -0.2449 -0.1610 -0.3943
 8010TIP3    H145445   2.049   1.428   5.288  2.0216  0.2809 -0.7444
 8010TIP3    H245446   1.998   1.355   5.166 -1.4266  0.3514  0.5329
 8011TIP3   OH245447   2.675   3.392   2.764 -0.0686 -0.2658 -0.2699
 8011TIP3    H145448   2.694   3.299   2.772 -2.4060 -0.6635  1.3215
 8011TIP3    H245449   2.619   3.413   2.838 -1.3477  1.9457 -1.7207
 8012TIP3   OH245450   4.518   5.144  13.568  0.3843 -0.2400 -0.1832
 8012TIP3    H145451   4.446   5.204  13.587  0.7560 -0.3372  1.7084
 8012TIP3    H245452   4.564   5.183  13.494 -0.0868  1.1855  0.2535
 8013TIP3   OH245453   2.621   1.895  15.291 -0.0647  0.1845  0.2396
 8013TIP3    H145454   2.610   1.986  15.262  2.8767  0.9436  1.1219
 8013TIP3    H245455   2.680   1.856  15.227  0.2737 -0.4949  0.9521
 8014TIP3   OH245456   6.520   1.346   5.656  0.2575 -0.3697 -0.4444
 8014TIP3    H145457   6.563   1.392   5.584  0.8345 -1.6997 -0.9887
 8014TIP3    H245458   6.583   1.279   5.683  0.0961  0.1694  1.4017
 8015TIP3   OH245459   0.939   2.284   2.007 -0.3416 -0.1850 -0.2574
 8015TIP3    H145460   0.944   2.200   1.962 -2.0042 -0.9673  0.8920
 8015TIP3    H245461   0.931   2.348   1.937 -1.5276 -1.2360 -1.1311
 8016TIP3   OH245462   1.195   2.642   4.798 -0.2482  0.2740 -0.1427
 8016TIP3    H145463   1.133   2.601   4.737  1.0760 -1.1759 -0.5986
 8016TIP3    H245464   1.279   2.603   4.775  0.1456 -1.5968  3.6078
 8017TIP3   OH245465   3.140   0.871  12.890 -0.1058 -0.1793  0.2566
 8017TIP3    H145466   3.186   0.944  12.931  0.1498 -1.0194  1.5013
 8017TIP3    H245467   3.047   0.893  12.897 -0.0091  0.2918  0.0897
 8018TIP3   OH245468   5.733   6.722   2.754 -0.8221  0.0893  0.0799
 8018TIP3    H145469   5.810   6.760   2.797 -0.4500 -0.5280 -0.0388
 8018TIP3    H245470   5.658   6.765   2.797 -0.4776 -0.7601  1.6207
 8019TIP3   OH245471   5.142   3.298  12.840  0.7204 -0.4907  0.0396
 8019TIP3    H145472   5.171   3.235  12.906  1.0070 -1.5834 -1.0952
 8019TIP3    H245473   5.167   3.259  12.756 -0.9764  0.1327 -0.8141
 8020TIP3   OH245474   4.024   3.336   5.999 -0.0424 -0.6195 -0.1739
 8020TIP3    H145475   4.109   3.362   5.962 -1.1192 -0.5860 -2.7981
 8020TIP3    H245476   4.019   3.385   6.081  2.2336 -0.2187 -0.1927
 8021TIP3   OH245477   5.225   2.257   2.972 -0.1088  0.1112  0.3465
 8021TIP3    H145478   5.293   2.319   2.944 -0.6976  0.1479 -1.0599
 8021TIP3    H245479   5.207   2.204   2.894 -0.5989 -0.9309  1.1453
 8022TIP3   OH245480   5.502   3.295  15.821  0.1857  0.2487  0.1381
 8022TIP3    H145481   5.550   3.334  15.748 -0.4937  0.7153 -0.0783
 8022TIP3    H245482   5.493   3.366  15.884 -1.1172  0.4980 -0.2848
 8023TIP3   OH245483   4.002   6.243  15.003  0.0949  1.0183  0.8343
 8023TIP3    H145484   3.946   6.235  14.926  1.5449  0.8920 -0.2546
 8023TIP3    H245485   3.991   6.333  15.032  0.1771  1.3289 -0.0653
 8024TIP3   OH245486   3.355   2.239  16.597 -0.0814 -0.1036  0.0904
 8024TIP3    H145487   3.317   2.154  16.622  1.3548 -1.0700 -0.8545
 8024TIP3    H245488   3.422   2.256  16.663 -0.2689  0.2406  0.1941
 8025TIP3   OH245489   3.160   6.020  14.357  0.3818 -0.0958  0.5449
 8025TIP3    H145490   3.202   5.936  14.372  2.8018  0.8903 -0.1886
 8025TIP3    H245491   3.120   6.013  14.270  1.6874 -0.0890 -0.0693
 8026TIP3   OH245492   0.508   0.721  13.718 -0.7188 -0.1069 -0.3265
 8026TIP3    H145493   0.470   0.748  13.635  0.8659 -0.4509 -1.2122
 8026TIP3    H245494   0.493   0.627  13.723 -0.0582 -0.2356 -0.6557
 8027TIP3   OH245495   4.176   1.754   5.384  0.2237  0.5079  0.0362
 8027TIP3    H145496   4.108   1.718   5.441  0.3378  1.0587  0.5299
 8027TIP3    H245497   4.141   1.744   5.296  0.3709 -1.0859  0.1203
 8028TIP3   OH245498   4.868   0.263   1.484  0.2389  0.2018  0.2393
 8028TIP3    H145499   4.952   0.299   1.457  0.5523  0.1765  1.1748
 8028TIP3    H245500   4.883   0.168   1.488  0.1606  0.1956  0.3822
 8029TIP3   OH245501   0.388   6.593  14.649 -0.2732 -0.9672  0.4646
 8029TIP3    H145502   0.430   6.671  14.612 -0.1274 -0.9916  0.5795
 8029TIP3    H245503   0.314   6.576  14.590  1.4106 -2.5213 -1.3206
 8030TIP3   OH245504   0.037   2.353  12.310  0.0013 -0.1323 -0.7743
 8030TIP3    H145505  -0.030   2.287  12.294  0.2470 -0.1216 -1.9755
 8030TIP3    H245506   0.065   2.338  12.400 -1.7138 -0.0397 -0.1786
 8031TIP3   OH245507   3.685   6.475  14.889  0.0669  0.1290 -0.0544
 8031TIP3    H145508   3.749   6.532  14.847  0.9113 -0.6829  0.0748
 8031TIP3    H245509   3.708   6.477  14.982 -0.6536  0.5147  0.1187
 8032TIP3   OH245510   0.309   2.953  12.701 -0.2745 -0.4576 -0.4727
 8032TIP3    H145511   0.320   3.048  12.699  0.2340 -0.4806  0.5797
 8032TIP3    H245512   0.364   2.921  12.631  1.5124 -0.1279  0.7229
 8033TIP3   OH245513   6.336   4.507  11.557  0.3461  0.1262 -0.4913
 8033TIP3    H145514   6.344   4.599  11.530  0.6898  0.3292  0.2797
 8033TIP3    H245515   6.382   4.502  11.640 -3.4323  0.2979  1.8538
 8034TIP3   OH245516   4.172   5.141  10.360  0.0435 -0.0369  0.1540
 8034TIP3    H145517   4.229   5.196  10.414 -1.4505 -0.9414  2.8190
 8034TIP3    H245518   4.163   5.060  10.410 -2.9922 -0.1839 -0.4673
 8035TIP3   OH245519   5.798   1.118  12.536 -0.3170  0.0832 -0.1067
 8035TIP3    H145520   5.759   1.126  12.449 -1.1467  0.8923  0.3249
 8035TIP3    H245521   5.732   1.153  12.595  0.5328  0.2086  0.7876
 8036TIP3   OH245522   3.462   3.687   0.417 -0.2617 -0.8160  0.1992
 8036TIP3    H145523   3.373   3.719   0.431 -0.5931 -2.2384  1.7198
 8036TIP3    H245524   3.458   3.643   0.332 -0.2580  1.4463 -1.0373
 8037TIP3   OH245525   0.053   2.953  12.829 -0.4156  0.3633 -0.3307
 8037TIP3    H145526   0.139   2.953  12.786  0.3496  1.9794  1.0934
 8037TIP3    H245527   0.046   2.867  12.870  1.4144  0.8937  1.1812
 8038TIP3   OH245528   2.094   0.167  13.270  0.0830 -0.0401 -0.2879
 8038TIP3    H145529   2.011   0.216  13.265 -1.3651 -2.3664 -0.4433
 8038TIP3    H245530   2.161   0.234  13.255 -1.6853  2.0846  0.5601
 8039TIP3   OH245531   1.869   1.779   0.894 -0.1268  0.2266  0.0924
 8039TIP3    H145532   1.826   1.816   0.971 -1.3219  0.6902 -0.7600
 8039TIP3    H245533   1.802   1.724   0.853  0.1537  0.7719 -1.1469
 8040TIP3   OH245534   1.744   6.580   0.957 -0.9640 -0.3720  0.3953
 8040TIP3    H145535   1.730   6.656   1.013 -1.3898 -0.0508 -0.1420
 8040TIP3    H245536   1.835   6.555   0.974  0.1711  2.0346 -1.5460
 8041TIP3   OH245537   3.092   1.568  14.228  0.2048 -0.2526 -0.1997
 8041TIP3    H145538   3.134   1.560  14.143 -1.4199 -0.8925 -0.9843
 8041TIP3    H245539   3.109   1.483  14.270 -0.5995 -0.6513 -0.6666
 8042TIP3   OH245540   3.778   0.943   1.084 -0.2155  0.0308 -0.2613
 8042TIP3    H145541   3.778   0.951   1.179  0.3726 -1.3042 -0.1325
 8042TIP3    H245542   3.798   1.032   1.052  1.6354  0.0956  0.9194
 8043TIP3   OH245543   2.155   6.525  14.562  0.0530  0.6183 -0.2878
 8043TIP3    H145544   2.205   6.594  14.607  1.3860  0.0146 -0.8121
 8043TIP3    H245545   2.219   6.457  14.544 -1.0041 -0.2406 -0.8727
 8044TIP3   OH245546   3.683   3.726   4.758 -0.2607 -0.4016 -0.2010
 8044TIP3    H145547   3.651   3.770   4.837 -0.4341 -1.5066  0.3567
 8044TIP3    H245548   3.605   3.719   4.702 -0.3066 -0.3172 -0.1495
 8045TIP3   OH245549   3.844   3.887  16.183 -0.2696  0.0901 -0.8789
 8045TIP3    H145550   3.801   3.971  16.172 -2.6323 -0.8631  0.3920
 8045TIP3    H245551   3.803   3.830  16.118 -0.4472 -0.6846 -0.1068
 8046TIP3   OH245552   0.256   3.508   4.207 -0.4758  0.6280  1.1020
 8046TIP3    H145553   0.304   3.558   4.273 -0.0599  1.7111  0.0215
 8046TIP3    H245554   0.323   3.483   4.143 -1.1566  1.2432  0.1232
 8047TIP3   OH245555   4.456   3.514   3.504  0.7519  0.0421 -0.1265
 8047TIP3    H145556   4.429   3.461   3.579 -0.0107 -1.5405 -1.4551
 8047TIP3    H245557   4.496   3.451   3.443  1.3010  1.2642 -1.0648
 8048TIP3   OH245558   1.855   2.293   3.865 -0.0980  0.2449  0.5375
 8048TIP3    H145559   1.787   2.276   3.931  0.0220 -2.4994  0.0950
 8048TIP3    H245560   1.807   2.333   3.792 -0.9922 -0.3318  0.7823
 8049TIP3   OH245561   1.498   3.739   0.063  0.0565 -0.0523  0.3777
 8049TIP3    H145562   1.508   3.774   0.152 -0.5214 -2.0508  1.2770
 8049TIP3    H245563   1.480   3.646   0.075  0.1676 -0.4244 -1.8604
 8050TIP3   OH245564   2.234   3.819   0.304  0.1162  0.1379  0.0121
 8050TIP3    H145565   2.200   3.866   0.228 -1.6318 -1.0393  0.0110
 8050TIP3    H245566   2.311   3.772   0.272  0.0001  0.4739 -0.7636
 8051TIP3   OH245567   1.196   5.987  16.347 -0.3194 -0.1698  0.2779
 8051TIP3    H145568   1.168   6.061  16.403 -1.6126 -0.5007  0.1126
 8051TIP3    H245569   1.290   5.999  16.338  0.4469 -1.3220  4.3808
 8052TIP3   OH245570   1.219   6.760   3.521  0.2521  0.7515 -0.0737
 8052TIP3    H145571   1.235   6.666   3.511  1.1800  0.7039  1.5229
 8052TIP3    H245572   1.143   6.766   3.579 -0.1451  1.0061 -0.6059
 8053TIP3   OH245573   4.044   5.727   0.914  0.1752 -0.5432 -0.2491
 8053TIP3    H145574   4.085   5.814   0.911  0.0877 -0.3240  2.4221
 8053TIP3    H245575   4.117   5.666   0.926  0.1417 -0.7792 -1.1249
 8054TIP3   OH245576   1.195   4.400   2.917  0.1911  0.3326 -0.1417
 8054TIP3    H145577   1.265   4.352   2.960  1.1698  0.7743 -1.2085
 8054TIP3    H245578   1.117   4.347   2.933  0.7739 -0.2245  0.9614
 8055TIP3   OH245579   3.984   3.521   6.215 -0.1336 -0.7814  0.1412
 8055TIP3    H145580   4.043   3.584   6.256 -1.1043 -0.8355  1.7269
 8055TIP3    H245581   3.924   3.495   6.286 -1.9357 -0.8584 -1.3314
 8056TIP3   OH245582   4.291   2.979  13.918 -0.5499 -0.2033  0.2140
 8056TIP3    H145583   4.211   2.931  13.896 -0.4798 -0.8846  1.3835
 8056TIP3    H245584   4.262   3.070  13.931 -1.2371 -0.5550  1.1976
 8057TIP3   OH245585   3.654   3.228   1.366  0.0196  0.6468 -0.1886
 8057TIP3    H145586   3.717   3.172   1.320 -0.8478  0.1285 -0.7659
 8057TIP3    H245587   3.574   3.176   1.371 -0.3570  1.2715  0.5925
 8058TIP3   OH245588   2.418   1.844   5.624 -0.0137 -0.0344  0.0722
 8058TIP3    H145589   2.504   1.827   5.661  1.4513  1.4996 -2.3614
 8058TIP3    H245590   2.382   1.914   5.679 -0.1808 -1.3569  1.7045
 8059TIP3   OH245591   5.536   5.189   6.308  0.4136 -0.1283 -0.2531
 8059TIP3    H145592   5.494   5.103   6.309 -0.5622  0.3158 -1.0117
 8059TIP3    H245593   5.469   5.248   6.344  0.1702  0.6769 -1.9334
 8060TIP3   OH245594   4.625   5.108   0.903 -0.4673  0.2804 -0.2419
 8060TIP3    H145595   4.714   5.084   0.928 -0.9498  0.2161  1.5214
 8060TIP3    H245596   4.598   5.172   0.969 -2.2613 -0.8387  0.1751
 8061TIP3   OH245597   2.259   6.133  11.409 -0.0239 -0.0111  0.0390
 8061TIP3    H145598   2.317   6.099  11.340  1.2803  0.9069  0.6332
 8061TIP3    H245599   2.259   6.228  11.396 -2.6979 -0.0733 -0.8961
 8062TIP3   OH245600   6.238   5.585  13.164 -0.9860 -0.1128  0.4958
 8062TIP3    H145601   6.295   5.532  13.110 -2.3414 -0.6174 -0.5047
 8062TIP3    H245602   6.156   5.591  13.114 -1.6484  0.9757  1.6426
 8063TIP3   OH245603   2.836   2.211  15.263 -0.2144 -0.1690  0.2875
 8063TIP3    H145604   2.888   2.150  15.314  0.2217 -0.5155 -0.5577
 8063TIP3    H245605   2.745   2.186  15.281 -0.0411 -1.1587 -0.1511
 8064TIP3   OH245606   5.869   4.815  11.372  0.2086 -0.2391 -0.8426
 8064TIP3    H145607   5.840   4.906  11.369 -1.3024 -0.7050 -1.1291
 8064TIP3    H245608   5.930   4.811  11.446 -1.7282  0.4538  0.8705
 8065TIP3   OH245609   4.065   6.286   6.464 -0.3497  0.0926  0.2814
 8065TIP3    H145610   4.001   6.313   6.398  1.2245  1.1969 -0.8815
 8065TIP3    H245611   4.134   6.243   6.414 -0.6694 -2.1435  1.6336
 8066TIP3   OH245612   0.095   0.655  13.828  0.1506 -0.4473  0.2387
 8066TIP3    H145613   0.142   0.682  13.907  0.8363  2.1435 -0.9221
 8066TIP3    H245614   0.163   0.616  13.772  0.4485  0.9810 -0.4354
 8067TIP3   OH245615   2.866   4.553  15.225 -0.0010 -0.6335  0.1503
 8067TIP3    H145616   2.919   4.494  15.279 -1.0253 -0.2417  1.6536
 8067TIP3    H245617   2.802   4.496  15.184 -0.6695 -0.6677  1.2002
 8068TIP3   OH245618   0.338   4.058  12.245 -0.1055  0.5081  0.1048
 8068TIP3    H145619   0.384   4.006  12.310 -0.4263 -0.5003 -0.4504
 8068TIP3    H245620   0.248   4.064  12.278 -0.2166  0.1797 -0.1334
 8069TIP3   OH245621   5.729   6.758  13.829 -0.4584 -0.1658 -0.8429
 8069TIP3    H145622   5.674   6.701  13.882 -1.3451  0.6644 -0.8384
 8069TIP3    H245623   5.744   6.710  13.748  0.5099 -1.2467 -0.0607
 8070TIP3   OH245624   2.143   1.430   2.465  0.1114  0.1916 -0.4159
 8070TIP3    H145625   2.215   1.484   2.498 -0.2583  0.8489 -0.6803
 8070TIP3    H245626   2.159   1.424   2.371  0.9338 -1.3386 -0.2046
 8071TIP3   OH245627   5.644   4.786   0.876  0.0614 -0.3041  0.3025
 8071TIP3    H145628   5.569   4.805   0.932  0.3611  2.0687  0.0085
 8071TIP3    H245629   5.621   4.824   0.791 -0.0690 -3.1638 -1.0553
 8072TIP3   OH245630   3.375   1.063   2.519  0.5692  0.1149  0.0984
 8072TIP3    H145631   3.441   0.997   2.536  0.6226  0.2093  0.2624
 8072TIP3    H245632   3.425   1.142   2.497  0.5384  0.4579  1.2091
 8073TIP3   OH245633   0.892   6.626  13.282  0.0365  0.4098 -0.3400
 8073TIP3    H145634   0.964   6.629  13.345 -0.2109  0.4984 -0.0567
 8073TIP3    H245635   0.814   6.616  13.336 -0.0795 -0.7118 -0.6981
 8074TIP3   OH245636   0.774   4.144  12.911 -0.3505 -0.3457 -0.1043
 8074TIP3    H145637   0.866   4.139  12.885 -0.5731 -2.2841 -0.7082
 8074TIP3    H245638   0.776   4.183  12.998  1.0283 -0.2534 -0.1501
 8075TIP3   OH245639   2.070   3.593  14.060  0.4128 -0.5640 -0.4113
 8075TIP3    H145640   2.049   3.616  13.970  0.0434  0.0372 -0.1780
 8075TIP3    H245641   1.987   3.603  14.108  0.9087  0.5257  0.2619
 8076TIP3   OH245642   3.854   5.720  13.806 -0.5765 -0.3954 -0.0672
 8076TIP3    H145643   3.883   5.784  13.741 -1.7198  0.8038  0.5697
 8076TIP3    H245644   3.762   5.704  13.785 -1.3299  0.9364  1.9303
 8077TIP3   OH245645   2.534   1.349  14.265  0.2746 -0.2617  0.0129
 8077TIP3    H145646   2.572   1.394  14.341 -0.4866  0.5054 -0.0434
 8077TIP3    H245647   2.609   1.325  14.211  0.8174 -0.6879  0.9357
 8078TIP3   OH245648   1.133   0.294  15.633  0.2328  0.0038  0.2359
 8078TIP3    H145649   1.210   0.237  15.629 -0.7522 -1.3482 -0.0986
 8078TIP3    H245650   1.098   0.282  15.721  1.5911  2.3125  1.1886
 8079TIP3   OH245651   0.745   0.895  16.527 -0.5145 -0.8530 -0.2697
 8079TIP3    H145652   0.735   0.978  16.574 -0.4865 -1.5795  1.0433
 8079TIP3    H245653   0.684   0.902  16.453 -0.7511  0.1984  0.0110
 8080TIP3   OH245654   4.381   6.267  11.995  0.1935  0.1373 -0.3245
 8080TIP3    H145655   4.474   6.259  11.971  0.3263  1.3579 -0.2362
 8080TIP3    H245656   4.379   6.335  12.062 -0.6112 -0.8607  0.7065
 8081TIP3   OH245657   0.620   4.333  10.920  0.0020  0.3138 -0.3461
 8081TIP3    H145658   0.673   4.327  10.840 -1.0397 -3.8592 -0.9573
 8081TIP3    H245659   0.675   4.292  10.987  0.0404  1.8873  0.6158
 8082TIP3   OH245660   0.810   1.237   0.696  0.2295  0.0476  1.0354
 8082TIP3    H145661   0.880   1.211   0.755  2.0216 -1.0970 -1.4306
 8082TIP3    H245662   0.846   1.309   0.644 -0.3208 -0.6316 -0.3589
 8083TIP3   OH245663   1.952   1.183  12.092  0.2505 -0.1030  0.1235
 8083TIP3    H145664   1.863   1.149  12.101 -0.0533  0.4011 -0.8418
 8083TIP3    H245665   1.946   1.274  12.122  0.3223  0.0910 -0.4501
 8084TIP3   OH245666   3.410   4.985   5.928  0.1286 -0.2835  0.0765
 8084TIP3    H145667   3.471   4.948   5.993  0.4813  0.3735  0.1298
 8084TIP3    H245668   3.455   5.063   5.894  0.1166 -0.8315 -1.2522
 8085TIP3   OH245669   0.881   1.091  15.913 -0.9011  0.3481 -0.2544
 8085TIP3    H145670   0.932   1.010  15.917 -0.5493  0.5152 -1.1398
 8085TIP3    H245671   0.791   1.063  15.933 -0.5806 -0.0459  0.7022
 8086TIP3   OH245672   2.047   3.341   2.182 -0.1790  0.3963 -0.8075
 8086TIP3    H145673   2.108   3.373   2.249  0.2851  1.5043 -1.7151
 8086TIP3    H245674   1.977   3.299   2.231  0.6226  0.3354  0.3294
 8087TIP3   OH245675   5.163   6.219  12.198 -0.4345  0.6181 -1.0754
 8087TIP3    H145676   5.176   6.203  12.291 -2.4363 -0.6609 -0.9496
 8087TIP3    H245677   5.242   6.266  12.170  0.2282  1.0064  1.2330
 8088TIP3   OH245678   0.599   2.006   5.998 -0.1351  1.0745  0.5163
 8088TIP3    H145679   0.555   1.928   6.032 -0.8260  1.5966  0.8383
 8088TIP3    H245680   0.538   2.041   5.933  1.9292 -0.9550 -2.7750
 8089TIP3   OH245681   4.975   5.231   3.274  1.3862 -0.3729 -0.4735
 8089TIP3    H145682   4.951   5.313   3.316 -0.2750 -0.0944 -1.8688
 8089TIP3    H245683   4.892   5.196   3.240  2.2351 -2.0177 -0.9475
 8090TIP3   OH245684   4.774   0.311  11.104 -0.1215  0.0319  0.0522
 8090TIP3    H145685   4.732   0.388  11.140  0.4899  1.4412 -2.0676
 8090TIP3    H245686   4.706   0.270  11.049  0.2952  0.5102 -0.8350
 8091TIP3   OH245687   6.022   4.153   3.134 -0.4526  0.7257  0.5057
 8091TIP3    H145688   6.113   4.147   3.104 -0.7130 -2.4225 -0.0322
 8091TIP3    H245689   6.026   4.127   3.226 -0.8802 -0.2434  0.2579
 8092TIP3   OH245690   1.032   6.375  15.808  0.1735 -0.1400 -0.0792
 8092TIP3    H145691   1.038   6.446  15.745  1.0665  1.6276  1.8762
 8092TIP3    H245692   0.987   6.413  15.884 -0.6041 -2.0786  0.5098
 8093TIP3   OH245693   1.116   2.507   4.060 -0.1354  0.1180 -0.6405
 8093TIP3    H145694   1.149   2.597   4.061 -1.2433  0.5456  0.9705
 8093TIP3    H245695   1.050   2.507   3.991 -0.7454  0.7838 -0.0702
 8094TIP3   OH245696   1.475   1.615  14.036  0.0389  0.4803  0.2978
 8094TIP3    H145697   1.542   1.547  14.026 -0.1433  0.3488 -0.0310
 8094TIP3    H245698   1.440   1.628  13.948 -0.9852 -0.0817  0.6116
 8095TIP3   OH245699   3.026   6.629   1.326 -0.6185 -0.0240  0.1406
 8095TIP3    H145700   3.043   6.668   1.241  0.6919 -1.2975 -0.2229
 8095TIP3    H245701   3.106   6.644   1.376 -0.3391 -1.5737  0.2139
 8096TIP3   OH245702   3.372   4.695   3.050 -0.0211  0.6756  0.5413
 8096TIP3    H145703   3.463   4.676   3.025 -1.3275 -2.2500 -2.8575
 8096TIP3    H245704   3.346   4.767   2.993 -0.8497 -1.1129 -1.4775
 8097TIP3   OH245705   2.773   4.026   2.897 -0.7896 -0.2317 -0.1733
 8097TIP3    H145706   2.864   4.014   2.927 -0.7395  0.9734  0.2058
 8097TIP3    H245707   2.735   4.087   2.960 -1.6222 -0.0936 -0.7965
 8098TIP3   OH245708   2.032   5.922  16.196  0.0849 -0.1582 -0.0714
 8098TIP3    H145709   2.016   5.951  16.106 -0.7748 -0.8790 -0.1681
 8098TIP3    H245710   2.117   5.878  16.192  0.2200  0.1311 -0.4542
 8099TIP3   OH245711   5.159   3.920   6.551  0.2781 -0.5530  0.5862
 8099TIP3    H145712   5.081   3.900   6.499  0.5421 -0.3012  0.0861
 8099TIP3    H245713   5.181   3.838   6.594  0.8635 -1.1258 -0.7786
 8100TIP3   OH245714   4.576   1.335   3.410 -0.0582 -0.4694 -0.6245
 8100TIP3    H145715   4.559   1.395   3.338 -0.2162 -0.3852 -0.5169
 8100TIP3    H245716   4.507   1.353   3.474 -1.4245 -2.2312 -1.5067
 8101TIP3   OH245717   3.506   0.622  15.131 -0.5682  0.1339 -0.2895
 8101TIP3    H145718   3.525   0.715  15.118  0.8343  0.1131  1.2744
 8101TIP3    H245719   3.591   0.583  15.155 -1.3270 -1.3342  0.1382
 8102TIP3   OH245720   3.081   3.425   3.386 -0.4189  0.0988  0.3330
 8102TIP3    H145721   3.023   3.497   3.412  0.2221  0.3456  1.1131
 8102TIP3    H245722   3.119   3.454   3.303  1.6876  1.8179  1.7815
 8103TIP3   OH245723   0.754   4.919   3.620 -0.3185 -0.1718 -0.4088
 8103TIP3    H145724   0.791   4.997   3.663 -0.7255  0.4343 -1.1355
 8103TIP3    H245725   0.728   4.862   3.693 -1.3229  0.9860  0.1779
 8104TIP3   OH245726   4.859   0.637  15.003 -0.5564  0.2276 -0.6147
 8104TIP3    H145727   4.931   0.576  15.019  0.5191  1.6773  0.4107
 8104TIP3    H245728   4.895   0.699  14.940 -1.4756  0.0722 -1.3049
 8105TIP3   OH245729   3.875   1.051  13.932 -0.0088  0.3838  0.1792
 8105TIP3    H145730   3.783   1.064  13.954  0.0757  0.9475  0.2107
 8105TIP3    H245731   3.922   1.072  14.013  0.1555  0.1967  0.1334
 8106TIP3   OH245732   6.718   0.838   5.479 -0.5748  0.2629 -0.6809
 8106TIP3    H145733   6.748   0.914   5.430 -0.4512 -0.2625 -1.4475
 8106TIP3    H245734   6.736   0.764   5.421 -0.0843 -0.4209  0.3088
 8107TIP3   OH245735   2.627   5.663  12.077 -0.6158  0.2837 -0.4747
 8107TIP3    H145736   2.667   5.678  11.991 -0.5750 -0.3133 -0.5587
 8107TIP3    H245737   2.563   5.594  12.062 -1.1995  0.7555 -0.1942
 8108TIP3   OH245738   6.176   3.313   2.308 -0.3739 -0.3575 -0.0004
 8108TIP3    H145739   6.112   3.261   2.355 -0.8131 -0.3153 -0.5507
 8108TIP3    H245740   6.257   3.262   2.313 -0.0060  0.2947  2.0418
 8109TIP3   OH245741   0.384   3.152  16.010  0.5828 -0.9024 -0.3248
 8109TIP3    H145742   0.322   3.215  15.974 -0.0770 -2.1993 -1.5944
 8109TIP3    H245743   0.403   3.184  16.098  0.0372  0.8661 -0.7992
 8110TIP3   OH245744   5.247   5.629  13.206  0.7299  0.0910  0.5698
 8110TIP3    H145745   5.202   5.703  13.165  1.5071 -0.1122 -0.7081
 8110TIP3    H245746   5.213   5.627  13.295 -0.3332  1.1301  0.2169
 8111TIP3   OH245747   3.823   6.575   1.880  0.1359  0.3382 -0.3727
 8111TIP3    H145748   3.871   6.610   1.955  0.9705 -0.0519 -0.7109
 8111TIP3    H245749   3.874   6.601   1.803 -0.4768  0.3677 -0.7762
 8112TIP3   OH245750   1.506   0.473   3.706  0.1146  0.0152 -0.3218
 8112TIP3    H145751   1.543   0.549   3.750  0.5451 -0.6489  0.4968
 8112TIP3    H245752   1.581   0.415   3.692 -0.5153 -1.1431  0.9247
 8113TIP3   OH245753   2.656   4.166  17.130 -0.3477  0.1728 -0.3990
 8113TIP3    H145754   2.736   4.151  17.079 -0.7957 -0.7001 -0.8564
 8113TIP3    H245755   2.675   4.246  17.180  1.4154 -0.8625  0.6994
 8114TIP3   OH245756   5.577   0.285  17.075  0.4264 -0.7017  0.6687
 8114TIP3    H145757   5.648   0.346  17.096  0.4248 -0.5131  0.1547
 8114TIP3    H245758   5.552   0.308  16.985 -1.1532  0.1056  1.2733
 8115TIP3   OH245759   4.479   3.615  13.994  0.3628 -0.7446  0.6038
 8115TIP3    H145760   4.522   3.571  14.068  0.1820 -1.5895  0.2178
 8115TIP3    H245761   4.412   3.553  13.965  0.4445 -0.4300 -0.2817
 8116TIP3   OH245762   6.485   5.620   4.981  0.3661  0.1834  0.0187
 8116TIP3    H145763   6.556   5.603   5.043  0.9781 -1.0796 -0.9672
 8116TIP3    H245764   6.405   5.600   5.030  0.8076 -0.2868  0.5696
 8117TIP3   OH245765   5.391   3.746  13.696  0.0704 -0.2978  0.4853
 8117TIP3    H145766   5.379   3.840  13.680  1.4596 -0.4203 -1.7190
 8117TIP3    H245767   5.344   3.704  13.624  1.0753 -1.2225  0.3531
 8118TIP3   OH245768   4.441   3.923  16.187 -0.7312 -0.5445 -0.3641
 8118TIP3    H145769   4.437   4.008  16.230 -0.9115 -1.2559  1.1140
 8118TIP3    H245770   4.381   3.868  16.238 -0.0135 -1.7670 -0.7855
 8119TIP3   OH245771   4.534   6.779  12.958  0.3498  0.1311 -0.5473
 8119TIP3    H145772   4.542   6.710  12.893 -1.0753 -0.6770  0.1081
 8119TIP3    H245773   4.596   6.754  13.027  0.5064 -0.0023 -0.7363
 8120TIP3   OH245774   5.586   3.829  15.042  0.0668 -0.2181 -0.0078
 8120TIP3    H145775   5.506   3.841  15.093  0.0057  0.0019 -0.1555
 8120TIP3    H245776   5.589   3.905  14.984 -1.5958 -2.0275 -2.6829
 8121TIP3   OH245777   1.811   6.186   1.461  0.0523  0.5757  0.3307
 8121TIP3    H145778   1.849   6.129   1.394 -1.0418  1.5752 -1.1951
 8121TIP3    H245779   1.763   6.126   1.519 -0.5768 -0.1320 -0.8843
 8122TIP3   OH245780   1.802   1.058   5.000 -0.3501 -0.5304 -0.0650
 8122TIP3    H145781   1.781   1.045   4.907 -3.0864 -0.7132  0.4842
 8122TIP3    H245782   1.808   1.153   5.010 -0.2353 -0.5030 -0.3954
 8123TIP3   OH245783   4.958   5.439   1.008  0.7041  0.1469 -0.0349
 8123TIP3    H145784   5.000   5.445   1.093 -0.4883 -1.0804  0.6804
 8123TIP3    H245785   4.869   5.411   1.027  0.1983  0.5595 -1.6445
 8124TIP3   OH245786   3.537   4.069   2.448 -0.2664 -0.4833  0.0887
 8124TIP3    H145787   3.609   4.034   2.502 -0.3832 -0.7334  0.0861
 8124TIP3    H245788   3.535   4.011   2.372 -0.6489 -0.6425  0.2198
 8125TIP3   OH245789   3.790   5.753   5.825 -0.8403 -0.2917  0.6636
 8125TIP3    H145790   3.713   5.762   5.880 -1.1891 -1.1031  0.3255
 8125TIP3    H245791   3.864   5.773   5.882 -1.3765  2.5448  0.4935
 8126TIP3   OH245792   3.566   1.222  14.009 -0.3439  0.2921 -0.5789
 8126TIP3    H145793   3.565   1.318  14.019  0.4491  0.3741 -1.1913
 8126TIP3    H245794   3.527   1.206  13.924  0.8022  0.1812 -1.1096
 8127TIP3   OH245795   2.892   5.315   2.339  0.0889  0.0978 -0.5842
 8127TIP3    H145796   2.872   5.282   2.251 -0.7971 -1.1508  0.0553
 8127TIP3    H245797   2.947   5.247   2.378  1.8770  1.3964 -0.7055
 8128TIP3   OH245798   4.151   3.540  11.652 -0.1971  0.0131  0.2631
 8128TIP3    H145799   4.119   3.486  11.580  0.0337 -2.1364  1.6720
 8128TIP3    H245800   4.080   3.540  11.716 -0.0238  1.0423  0.4686
 8129TIP3   OH245801   4.439   0.265   4.729 -0.1125 -0.5371 -0.7883
 8129TIP3    H145802   4.505   0.333   4.744  0.9101 -1.4863 -0.9228
 8129TIP3    H245803   4.361   0.314   4.700 -0.1332  0.7911  1.2370
 8130TIP3   OH245804   0.981   1.477  12.859 -0.7832  0.0926 -0.1811
 8130TIP3    H145805   1.040   1.411  12.820 -1.5464  0.3597 -1.8688
 8130TIP3    H245806   0.990   1.553  12.803 -1.6522  0.6417  0.4045
 8131TIP3   OH245807   6.295   1.595  11.744 -0.6337 -0.0655 -0.2175
 8131TIP3    H145808   6.346   1.608  11.824 -0.4600  1.8809 -0.5868
 8131TIP3    H245809   6.353   1.545  11.687 -0.4395 -0.7606  0.5747
 8132TIP3   OH245810   4.561   4.750   1.211 -0.3824 -0.1179  0.7249
 8132TIP3    H145811   4.491   4.728   1.150 -0.8554  1.0711  0.8100
 8132TIP3    H245812   4.637   4.769   1.155 -1.3475  2.9997  0.2709
 8133TIP3   OH245813   6.107   5.627  17.007  0.3735 -0.1807 -0.5872
 8133TIP3    H145814   6.028   5.621  16.954 -0.1561  0.3626  0.1137
 8133TIP3    H245815   6.171   5.572  16.962 -0.3472 -0.4843 -1.2587
 8134TIP3   OH245816   1.481   4.356   5.496 -0.6586  0.2542 -0.3635
 8134TIP3    H145817   1.408   4.313   5.540 -0.5665 -0.6815 -1.1067
 8134TIP3    H245818   1.559   4.327   5.544 -0.8323  3.0057  1.8991
 8135TIP3   OH245819   1.497   6.720   1.973  0.0114 -0.8593  0.3809
 8135TIP3    H145820   1.490   6.627   1.994 -1.9331 -0.8096  0.1567
 8135TIP3    H245821   1.509   6.722   1.878 -0.1691 -0.8826  0.3570
 8136TIP3   OH245822   1.132   3.128   1.818 -0.6045  0.0493  0.2171
 8136TIP3    H145823   1.194   3.169   1.879  0.0214  0.9351 -0.9647
 8136TIP3    H245824   1.186   3.076   1.760 -1.3403 -2.0123  1.2838
 8137TIP3   OH245825   1.879   5.310   3.372  0.3127 -0.0467  0.3047
 8137TIP3    H145826   1.858   5.217   3.371 -0.3136  0.0669 -1.5455
 8137TIP3    H245827   1.830   5.346   3.298  2.6692  1.2541 -0.7219
 8138TIP3   OH245828   6.429   3.354   3.471  0.2611  0.2693 -0.3200
 8138TIP3    H145829   6.398   3.275   3.427  0.4488 -1.0320  1.7331
 8138TIP3    H245830   6.370   3.363   3.546  1.0144  1.3879  0.1552
 8139TIP3   OH245831   1.247   5.463  16.626  0.2545  0.2230  0.0555
 8139TIP3    H145832   1.297   5.542  16.604 -1.8426  1.4640 -0.5634
 8139TIP3    H245833   1.232   5.421  16.541  1.7152 -1.1496  0.4188
 8140TIP3   OH245834   3.541   0.011   5.156 -0.1057  0.2609 -0.0883
 8140TIP3    H145835   3.475   0.041   5.093 -1.5917 -1.0434  0.7894
 8140TIP3    H245836   3.571  -0.072   5.121 -2.2160 -1.3646  1.6853
 8141TIP3   OH245837   0.599   4.246  15.893  0.0132  0.3163 -0.3006
 8141TIP3    H145838   0.672   4.283  15.943 -0.4567  0.4149  0.3200
 8141TIP3    H245839   0.528   4.238  15.956  0.1967 -1.9896 -0.3076
 8142TIP3   OH245840   0.731   0.706   3.584 -0.6066  0.1829 -0.3608
 8142TIP3    H145841   0.738   0.666   3.497  2.5218  2.0725 -1.1459
 8142TIP3    H245842   0.699   0.794   3.567 -0.7362  0.3023  0.4970
 8143TIP3   OH245843   3.160   2.113   5.939 -0.2472 -0.4707 -0.0346
 8143TIP3    H145844   3.146   2.175   5.867  0.9773 -0.2993 -0.1610
 8143TIP3    H245845   3.245   2.139   5.976 -0.8039 -0.6167  1.4172
 8144TIP3   OH245846   0.748   2.056   0.133 -0.1464 -0.3011 -0.2738
 8144TIP3    H145847   0.723   2.148   0.134  0.7511 -0.0507  0.5386
 8144TIP3    H245848   0.781   2.040   0.045 -1.6605 -0.2379 -0.8689
 8145TIP3   OH245849   6.721   4.923   0.766 -0.1728 -0.1435 -0.3452
 8145TIP3    H145850   6.768   4.967   0.837 -1.7436  2.3623 -0.7428
 8145TIP3    H245851   6.663   4.990   0.730 -1.5888 -2.1607 -2.0761
 8146TIP3   OH245852   2.665   0.522   2.095  0.3310  0.4826 -0.0333
 8146TIP3    H145853   2.645   0.429   2.102  2.1616 -0.1361 -1.9177
 8146TIP3    H245854   2.596   0.558   2.040 -0.9420  0.5007  1.5122
 8147TIP3   OH245855   6.730   3.251   4.562  0.6787 -0.1300  0.1239
 8147TIP3    H145856   6.637   3.238   4.543  0.7560 -0.8998  0.2519
 8147TIP3    H245857   6.766   3.289   4.482  0.2240  0.3367  0.1345
 8148TIP3   OH245858   2.303   3.056  15.706  0.2587 -0.1047 -0.2006
 8148TIP3    H145859   2.228   3.064  15.766  0.0527 -0.1831 -0.4482
 8148TIP3    H245860   2.312   3.143  15.667  0.0087 -0.2190 -0.5146
 8149TIP3   OH245861   1.787   5.808   1.077  0.3905  0.9114 -0.4150
 8149TIP3    H145862   1.767   5.733   1.133 -0.3969  2.1345  1.0161
 8149TIP3    H245863   1.875   5.790   1.044  0.8908  0.1353  1.2450
 8150TIP3   OH245864   4.686   1.225   5.053 -0.2896  0.2268 -0.2431
 8150TIP3    H145865   4.733   1.185   4.980 -1.3393  2.0105 -2.0325
 8150TIP3    H245866   4.751   1.278   5.098 -0.0844  1.0214 -1.4153
 8151TIP3   OH245867   1.669   2.667   4.942  0.0921 -0.5126 -0.1378
 8151TIP3    H145868   1.594   2.646   4.998 -1.2589  0.4860 -1.5133
 8151TIP3    H245869   1.665   2.602   4.872  1.3557 -1.3082  0.4853
 8152TIP3   OH245870   2.785   3.407   5.259  0.4529  0.4089  0.2286
 8152TIP3    H145871   2.841   3.471   5.217 -0.2854  0.2225 -1.0850
 8152TIP3    H245872   2.821   3.322   5.231 -1.1044  0.2804 -1.5804
 8153TIP3   OH245873   0.760   3.853   4.016 -0.0782 -0.4555  0.2305
 8153TIP3    H145874   0.812   3.816   3.944  0.1067  0.0319  0.1091
 8153TIP3    H245875   0.826   3.885   4.078 -0.0477  3.2206 -1.4078
 8154TIP3   OH245876   1.566   3.954   3.296 -0.1382  0.2741 -0.3064
 8154TIP3    H145877   1.578   3.876   3.349  1.6644  1.2922  0.8733
 8154TIP3    H245878   1.492   3.933   3.238 -1.3464 -1.3366  1.7086
 8155TIP3   OH245879   3.844   2.967   6.204  0.7478  0.0022 -0.2620
 8155TIP3    H145880   3.870   2.938   6.291  2.0076 -1.0087 -0.9436
 8155TIP3    H245881   3.752   2.940   6.196  0.3561  0.8641  1.0389
 8156TIP3   OH245882   2.360   3.097   3.229 -0.3839  0.3047 -0.4038
 8156TIP3    H145883   2.433   3.129   3.282 -1.5512  2.2206  0.1565
 8156TIP3    H245884   2.385   3.008   3.205  2.0452  0.8330 -0.1153
 8157TIP3   OH245885   5.583   2.021  16.250 -0.2536 -0.0881  0.1525
 8157TIP3    H145886   5.557   1.974  16.330 -0.0182  1.3219  1.0875
 8157TIP3    H245887   5.544   1.970  16.179  0.0741 -1.7462  1.1093
 8158TIP3   OH245888   0.505   2.163  11.344 -0.6320  0.0890 -0.1716
 8158TIP3    H145889   0.413   2.175  11.369 -0.5712 -0.3528  0.2755
 8158TIP3    H245890   0.555   2.187  11.423 -0.4265 -1.0319  0.0501
 8159TIP3   OH245891   2.274   0.553  14.981  0.3260 -0.1940  0.4408
 8159TIP3    H145892   2.314   0.577  15.065  0.5372  1.5618 -0.1105
 8159TIP3    H245893   2.339   0.576  14.916 -0.8313  0.9702 -0.3536
 8160TIP3   OH245894   4.838   3.890  13.478  0.1547 -0.0119  0.0073
 8160TIP3    H145895   4.775   3.933  13.420  1.5320 -1.5441 -2.8257
 8160TIP3    H245896   4.909   3.953  13.488  0.4248 -0.1526 -0.9539
 8161TIP3   OH245897   2.170   6.359  15.063 -0.3068  0.2419  0.3957
 8161TIP3    H145898   2.261   6.330  15.061 -0.0001  1.1000 -2.6377
 8161TIP3    H245899   2.128   6.309  14.994 -1.8175  0.9053  0.8001
 8162TIP3   OH245900   4.681   5.366   3.622  0.5630  0.2310  0.4792
 8162TIP3    H145901   4.648   5.429   3.686 -0.1061 -0.2413  0.6190
 8162TIP3    H245902   4.745   5.314   3.670  0.9307  0.6327  0.4321
 8163TIP3   OH245903   3.576   2.788   2.117 -0.3155 -0.3399  0.1211
 8163TIP3    H145904   3.566   2.746   2.032  1.6541  0.5813 -0.6402
 8163TIP3    H245905   3.579   2.715   2.180  0.5742 -1.2063 -0.8860
 8164TIP3   OH245906   1.666   2.471   4.773  0.0818  0.1437 -0.3052
 8164TIP3    H145907   1.710   2.429   4.699 -0.6868  0.1088 -0.7529
 8164TIP3    H245908   1.657   2.401   4.838  0.2677  0.0296 -0.4022
 8165TIP3   OH245909   4.498   0.228   0.671 -1.0929  0.3300 -0.6330
 8165TIP3    H145910   4.540   0.145   0.648 -1.0530  0.8144 -2.5323
 8165TIP3    H245911   4.424   0.203   0.726  0.0124 -0.7795  0.4280
 8166TIP3   OH245912   5.167   5.905   3.054  0.0362  0.1705 -0.0820
 8166TIP3    H145913   5.194   5.912   3.145 -0.5535  1.4609  0.0114
 8166TIP3    H245914   5.105   5.832   3.052  2.9030 -2.4598 -0.1928
 8167TIP3   OH245915   0.327   0.446   4.984 -0.7215 -0.3541 -0.0346
 8167TIP3    H145916   0.292   0.484   5.065 -0.5030  2.6512 -1.2464
 8167TIP3    H245917   0.258   0.459   4.920 -0.3623 -1.4891 -0.6780
 8168TIP3   OH245918   6.606   1.479   0.620 -0.1052 -0.1571  0.2306
 8168TIP3    H145919   6.599   1.553   0.559  1.9328 -0.8858 -1.0014
 8168TIP3    H245920   6.694   1.486   0.656  0.2184 -2.0495 -0.0811
 8169TIP3   OH245921   1.909   2.181  16.725  0.0966  0.1571 -0.3409
 8169TIP3    H145922   1.871   2.099  16.694  1.9322 -1.1419  0.6241
 8169TIP3    H245923   1.929   2.165  16.817  2.4612  0.8672 -0.6578
 8170TIP3   OH245924   6.086   5.806  15.826 -0.2092  0.1520 -0.4523
 8170TIP3    H145925   6.042   5.765  15.751 -0.9796  1.2431 -0.6164
 8170TIP3    H245926   6.145   5.870  15.788 -1.4233  1.5121 -0.1217
 8171TIP3   OH245927   2.315   6.735  12.636 -0.4361  0.3583 -0.6018
 8171TIP3    H145928   2.250   6.680  12.593 -0.3232 -0.3458  0.1156
 8171TIP3    H245929   2.393   6.729  12.581 -0.4769 -0.0552 -0.6115
 8172TIP3   OH245930   6.499   5.368   1.833  0.0355 -0.2275  0.4837
 8172TIP3    H145931   6.417   5.349   1.879  0.3764 -1.6246  0.5659
 8172TIP3    H245932   6.498   5.463   1.821 -1.7214 -0.2376  0.2356
 8173TIP3   OH245933   6.432   5.767   3.429 -0.4209  0.1899 -0.0781
 8173TIP3    H145934   6.460   5.854   3.399  0.0385 -0.1865 -0.7736
 8173TIP3    H245935   6.505   5.737   3.484 -0.2925 -0.0125 -0.3560
 8174TIP3   OH245936   5.101   1.185   2.226 -0.1576 -0.5504 -0.1395
 8174TIP3    H145937   5.100   1.200   2.320  0.4538  0.4676 -0.2837
 8174TIP3    H245938   5.012   1.156   2.206 -0.5636  0.1475  0.6042
 8175TIP3   OH245939   5.614   3.543   3.938 -0.0667 -0.3847 -0.0791
 8175TIP3    H145940   5.550   3.613   3.955 -0.4964 -1.1113  1.4728
 8175TIP3    H245941   5.570   3.464   3.969  1.3350 -0.9874  0.4260
 8176TIP3   OH245942   1.623   0.896  12.275  0.5747  0.7729  0.1796
 8176TIP3    H145943   1.614   0.926  12.184  0.3822  0.7932  0.2063
 8176TIP3    H245944   1.563   0.950  12.325  1.0872  1.1417  0.4088
 8177TIP3   OH245945   3.542   1.908  12.354  0.3322 -0.2506 -0.3249
 8177TIP3    H145946   3.577   1.983  12.402  0.2192 -0.5086  0.1576
 8177TIP3    H245947   3.547   1.835  12.415  0.3079 -0.6109 -0.7454
 8178TIP3   OH245948   4.591   1.998  13.949 -0.8942 -0.2821  0.4353
 8178TIP3    H145949   4.528   2.014  14.019 -1.4436  0.1957 -0.1580
 8178TIP3    H245950   4.669   1.966  13.994 -1.3411 -0.2685  1.2370
 8179TIP3   OH245951   1.725   1.180  14.572  0.2776 -0.0083  0.3199
 8179TIP3    H145952   1.635   1.186  14.539  0.0423  0.5121  1.0356
 8179TIP3    H245953   1.771   1.253  14.530  0.0464  0.4851  0.9019
 8180TIP3   OH245954   2.220   1.835   5.903 -0.0769  0.0516 -0.5769
 8180TIP3    H145955   2.163   1.844   5.979  0.7519 -1.6661  0.3098
 8180TIP3    H245956   2.249   1.924   5.885 -1.2094  0.6520  0.3780
 8181TIP3   OH245957   6.353   4.312   5.994 -0.7010 -0.5431 -0.1326
 8181TIP3    H145958   6.436   4.354   5.974 -1.1733 -0.3333 -1.8536
 8181TIP3    H245959   6.319   4.359   6.070  0.4034 -0.1610  0.1318
 8182TIP3   OH245960   1.168   4.769   1.624 -0.4306 -0.0690  0.1619
 8182TIP3    H145961   1.072   4.762   1.626 -0.4544 -0.1098 -0.5636
 8182TIP3    H245962   1.186   4.813   1.540  0.1536  0.5293  0.5926
 8183TIP3   OH245963   4.069   3.004   3.824  0.3153 -0.0654 -0.1178
 8183TIP3    H145964   4.067   3.084   3.876  0.5837 -0.2373  0.1626
 8183TIP3    H245965   4.099   2.936   3.885 -2.2569 -0.9125  0.3319
 8184TIP3   OH245966   5.369   4.633  12.563  0.0840 -0.3435  0.4703
 8184TIP3    H145967   5.460   4.647  12.587  0.8115 -0.4287 -1.9005
 8184TIP3    H245968   5.354   4.540  12.579  0.5578 -0.4181  0.4938
 8185TIP3   OH245969   5.880   6.747  15.819 -0.1792  0.2716 -0.1113
 8185TIP3    H145970   5.943   6.677  15.806  0.5151  1.1538 -1.8908
 8185TIP3    H245971   5.916   6.799  15.892 -0.1664 -0.6053  0.5191
 8186TIP3   OH245972   4.691   5.310   0.610 -0.4539  0.2268 -0.1544
 8186TIP3    H145973   4.737   5.262   0.678 -0.8958  0.7994  0.5585
 8186TIP3    H245974   4.755   5.373   0.577 -0.5154  0.5638  0.3646
 8187TIP3   OH245975   1.791   2.793   1.626  0.0892 -0.1526  0.5255
 8187TIP3    H145976   1.766   2.741   1.703 -0.3479 -0.3798  0.2319
 8187TIP3    H245977   1.832   2.872   1.663 -0.7070  0.0465  1.0146
 8188TIP3   OH245978   0.556   1.496   5.040 -0.5370 -0.1273 -0.1157
 8188TIP3    H145979   0.620   1.467   5.105 -0.2596 -0.6825 -0.6276
 8188TIP3    H245980   0.605   1.500   4.958 -0.7612  1.0493 -0.2120
 8189TIP3   OH245981   6.726   5.706   4.020 -0.2860  0.5329  0.5315
 8189TIP3    H145982   6.780   5.755   4.082  0.2301  0.6999 -0.0399
 8189TIP3    H245983   6.702   5.770   3.953 -1.9056  0.6781  1.1983
 8190TIP3   OH245984   0.961   6.719   6.474  0.0803 -0.1343 -0.0631
 8190TIP3    H145985   1.016   6.645   6.502  0.8115 -0.1526 -1.4756
 8190TIP3    H245986   0.872   6.686   6.482  0.4032 -1.3653 -1.1492
 8191TIP3   OH245987   5.104   0.939   5.553  0.2831 -0.0558  0.2302
 8191TIP3    H145988   5.051   0.873   5.598 -1.0565  1.2186  0.6459
 8191TIP3    H245989   5.048   0.970   5.482  0.7479  0.8503  0.2449
 8192TIP3   OH245990   6.051   4.477   5.350  0.2195  0.3347 -0.7424
 8192TIP3    H145991   6.040   4.439   5.437  2.9198 -0.8909 -0.8627
 8192TIP3    H245992   5.981   4.543   5.344  0.3313  0.9015  2.5757
 8193TIP3   OH245993   1.328   1.561   4.730 -0.2737 -0.2056  0.3267
 8193TIP3    H145994   1.265   1.590   4.795 -0.8119  0.7086 -0.5589
 8193TIP3    H245995   1.276   1.548   4.651  0.7348  1.5168 -0.6965
 8194TIP3   OH245996   5.158   0.554   5.542 -0.1425 -0.1366 -0.0762
 8194TIP3    H145997   5.124   0.595   5.621 -1.0295 -0.1917 -0.4157
 8194TIP3    H245998   5.122   0.465   5.543  0.6001 -0.4459 -0.0726
 8195TIP3   OH245999   3.739   6.191   1.368 -0.5081  0.2709  0.1642
 8195TIP3    H146000   3.739   6.234   1.282 -1.5000 -0.4104 -0.1904
 8195TIP3    H246001   3.649   6.198   1.398 -0.1833  0.4452  1.1383
 8196TIP3   OH246002   5.952   2.359  12.891  0.6712  0.1309 -0.4990
 8196TIP3    H146003   5.858   2.377  12.896  0.7300  0.3885 -0.2784
 8196TIP3    H246004   5.960   2.290  12.826  0.0788 -1.6089  1.1702
 8197TIP3   OH246005   5.082   4.022   5.513 -0.6022  0.0694  0.6207
 8197TIP3    H146006   5.087   3.958   5.441  1.1087 -0.1595  0.8936
 8197TIP3    H246007   4.992   4.017   5.544 -1.2744 -0.1208 -1.2383
 8198TIP3   OH246008   4.069   1.996   5.561 -0.2005 -0.1664 -0.0869
 8198TIP3    H146009   4.054   1.959   5.474 -0.2327  2.1564 -1.1376
 8198TIP3    H246010   4.162   2.017   5.563 -0.0069 -1.0370  0.8206
 8199TIP3   OH246011   6.068   2.787  11.565  0.6262 -0.0768  0.1405
 8199TIP3    H146012   5.991   2.843  11.569  0.2645 -0.6186  1.4028
 8199TIP3    H246013   6.142   2.847  11.575  0.3369  0.3598 -0.3128
 8200TIP3   OH246014   2.771   1.100  14.997 -0.2423 -0.2635  0.5173
 8200TIP3    H146015   2.680   1.076  14.980  0.0064 -0.7173 -0.2041
 8200TIP3    H246016   2.787   1.176  14.941 -0.6922  0.9629  1.9665
 8201TIP3   OH246017   1.174   0.971   6.092 -0.3416 -0.7301  0.5690
 8201TIP3    H146018   1.171   1.060   6.128 -0.9756  0.9260 -3.1019
 8201TIP3    H246019   1.267   0.952   6.083 -0.1936  0.2614 -0.1095
 8202TIP3   OH246020   0.990   0.623   0.651 -0.1581  0.6102  0.5764
 8202TIP3    H146021   0.935   0.630   0.573  1.3213  0.3198 -0.5455
 8202TIP3    H246022   0.941   0.668   0.719 -0.9938  1.8758 -0.7953
 8203TIP3   OH246023   3.107   3.698   6.464 -0.1331 -0.3632  0.1885
 8203TIP3    H146024   3.157   3.778   6.480  1.4522 -1.3862  0.5303
 8203TIP3    H246025   3.154   3.654   6.393 -2.1878 -0.0334 -1.4938
 8204TIP3   OH246026   6.740   6.227   5.935  0.3157  0.0901 -0.2099
 8204TIP3    H146027   6.761   6.320   5.937 -0.4079  0.2515 -0.0961
 8204TIP3    H246028   6.773   6.193   6.018 -0.0663  0.3881  0.0658
 8205TIP3   OH246029   1.749   3.421   0.262  0.0021  0.3110  0.5165
 8205TIP3    H146030   1.780   3.481   0.195 -0.6906 -1.8200 -1.8662
 8205TIP3    H246031   1.818   3.355   0.269  1.0199  1.5052  3.5015
 8206TIP3   OH246032   1.823   5.220   4.815  0.3872  0.7859 -0.1079
 8206TIP3    H146033   1.821   5.263   4.729  1.4360  0.2078 -0.4399
 8206TIP3    H246034   1.737   5.239   4.853  0.3457  2.0656 -0.7752
 8207TIP3   OH246035   2.357   3.891  12.519  0.3710 -0.5417  0.2177
 8207TIP3    H146036   2.285   3.953  12.527 -0.2286 -0.9613 -1.3969
 8207TIP3    H246037   2.314   3.805  12.516  0.9958 -0.8576  0.1435
 8208TIP3   OH246038   6.266   5.869  11.176  0.1854  0.2296  0.3578
 8208TIP3    H146039   6.237   5.932  11.110 -1.2155  0.6860  1.3477
 8208TIP3    H246040   6.361   5.880  11.181  0.1367  1.1789 -0.5627
 8209TIP3   OH246041   1.635   2.038  14.635 -0.1348  0.4252  0.1409
 8209TIP3    H146042   1.725   2.007  14.625 -0.7699 -1.1129 -1.2637
 8209TIP3    H246043   1.603   2.049  14.545 -0.8552  2.5185  0.6113
 8210TIP3   OH246044   3.412   0.810  13.658  0.1193 -0.4455 -0.6478
 8210TIP3    H146045   3.409   0.851  13.572 -1.3151  0.4159 -0.2351
 8210TIP3    H246046   3.504   0.813  13.684  0.4526 -0.0714 -1.8402
 8211TIP3   OH246047   5.807   1.360   1.639 -0.7145  0.3722 -0.9474
 8211TIP3    H146048   5.752   1.311   1.579 -2.4161  2.6561 -1.3454
 8211TIP3    H246049   5.864   1.412   1.583  0.0543  0.0080 -0.5283
 8212TIP3   OH246050   2.107   1.598   6.223 -0.0979 -0.6042 -0.1815
 8212TIP3    H146051   2.182   1.631   6.272  0.6711 -1.3340 -0.8256
 8212TIP3    H246052   2.073   1.675   6.178  1.0335 -0.4619 -0.8470
 8213TIP3   OH246053   2.355   1.056   2.027 -0.5815  0.2013  0.1493
 8213TIP3    H146054   2.346   1.086   1.936  0.0592 -0.0515 -0.0082
 8213TIP3    H246055   2.323   1.129   2.080 -2.5151 -0.2790 -0.2984
 8214TIP3   OH246056   4.806   3.572   3.489 -0.0375 -0.8189  0.1429
 8214TIP3    H146057   4.868   3.600   3.421  0.7765 -1.1944  0.7124
 8214TIP3    H246058   4.836   3.485   3.513  0.4768 -0.2106  1.8641
 8215TIP3   OH246059   2.352   2.046  15.409 -0.6253 -0.0304 -0.7951
 8215TIP3    H146060   2.266   2.004  15.409 -0.2141 -0.9022 -0.5230
 8215TIP3    H246061   2.414   1.973  15.400  0.2025  0.2766  1.6795
 8216TIP3   OH246062   6.016   4.451   3.189 -0.1559  0.1540 -0.0015
 8216TIP3    H146063   5.973   4.512   3.130  1.2747  0.4377 -0.8115
 8216TIP3    H246064   6.065   4.392   3.131  1.8389  0.8497  0.8665
 8217TIP3   OH246065   2.033   5.289   6.006  0.3230 -0.1124  0.2669
 8217TIP3    H146066   1.998   5.285   5.918  3.0654 -2.4515 -0.8721
 8217TIP3    H246067   2.008   5.206   6.046  2.0224 -0.5891  0.4080
 8218TIP3   OH246068   3.075   4.215  13.678  0.0817 -0.1715  0.2322
 8218TIP3    H146069   3.169   4.231  13.691  0.2199 -0.9106  0.1667
 8218TIP3    H246070   3.043   4.188  13.764  0.1399 -0.9277  0.0217
 8219TIP3   OH246071   4.577   3.648   0.935 -0.0495 -0.0263 -0.5425
 8219TIP3    H146072   4.658   3.685   0.971 -0.9363  2.1146 -0.6034
 8219TIP3    H246073   4.601   3.559   0.909  1.9112  0.0733  0.6990
 8220TIP3   OH246074   3.871   5.938   2.073 -0.0353  0.4315  0.0464
 8220TIP3    H146075   3.850   5.992   1.997  0.1139 -0.5202 -0.6941
 8220TIP3    H246076   3.910   5.999   2.136  0.8717  1.0588 -1.0772
 8221TIP3   OH246077   6.336   5.861   2.149  0.2391  0.1311  0.7280
 8221TIP3    H146078   6.410   5.808   2.180 -0.6961 -0.6380  1.7601
 8221TIP3    H246079   6.312   5.914   2.225  0.4898  1.2840  0.0199
 8222TIP3   OH246080   3.804   4.738  12.441  0.1519 -0.1818 -0.3720
 8222TIP3    H146081   3.878   4.796  12.428 -0.6533  0.8899 -0.2758
 8222TIP3    H246082   3.738   4.792  12.485 -0.7023 -1.0911 -0.4953
 8223TIP3   OH246083   5.089   5.527  10.738 -0.6131  0.2064  0.2423
 8223TIP3    H146084   5.110   5.514  10.830  1.6676 -0.6860 -0.3271
 8223TIP3    H246085   5.143   5.601  10.710 -1.3072  0.4961 -0.3763
 8224TIP3   OH246086   2.222   2.704   0.744 -0.5329  0.4657  0.0268
 8224TIP3    H146087   2.309   2.672   0.719 -1.8843 -2.1107 -1.8146
 8224TIP3    H246088   2.208   2.668   0.831 -0.7136 -1.4025 -0.7171
 8225TIP3   OH246089   3.532   2.102  14.745  0.1667 -0.5265  0.4273
 8225TIP3    H146090   3.485   2.185  14.756  0.8143  0.0741 -1.0123
 8225TIP3    H246091   3.469   2.035  14.772 -2.2009  0.1225 -2.8073
 8226TIP3   OH246092   1.588   4.354  15.679 -0.4410  0.8052 -0.2543
 8226TIP3    H146093   1.522   4.288  15.699 -0.0573  0.3928 -0.3314
 8226TIP3    H246094   1.654   4.307  15.626  0.9876  0.6379  1.5597
 8227TIP3   OH246095   0.680   5.951  11.900 -0.2721  0.1055  0.0027
 8227TIP3    H146096   0.730   5.897  11.961  0.1682  2.5223  1.9341
 8227TIP3    H246097   0.713   5.927  11.814  1.4539 -1.0930  0.9520
 8228TIP3   OH246098   5.388   5.989  10.873  0.7064 -0.2355  0.1970
 8228TIP3    H146099   5.359   6.071  10.914 -1.1313 -0.4241 -0.6128
 8228TIP3    H246100   5.320   5.970  10.807  2.7765 -0.6786 -1.9502
 8229TIP3   OH246101   2.837   4.684  11.948  0.8354  0.1936 -0.0590
 8229TIP3    H146102   2.776   4.647  12.012 -0.5424  0.4111 -1.1909
 8229TIP3    H246103   2.897   4.612  11.928  0.9769 -0.0302  1.0742
 8230TIP3   OH246104   4.038   1.552  12.826 -0.4297  0.2237  0.2423
 8230TIP3    H146105   3.998   1.516  12.747 -0.8474  0.0560  0.5261
 8230TIP3    H246106   4.033   1.647  12.814 -2.3312  0.2352  0.9642
 8231TIP3   OH246107   6.637   1.182  17.166  0.2240  0.1938 -0.1270
 8231TIP3    H146108   6.648   1.087  17.174  2.4794  0.1295 -2.5367
 8231TIP3    H246109   6.566   1.192  17.103  0.7529  0.0602 -0.7517
 8232TIP3   OH246110   1.986   2.257  12.713  0.1411 -0.1404 -0.2700
 8232TIP3    H146111   2.008   2.184  12.771  1.1691  1.2455  1.1700
 8232TIP3    H246112   1.936   2.317  12.768  0.6565  0.9465 -0.9564
 8233TIP3   OH246113   3.414   6.538  16.096 -0.1852  0.3328 -0.1266
 8233TIP3    H146114   3.388   6.615  16.147  0.7942  2.2095 -2.2905
 8233TIP3    H246115   3.473   6.572  16.029  2.1015 -2.6550  0.1455
 8234TIP3   OH246116   1.451   4.850  16.735 -0.5850  0.2496 -0.0624
 8234TIP3    H146117   1.543   4.823  16.736 -1.0053 -1.2855  0.4145
 8234TIP3    H246118   1.409   4.792  16.798 -2.0331  0.3083 -0.9361
 8235TIP3   OH246119   3.108   5.039   0.508 -0.3034 -0.5532 -0.1313
 8235TIP3    H146120   3.152   5.076   0.432 -0.3143 -0.5086 -0.1158
 8235TIP3    H246121   3.016   5.036   0.483 -0.3263 -0.4006 -0.0630
 8236TIP3   OH246122   6.667   3.649  12.617 -0.0262  0.2479  0.0346
 8236TIP3    H146123   6.613   3.719  12.581 -2.3337 -1.4249 -0.0282
 8236TIP3    H246124   6.664   3.580  12.550  1.0041 -0.4394  0.6720
 8237TIP3   OH246125   1.080   1.843   2.266  0.1663  0.1195 -0.2321
 8237TIP3    H146126   0.988   1.864   2.280  0.3708  2.2794 -1.6200
 8237TIP3    H246127   1.128   1.918   2.301  1.5961 -1.6619  1.9789
 8238TIP3   OH246128   4.303   0.437  13.655  0.4155  0.5772 -0.0771
 8238TIP3    H146129   4.324   0.344  13.651 -0.6914  0.2327  1.4093
 8238TIP3    H246130   4.361   0.477  13.589 -0.4937 -1.3905 -2.2394
 8239TIP3   OH246131   4.778   5.960   1.508  0.1208  0.1144  0.0162
 8239TIP3    H146132   4.722   5.949   1.432  0.7310 -0.9364 -0.2902
 8239TIP3    H246133   4.744   6.039   1.551 -1.6356 -0.5189 -0.1172
 8240TIP3   OH246134   4.469   2.559  11.165 -0.3789 -0.2444  0.4983
 8240TIP3    H146135   4.433   2.492  11.106  2.5007 -1.1591 -0.3781
 8240TIP3    H246136   4.489   2.512  11.246  1.5865 -0.4976 -0.0944
 8241TIP3   OH246137   2.730   0.212  10.036 -0.0329 -0.3668  0.1718
 8241TIP3    H146138   2.752   0.301  10.009  0.2282 -0.0984  1.2003
 8241TIP3    H246139   2.798   0.189  10.100 -2.6959  0.5753  3.6744
 8242TIP3   OH246140   0.014   5.536  12.372 -0.5380 -0.3508  0.2286
 8242TIP3    H146141   0.013   5.489  12.289  1.3532  0.1338 -0.1144
 8242TIP3    H246142  -0.017   5.623  12.351 -2.4179 -0.9051  0.5419
 8243TIP3   OH246143   2.907   2.848   5.378  0.0774 -0.1497 -0.2481
 8243TIP3    H146144   2.840   2.785   5.403 -0.6674  1.2561  1.5393
 8243TIP3    H246145   2.986   2.796   5.367 -0.6381 -1.4669  0.6280
 8244TIP3   OH246146   4.130   0.499   3.531 -0.8057 -0.1779  0.2387
 8244TIP3    H146147   4.102   0.458   3.613 -0.0510  0.7090  0.9565
 8244TIP3    H246148   4.215   0.538   3.551 -0.8185  0.4502 -0.8463
 8245TIP3   OH246149   2.942   2.995  16.703  0.5061  0.1891  0.1676
 8245TIP3    H146150   3.037   3.005  16.702  0.3691  1.6494  0.4037
 8245TIP3    H246151   2.915   3.026  16.789 -0.1844 -0.3598  0.1614
 8246TIP3   OH246152   2.965   3.071   0.014 -0.1850 -0.0180  0.0804
 8246TIP3    H146153   3.059   3.065  -0.000  0.0405  2.9055 -0.1736
 8246TIP3    H246154   2.928   3.088  -0.072 -0.5874  1.5566  0.5207
 8247TIP3   OH246155   5.395   1.203   4.013 -0.5868 -0.0611  0.2080
 8247TIP3    H146156   5.462   1.184   3.946  0.0954 -1.4180  1.2191
 8247TIP3    H246157   5.444   1.237   4.087 -1.0031 -0.9895  0.9328
 8248TIP3   OH246158   1.122   3.273  14.225  0.1638 -0.0857  0.2058
 8248TIP3    H146159   1.084   3.355  14.257  0.3279  1.0546 -2.2320
 8248TIP3    H246160   1.046   3.215  14.213 -0.4302  0.8801 -1.0795
 8249TIP3   OH246161   1.184   6.203   1.510 -0.0053 -0.1720  0.1366
 8249TIP3    H146162   1.200   6.296   1.494 -2.3272  0.2343 -0.1721
 8249TIP3    H246163   1.120   6.201   1.581  0.0258 -1.5393  0.1569
 8250TIP3   OH246164   5.889   5.681   0.132 -0.1891 -0.2991  0.0024
 8250TIP3    H146165   5.829   5.630   0.078  0.6380  0.4065 -1.6408
 8250TIP3    H246166   5.834   5.721   0.199 -1.3478 -0.6518 -0.7171
 8251TIP3   OH246167   6.273   6.589  16.232  0.2500 -0.2058 -0.0438
 8251TIP3    H146168   6.351   6.536  16.245 -0.1651 -1.6357 -2.7006
 8251TIP3    H246169   6.303   6.663  16.179  0.0592  0.0736  0.2331
 8252TIP3   OH246170   5.783   4.683   2.318 -0.3010  0.1824 -0.2949
 8252TIP3    H146171   5.841   4.618   2.358 -1.8110 -1.0918 -0.0791
 8252TIP3    H246172   5.841   4.735   2.262  0.8930 -1.6688 -0.8864
 8253TIP3   OH246173   5.078   3.881  14.327 -0.6932  0.7993 -0.6822
 8253TIP3    H146174   4.983   3.880  14.337 -1.0009  3.8112 -2.0885
 8253TIP3    H246175   5.093   3.932  14.247  2.1160 -0.4431 -1.0733
 8254TIP3   OH246176   3.950   2.485  13.035  0.0403  0.1986 -0.3213
 8254TIP3    H146177   4.033   2.449  13.064 -0.0394  0.5553  0.3742
 8254TIP3    H246178   3.885   2.419  13.059  0.0760  0.0991 -0.4978
 8255TIP3   OH246179   1.663   5.349   2.391 -0.3299 -0.1191  0.5528
 8255TIP3    H146180   1.630   5.436   2.368 -2.3961 -0.9326  0.2527
 8255TIP3    H246181   1.758   5.360   2.395 -0.4771  1.9407 -0.3272
 8256TIP3   OH246182   5.187   4.708   4.580 -0.2409  0.3431  0.0495
 8256TIP3    H146183   5.140   4.715   4.496 -1.8622 -0.8476  0.7989
 8256TIP3    H246184   5.151   4.779   4.633 -0.4990  0.0221  0.3055
 8257TIP3   OH246185   4.035   1.358  14.889 -0.6959  0.1509 -0.6473
 8257TIP3    H146186   3.953   1.312  14.908 -0.6289  0.1668 -0.3092
 8257TIP3    H246187   4.019   1.402  14.806 -0.8155 -0.3552 -0.8982
 8258TIP3   OH246188   0.663   5.091  11.916  0.3484 -0.2634 -0.7280
 8258TIP3    H146189   0.591   5.133  11.963 -0.5390  0.0786 -2.3089
 8258TIP3    H246190   0.716   5.164  11.884  0.9671 -0.4909 -0.2402
 8259TIP3   OH246191   4.460   1.367  11.862 -0.0200  0.1688 -0.2402
 8259TIP3    H146192   4.472   1.377  11.768 -0.2527 -1.4060 -0.4658
 8259TIP3    H246193   4.470   1.273  11.878  1.7004  0.5957  1.5595
 8260TIP3   OH246194   3.552   2.187  10.768 -0.1659  0.3019  0.2128
 8260TIP3    H146195   3.465   2.148  10.758 -0.7188  1.5367  0.0013
 8260TIP3    H246196   3.541   2.251  10.838  0.8362 -0.2171  0.8760
 8261TIP3   OH246197   2.339   6.644  14.724  0.2441 -0.3201 -0.2426
 8261TIP3    H146198   2.426   6.631  14.687  0.5116  0.1107  0.2126
 8261TIP3    H246199   2.346   6.727  14.772 -0.6742  0.1878 -0.9630
 8262TIP3   OH246200   1.345   3.768   5.845  0.1524 -0.5382  0.5100
 8262TIP3    H146201   1.254   3.791   5.863 -0.9473 -1.7027 -2.7798
 8262TIP3    H246202   1.360   3.686   5.892 -0.2518  0.0020  1.6019
 8263TIP3   OH246203   3.590   1.430   1.470  0.3704  0.3476 -0.5965
 8263TIP3    H146204   3.520   1.403   1.411 -0.4050 -0.1957  0.5251
 8263TIP3    H246205   3.552   1.503   1.519  1.1834  1.1229 -1.0997
 8264TIP3   OH246206   0.431   5.911   0.502 -0.3535 -0.1267  0.4831
 8264TIP3    H146207   0.522   5.883   0.496 -1.4730 -4.4596  0.2137
 8264TIP3    H246208   0.416   5.960   0.421  1.4859 -0.1040  0.1084
 8265TIP3   OH246209   3.962   5.293  13.360  0.4739 -0.3665 -0.3797
 8265TIP3    H146210   3.883   5.264  13.405  1.0305 -0.7140  0.3900
 8265TIP3    H246211   3.932   5.316  13.272 -0.4893 -0.4435 -0.0860
 8266TIP3   OH246212   4.940   1.504  13.748 -0.3226 -0.3456  0.4050
 8266TIP3    H146213   4.916   1.528  13.837  0.7543 -0.2681  0.6897
 8266TIP3    H246214   4.895   1.568  13.693 -0.1538  0.2729  0.9642
 8267TIP3   OH246215   6.410   5.710   0.715  0.4916  0.2211  0.3792
 8267TIP3    H146216   6.339   5.743   0.659 -0.3517 -1.2865  0.5217
 8267TIP3    H246217   6.476   5.678   0.653 -0.7310 -2.0693  0.1661
 8268TIP3   OH246218   6.588   6.763  15.044 -0.2624 -0.0872 -0.1975
 8268TIP3    H146219   6.563   6.728  14.959 -0.2091 -4.3179  1.3265
 8268TIP3    H246220   6.506   6.773  15.092 -0.1065 -0.3315  0.1276
 8269TIP3   OH246221   6.699   5.798   2.526  0.1124 -0.2504  0.2760
 8269TIP3    H146222   6.708   5.780   2.620  0.9127 -0.2699  0.1995
 8269TIP3    H246223   6.786   5.783   2.490 -0.0182  0.4537 -0.3573
 8270TIP3   OH246224   3.561   2.114  13.532 -0.1489 -0.0671  0.8178
 8270TIP3    H146225   3.583   2.030  13.491 -0.4620 -1.6720  3.7240
 8270TIP3    H246226   3.646   2.154  13.552  0.0106 -0.4439  0.8924
 8271TIP3   OH246227   4.593   1.963  11.542  0.1889 -0.5632  0.2899
 8271TIP3    H146228   4.652   1.974  11.617  0.3469  1.5936 -0.0811
 8271TIP3    H246229   4.650   1.930  11.472  0.3051 -1.3574  0.7472
 8272TIP3   OH246230   5.430   5.455  14.284 -0.4935 -0.1806  0.4908
 8272TIP3    H146231   5.402   5.496  14.202 -1.7634  0.6589  1.2994
 8272TIP3    H246232   5.349   5.423  14.324  0.2962 -2.1472  0.6351
 8273TIP3   OH246233   5.636   2.451   5.924  0.1966 -0.1452 -0.1526
 8273TIP3    H146234   5.660   2.362   5.950 -0.5832 -0.5987 -0.9247
 8273TIP3    H246235   5.651   2.504   6.003  2.1403 -0.6556 -0.1262
 8274TIP3   OH246236   1.293   6.442  12.107 -0.5940 -0.1450 -0.1526
 8274TIP3    H146237   1.216   6.495  12.086 -0.5559  0.2587  0.6636
 8274TIP3    H246238   1.286   6.366  12.049 -0.8983  0.5186 -1.0097
 8275TIP3   OH246239   1.013   2.497   1.015  0.6076 -0.2132  0.1000
 8275TIP3    H146240   0.948   2.549   1.063  0.9392  0.3109 -0.0075
 8275TIP3    H246241   0.981   2.407   1.022  0.5470 -0.1268  1.1321
 8276TIP3   OH246242   2.291   5.331   0.425 -0.5785  0.0539  0.4160
 8276TIP3    H146243   2.358   5.380   0.377 -0.6711 -0.3182 -0.0986
 8276TIP3    H246244   2.211   5.341   0.373 -0.4769 -1.0848 -0.0037
 8277TIP3   OH246245   2.090   3.937  15.605  0.7387 -0.3100  0.5214
 8277TIP3    H146246   2.135   4.016  15.635 -0.4764  1.2631 -1.4973
 8277TIP3    H246247   2.126   3.921  15.518 -1.6993  0.3533 -0.6964
 8278TIP3   OH246248   5.456   5.239   5.995  0.4570 -0.3609  0.1627
 8278TIP3    H146249   5.546   5.248   5.964  0.6165 -0.6303  0.5382
 8278TIP3    H246250   5.449   5.146   6.018 -0.3442 -0.6689 -1.1771
 8279TIP3   OH246251   6.049   4.169  14.063  0.1537 -0.3322 -0.7255
 8279TIP3    H146252   6.064   4.127  14.148  0.3962 -0.8541 -1.0196
 8279TIP3    H246253   6.127   4.223  14.050 -1.2820  2.2754  0.8301
 8280TIP3   OH246254   1.609   1.280   4.828 -0.3506  0.5384 -0.7224
 8280TIP3    H146255   1.655   1.200   4.801 -0.1913 -0.2536  1.6397
 8280TIP3    H246256   1.516   1.259   4.816 -0.3408 -0.2781  0.4504
 8281TIP3   OH246257   2.190   2.806  11.222  0.3779  0.0944  0.2256
 8281TIP3    H146258   2.279   2.828  11.248  0.0036  0.2930  1.4206
 8281TIP3    H246259   2.138   2.884  11.245 -0.1586 -0.1623 -0.0934
 8282TIP3   OH246260   6.280   3.509   6.338  0.3117  0.6552 -0.1361
 8282TIP3    H146261   6.322   3.492   6.422  1.0043  3.1128  0.1050
 8282TIP3    H246262   6.194   3.544   6.360 -1.0474 -2.1324 -0.5953
 8283TIP3   OH246263   3.584   0.002   6.193 -0.1443  0.2445  0.2013
 8283TIP3    H146264   3.514  -0.056   6.166  0.2034 -0.3327  0.5176
 8283TIP3    H246265   3.661  -0.029   6.146 -0.4486  1.9994 -1.5716
 8284TIP3   OH246266   0.786   2.079  11.869 -0.2928  0.2885 -0.0209
 8284TIP3    H146267   0.850   2.009  11.857 -0.9180 -0.3154  0.0620
 8284TIP3    H246268   0.835   2.160  11.856  0.6712 -0.1305  0.8412
 8285TIP3   OH246269   0.155   4.193   1.897  0.1328  0.4028 -0.2723
 8285TIP3    H146270   0.088   4.200   1.965 -0.6198 -3.7742 -0.2946
 8285TIP3    H246271   0.107   4.204   1.815 -0.1578 -0.4072 -0.2235
 8286TIP3   OH246272   4.412   0.966   4.033  0.0722  0.2874 -0.0723
 8286TIP3    H146273   4.505   0.967   4.010 -0.1963  0.9448 -1.2025
 8286TIP3    H246274   4.376   1.044   3.992 -1.3213 -0.8454 -1.1298
 8287TIP3   OH246275   1.628   4.469  13.697  0.2362 -0.0574 -0.6234
 8287TIP3    H146276   1.613   4.419  13.616  0.1940  0.5549 -0.9983
 8287TIP3    H246277   1.672   4.549  13.668  0.8331 -0.1310  0.0402
 8288TIP3   OH246278   2.860   0.248  14.700 -0.2574 -0.2294  0.3569
 8288TIP3    H146279   2.885   0.175  14.644  0.2961  1.0567 -1.1393
 8288TIP3    H246280   2.943   0.280  14.735 -0.4157  0.2160  0.3222
 8289TIP3   OH246281   4.957   0.950  16.174 -0.4888 -0.4233  0.2651
 8289TIP3    H146282   4.948   1.032  16.222  1.6133  2.4256 -3.6261
 8289TIP3    H246283   4.891   0.955  16.105 -0.0580 -1.8490 -0.2929
 8290TIP3   OH246284   0.851   3.244  16.435  0.2245  0.2532 -0.0461
 8290TIP3    H146285   0.871   3.230  16.343  1.2881 -1.7765  0.4276
 8290TIP3    H246286   0.909   3.315  16.462 -2.1250  2.9480 -1.5204
 8291TIP3   OH246287   0.914   2.035   5.873  0.1267 -0.4243 -1.0091
 8291TIP3    H146288   0.859   2.048   5.950  0.5930  0.7089 -0.8574
 8291TIP3    H246289   0.895   2.109   5.816  0.8154 -0.5047 -1.3596
 8292TIP3   OH246290   6.177   2.826  13.467  0.3359 -0.2460 -0.4806
 8292TIP3    H146291   6.261   2.780  13.460  0.2460 -0.5291  0.2236
 8292TIP3    H246292   6.201   2.918  13.476  0.5064 -0.0783 -2.3036
 8293TIP3   OH246293   1.014   1.223   5.861  0.3313 -0.3181  0.0178
 8293TIP3    H146294   0.955   1.149   5.847 -0.1293  0.0679 -0.0926
 8293TIP3    H246295   1.102   1.185   5.853  0.1354 -1.1216  1.2667
 8294TIP3   OH246296   6.721   4.190  15.974 -0.0021  1.1164 -0.3938
 8294TIP3    H146297   6.785   4.241  16.023  1.0670  0.6083 -1.2133
 8294TIP3    H246298   6.636   4.214  16.012  0.8476 -0.4841  2.8467
 8295TIP3   OH246299   2.973   1.625  15.221  0.4282  0.1257 -1.0779
 8295TIP3    H146300   2.924   1.707  15.212  1.6770  0.9288 -0.7984
 8295TIP3    H246301   3.046   1.647  15.278  2.0939 -0.5916 -2.8451
 8296TIP3   OH246302   5.621   6.689   2.195  0.1757  0.0656 -0.0790
 8296TIP3    H146303   5.616   6.624   2.125  0.2142  0.2236 -0.2279
 8296TIP3    H246304   5.713   6.716   2.196  0.8058 -1.8100  1.7228
 8297TIP3   OH246305   1.331   2.675   6.329  0.1057 -0.5518  0.4754
 8297TIP3    H146306   1.415   2.716   6.352  0.9079 -0.9683 -1.5034
 8297TIP3    H246307   1.272   2.701   6.400  1.6858  0.4236  1.5161
 8298TIP3   OH246308   0.993   5.472   3.145  0.1328  0.4371  0.2028
 8298TIP3    H146309   1.082   5.475   3.109  0.2599 -1.1684  0.3175
 8298TIP3    H246310   1.006   5.450   3.238 -0.3823  0.0976  0.1958
 8299TIP3   OH246311   6.612   6.616  17.101 -0.0231  0.6939  0.5905
 8299TIP3    H146312   6.633   6.586  17.012  0.7935  1.2698  0.5859
 8299TIP3    H246313   6.673   6.569  17.158 -1.3925 -0.6678  1.0124
 8300TIP3   OH246314   5.040   6.021  17.153  0.1300 -0.2563  0.4708
 8300TIP3    H146315   5.049   6.110  17.189 -2.6627 -0.2319  1.3520
 8300TIP3    H246316   5.096   6.021  17.076 -0.7457  2.7565 -0.3287
 8301TIP3   OH246317   0.800   0.700   1.858  0.1360  0.2237 -0.0778
 8301TIP3    H146318   0.821   0.792   1.843  2.3041  0.2713  2.5842
 8301TIP3    H246319   0.884   0.654   1.852 -0.7907 -1.4994 -0.6175
 8302TIP3   OH246320   4.702   6.402   4.002 -0.0694  0.0534 -0.3482
 8302TIP3    H146321   4.654   6.380   4.082 -1.0201  0.1370 -0.8731
 8302TIP3    H246322   4.767   6.466   4.029  1.1436 -1.5560  0.7717
 8303TIP3   OH246323   3.062   1.079   4.958 -1.0913  0.9675 -0.7131
 8303TIP3    H146324   3.019   1.087   4.873 -0.8124  1.4733 -0.8139
 8303TIP3    H246325   3.045   1.163   5.001 -3.8299 -0.2964  0.9792
 8304TIP3   OH246326   5.081   0.283   4.778  0.3349  0.3175  0.0187
 8304TIP3    H146327   5.164   0.320   4.807  0.1610  0.5835  0.1842
 8304TIP3    H246328   5.057   0.336   4.702  0.8550 -0.4641 -0.7031
 8305TIP3   OH246329   4.515   0.674   5.562 -0.2026 -0.2857 -0.0936
 8305TIP3    H146330   4.585   0.635   5.615 -0.4393 -0.7775 -0.1420
 8305TIP3    H246331   4.441   0.615   5.572 -0.1930 -0.4910 -1.1340
 8306TIP3   OH246332   5.216   6.543   0.421 -0.0009  0.0325 -0.5435
 8306TIP3    H146333   5.130   6.504   0.440  1.1530 -1.4867  2.1550
 8306TIP3    H246334   5.256   6.482   0.359 -0.3827  0.1094 -0.8762
 8307TIP3   OH246335   0.029   0.917   1.189 -0.3457  0.2178  0.0482
 8307TIP3    H146336   0.021   0.840   1.133  1.4475  1.0609 -1.4856
 8307TIP3    H246337  -0.053   0.965   1.175  0.2285  0.6286 -2.2729
 8308TIP3   OH246338   3.729   6.439   1.630 -0.0296 -0.3054  0.1931
 8308TIP3    H146339   3.816   6.472   1.652  0.4759 -0.5851 -1.2597
 8308TIP3    H246340   3.694   6.405   1.712  1.6804 -1.2098  0.5853
 8309TIP3   OH246341   0.570   6.017   0.790  0.2732 -0.2581  0.4064
 8309TIP3    H146342   0.536   5.946   0.737  1.5000 -0.6865  0.1586
 8309TIP3    H246343   0.589   6.087   0.727  0.2986 -0.2005  0.4778
 8310TIP3   OH246344   2.333   5.792   0.846 -0.2715 -0.5607  0.5363
 8310TIP3    H146345   2.262   5.755   0.794  0.4251 -2.2313  0.7226
 8310TIP3    H246346   2.350   5.878   0.806 -1.0023 -1.0113 -0.8054
 8311TIP3   OH246347   4.519   3.719   4.560 -0.1926  0.3196  0.3492
 8311TIP3    H146348   4.535   3.811   4.579 -0.2117  0.4314 -0.1583
 8311TIP3    H246349   4.449   3.694   4.620 -1.3634  1.0925 -0.6595
 8312TIP3   OH246350   3.442   1.925  14.213 -0.2896  0.3691  0.3938
 8312TIP3    H146351   3.353   1.915  14.180 -0.5490  1.0255  0.8578
 8312TIP3    H246352   3.476   2.001  14.165 -0.9048  1.7588  2.0608
 8313TIP3   OH246353   0.112   4.229  15.721 -0.3157  0.0934  0.2527
 8313TIP3    H146354   0.077   4.230  15.810 -2.2496 -1.4573 -0.4083
 8313TIP3    H246355   0.040   4.196  15.667 -0.0580  3.2588 -2.3178
 8314TIP3   OH246356   2.348   6.053   3.854 -0.2478 -0.3515 -0.0909
 8314TIP3    H146357   2.439   6.050   3.825 -0.8901 -1.4142 -2.2557
 8314TIP3    H246358   2.323   6.145   3.842 -0.0409 -0.4591 -1.6720
 8315TIP3   OH246359   1.279   1.836  14.683  0.1091  0.5060  0.1931
 8315TIP3    H146360   1.187   1.845  14.659 -0.1872 -1.7435  0.1974
 8315TIP3    H246361   1.277   1.810  14.776  0.6895 -0.0651  0.0556
 8316TIP3   OH246362   4.205   4.165  12.747  0.2782 -0.0914 -0.2230
 8316TIP3    H146363   4.245   4.091  12.701  0.0359 -0.0101 -0.5723
 8316TIP3    H246364   4.177   4.224  12.677 -1.0992 -0.4780 -0.0242
 8317TIP3   OH246365   4.578   2.379  14.419 -0.3485  0.3032  0.4296
 8317TIP3    H146366   4.640   2.404  14.350  0.1432 -0.6364  0.5178
 8317TIP3    H246367   4.608   2.427  14.496 -1.2162  1.7760 -0.1157
 8318TIP3   OH246368   2.907   2.684   0.130  0.0261  0.5309  0.0172
 8318TIP3    H146369   2.939   2.692   0.040  1.4840  0.0592  0.4727
 8318TIP3    H246370   2.986   2.690   0.185 -0.7968  0.4987  1.2483
 8319TIP3   OH246371   1.919   6.367   3.516 -0.6497 -0.2719  0.0062
 8319TIP3    H146372   1.874   6.397   3.594 -0.5303 -1.5131  0.5836
 8319TIP3    H246373   1.851   6.327   3.462 -0.9491  1.6270 -1.1197
 8320TIP3   OH246374   4.021   5.295   6.492 -0.1172  0.1617 -0.0245
 8320TIP3    H146375   4.102   5.278   6.446 -1.4371  0.7779 -2.7835
 8320TIP3    H246376   4.015   5.225   6.558  1.6153 -1.1177 -1.1522
 8321TIP3   OH246377   2.161   1.100  14.672  0.3824 -0.1243 -0.1318
 8321TIP3    H146378   2.117   1.155  14.738  1.0705  1.4561 -0.9341
 8321TIP3    H246379   2.109   1.020  14.669 -1.1408  0.7930  0.5264
 8322TIP3   OH246380   4.423   4.611  11.916  0.0248 -0.6944 -0.4672
 8322TIP3    H146381   4.378   4.642  11.994  0.6277  0.0182 -0.3826
 8322TIP3    H246382   4.510   4.585  11.946  0.1907 -0.6098 -0.8533
 8323TIP3   OH246383   6.049   4.082  15.704 -0.3753  0.0885 -0.3064
 8323TIP3    H146384   6.143   4.085  15.719 -0.2278 -1.3931 -0.8010
 8323TIP3    H246385   6.026   4.171  15.677  0.8416  0.5143  0.0228
 8324TIP3   OH246386   6.499   1.188   6.081 -0.4313 -0.4458  0.2393
 8324TIP3    H146387   6.592   1.168   6.089  0.0955  1.5033 -0.3719
 8324TIP3    H246388   6.462   1.168   6.167  0.7574 -0.3234  0.8010
 8325TIP3   OH246389   3.856   3.933   1.908  0.2351  0.7266 -0.1625
 8325TIP3    H146390   3.822   3.960   1.823 -0.9946 -0.5419 -0.1017
 8325TIP3    H246391   3.818   3.847   1.923  3.0482 -0.5688  0.1980
 8326TIP3   OH246392   2.736   6.316   5.340  0.0439 -0.0574  0.1739
 8326TIP3    H146393   2.652   6.275   5.322  0.5818 -1.4589  0.7391
 8326TIP3    H246394   2.778   6.324   5.255 -0.1377 -0.5366  0.0393
 8327TIP3   OH246395   1.961   5.488  17.161  0.0936 -0.2854 -0.0602
 8327TIP3    H146396   1.948   5.446  17.246  0.6419 -1.4553 -0.5375
 8327TIP3    H246397   1.877   5.477  17.116  0.1582 -0.6662 -0.0905
 8328TIP3   OH246398   2.100   1.675  12.006  0.2268 -0.3030 -0.1071
 8328TIP3    H146399   2.165   1.738  11.972  1.5436 -1.3780  0.3263
 8328TIP3    H246400   2.147   1.592  12.010 -2.0055 -1.8501 -2.5036
 8329TIP3   OH246401   2.989   3.582   3.008 -0.5097 -0.4004  0.1241
 8329TIP3    H146402   3.031   3.506   2.969 -1.6868 -0.7633 -0.4912
 8329TIP3    H246403   3.061   3.641   3.030  0.3609 -1.3565 -0.1012
 8330TIP3   OH246404   1.226   0.932   1.396  0.1272 -0.0287 -0.6578
 8330TIP3    H146405   1.227   0.875   1.319  0.2416 -2.6095  1.1260
 8330TIP3    H246406   1.317   0.960   1.406  1.3815 -3.9174  1.2746
 8331TIP3   OH246407   0.972   3.080   3.392  0.4406  0.1602 -0.5190
 8331TIP3    H146408   0.938   3.032   3.317 -0.3233  0.2971 -0.2692
 8331TIP3    H246409   1.039   3.138   3.354  0.9872 -0.6908 -0.8950
 8332TIP3   OH246410   3.462   6.297   4.393  0.0937  0.2414 -0.3221
 8332TIP3    H146411   3.550   6.269   4.419  0.2400 -0.5084 -1.5086
 8332TIP3    H246412   3.437   6.236   4.323 -1.1544  0.7735 -0.3786
 8333TIP3   OH246413   0.567   3.150  11.793 -0.6228  0.3565  0.3397
 8333TIP3    H146414   0.652   3.105  11.802  0.0228  1.2060 -1.2234
 8333TIP3    H246415   0.507   3.081  11.765  0.2764  0.3410 -1.6842
 8334TIP3   OH246416   6.537   3.886   0.526 -0.1200  0.4074  0.7390
 8334TIP3    H146417   6.467   3.950   0.531 -0.8380 -0.3330  0.3997
 8334TIP3    H246418   6.600   3.913   0.593 -0.5189  1.3232  0.7509
 8335TIP3   OH246419   4.448   4.810   3.647 -0.9744  0.9860  0.3308
 8335TIP3    H146420   4.463   4.758   3.726 -0.3272  1.9808  0.8927
 8335TIP3    H246421   4.369   4.861   3.666 -0.3174  1.8855  0.7129
 8336TIP3   OH246422   6.196   3.424   1.658  0.3196 -0.1615 -0.2183
 8336TIP3    H146423   6.154   3.470   1.731  1.1197  0.0845  0.0977
 8336TIP3    H246424   6.287   3.411   1.686 -0.4698 -4.6438  1.0339
 8337TIP3   OH246425   4.128   4.677  13.697 -0.0801  0.0419 -0.2405
 8337TIP3    H146426   4.085   4.763  13.700 -2.1542 -0.9491  0.7615
 8337TIP3    H246427   4.081   4.630  13.629  1.3854 -0.1783 -1.1393
 8338TIP3   OH246428   2.639   4.078  16.644  0.3350  0.4890 -0.1301
 8338TIP3    H146429   2.619   4.071  16.737 -0.2614  2.2036 -0.0917
 8338TIP3    H246430   2.555   4.103  16.604  0.3309 -1.2038 -1.3008
 8339TIP3   OH246431   6.121   0.472   5.966 -0.4343  0.8328 -0.2223
 8339TIP3    H146432   6.195   0.531   5.975 -0.5470  0.7859  1.4731
 8339TIP3    H246433   6.105   0.466   5.872 -0.6146  3.7166 -0.4441
 8340TIP3   OH246434   2.605   2.706   3.529 -0.1049 -0.3983 -0.0519
 8340TIP3    H146435   2.527   2.760   3.521  1.1791  1.4677 -0.7567
 8340TIP3    H246436   2.587   2.629   3.475 -1.8114 -0.4954  0.6065
 8341TIP3   OH246437   5.099   2.166  16.431  0.1346 -0.8552  0.0283
 8341TIP3    H146438   5.138   2.248  16.401  1.9598 -1.7868 -0.3229
 8341TIP3    H246439   5.059   2.187  16.515  0.4430  0.4278 -0.1274
 8342TIP3   OH246440   6.200   4.673  14.921 -0.5756  0.4034 -0.4615
 8342TIP3    H146441   6.274   4.721  14.886  0.0335  2.7212  3.4530
 8342TIP3    H246442   6.237   4.618  14.991 -2.0973 -1.2840 -0.9009
 8343TIP3   OH246443   5.233   0.966  12.682  0.2829  0.1802 -0.4595
 8343TIP3    H146444   5.209   0.970  12.589  1.3569  1.5588 -0.7163
 8343TIP3    H246445   5.216   1.054  12.714  0.9448  0.0017  0.3881
 8344TIP3   OH246446   1.462   4.269   1.201 -0.2846  0.6212  0.3963
 8344TIP3    H146447   1.496   4.316   1.126 -1.1913 -0.2713 -0.6095
 8344TIP3    H246448   1.528   4.282   1.270  1.6050 -0.2385 -1.1681
 8345TIP3   OH246449   0.177   5.658  16.705  0.2346  0.7455  0.5014
 8345TIP3    H146450   0.251   5.716  16.684  0.0111  1.0975  0.6746
 8345TIP3    H246451   0.104   5.718  16.723 -0.1418  0.3981  0.1597
 8346TIP3   OH246452   0.381   0.557  14.355  0.5549  0.1140 -0.8541
 8346TIP3    H146453   0.445   0.594  14.294  1.2064  1.3746  0.5028
 8346TIP3    H246454   0.314   0.518  14.300  0.2485  2.6599 -2.4316
 8347TIP3   OH246455   3.029   3.747   5.562  0.3166 -0.5789 -0.3751
 8347TIP3    H146456   2.975   3.825   5.577 -0.4733 -1.2839  0.6450
 8347TIP3    H246457   3.011   3.721   5.472 -0.3379 -0.2582 -0.3403
 8348TIP3   OH246458   4.796   0.136   0.095 -0.1715 -0.5138 -0.1118
 8348TIP3    H146459   4.756   0.222   0.089 -0.9546 -0.8024  0.7726
 8348TIP3    H246460   4.723   0.076   0.106  0.3788 -1.2756 -0.4961
 8349TIP3   OH246461   4.692   1.727   1.490 -0.3293  0.2906 -0.8419
 8349TIP3    H146462   4.652   1.747   1.575  0.4823 -0.6935 -0.2033
 8349TIP3    H246463   4.619   1.732   1.428 -0.9488  0.9722 -0.0950
 8350TIP3   OH246464   1.099   2.471   1.821 -0.4063  0.1281 -0.4672
 8350TIP3    H146465   1.153   2.478   1.900 -0.8684 -0.8148 -0.0470
 8350TIP3    H246466   1.109   2.555   1.777 -2.2265  1.7121  1.9268
 8351TIP3   OH246467   0.368   3.822   2.701  0.3524 -0.1689 -0.1936
 8351TIP3    H146468   0.277   3.793   2.700  0.8275 -2.1413 -4.0582
 8351TIP3    H246469   0.410   3.768   2.767 -1.0897  0.3323  1.1953
 8352TIP3   OH246470   1.708   4.810   4.145 -0.3342  0.0468  0.0405
 8352TIP3    H146471   1.636   4.777   4.091 -2.0288  0.6503  1.7909
 8352TIP3    H246472   1.721   4.742   4.211  0.6888 -0.0333 -0.2407
 8353TIP3   OH246473   2.643   0.877   0.048  0.4999  0.3250 -0.0348
 8353TIP3    H146474   2.718   0.819   0.043  0.9838  1.0462 -1.9770
 8353TIP3    H246475   2.567   0.820   0.032  0.6048 -0.3723  1.7713
 8354TIP3   OH246476   3.948   5.151  16.613  0.1928 -0.1363  0.0878
 8354TIP3    H146477   3.852   5.146  16.615 -0.1195  3.5821  0.8427
 8354TIP3    H246478   3.974   5.145  16.705  0.3807  1.7374  0.1877
 8355TIP3   OH246479   0.671   0.397  14.048 -0.3892 -0.7332 -0.5549
 8355TIP3    H146480   0.734   0.383  13.977  2.6677 -0.9062  1.9849
 8355TIP3    H246481   0.658   0.311  14.086 -2.6235 -0.7712 -1.2836
 8356TIP3   OH246482   6.328   1.117   0.381 -0.6643  0.3986  0.0325
 8356TIP3    H146483   6.317   1.204   0.344 -0.1945  0.5756  0.2919
 8356TIP3    H246484   6.325   1.131   0.476  1.6762  0.5003  0.1537
 8357TIP3   OH246485   5.332   5.351   6.446 -0.3182 -0.0401 -0.0016
 8357TIP3    H146486   5.304   5.273   6.495 -1.9265  0.3512 -0.2264
 8357TIP3    H246487   5.326   5.422   6.509  1.5988 -0.1337  0.3307
 8358TIP3   OH246488   5.380   6.694  16.237  0.1550  0.1270  0.3143
 8358TIP3    H146489   5.362   6.784  16.265 -2.9927  1.4617 -4.6850
 8358TIP3    H246490   5.334   6.639  16.300  0.6082  2.0521  2.4616
 8359TIP3   OH246491   0.262   5.167  14.937 -0.0195 -0.1049 -0.3159
 8359TIP3    H146492   0.295   5.246  14.981 -0.9603 -0.2723  0.7562
 8359TIP3    H246493   0.215   5.201  14.861  0.6771  0.2755 -0.5868
 8360TIP3   OH246494   0.091   1.333  16.527  1.0784 -0.8644  0.1361
 8360TIP3    H146495  -0.003   1.348  16.533  0.7167 -1.4956 -2.5807
 8360TIP3    H246496   0.129   1.420  16.522  0.8287 -0.5585  2.5280
 8361TIP3   OH246497   0.966   1.790   2.600 -0.5921  0.0128 -0.2150
 8361TIP3    H146498   0.981   1.754   2.688 -0.5253  1.1647  0.2773
 8361TIP3    H246499   1.046   1.841   2.583 -0.9004  0.3477 -0.6526
 8362TIP3   OH246500   0.821   1.351  13.514 -0.0067  0.0903  0.3966
 8362TIP3    H146501   0.858   1.351  13.602  2.3667  0.1414 -0.5383
 8362TIP3    H246502   0.799   1.443  13.496 -0.7898  0.0369  1.0053
 8363TIP3   OH246503   0.146   3.131   6.529  0.1247 -0.0740 -0.4546
 8363TIP3    H146504   0.112   3.087   6.451 -0.0644 -2.1735  0.7201
 8363TIP3    H246505   0.224   3.081   6.552  0.4104  0.7738  0.4679
 8364TIP3   OH246506   3.921   0.443   2.635 -0.4285  0.1872  0.1521
 8364TIP3    H146507   3.940   0.476   2.547  0.4303 -0.4834  0.0719
 8364TIP3    H246508   3.882   0.357   2.620  1.0531 -0.5718  0.4311
 8365TIP3   OH246509   3.070   1.752   0.929  0.0282  0.5051 -0.1641
 8365TIP3    H146510   3.122   1.672   0.939  0.5924  0.7948 -0.7420
 8365TIP3    H246511   3.089   1.802   1.009  0.8007  0.6939 -0.4549
 8366TIP3   OH246512   2.371   2.965  14.605 -0.1573 -0.1189  0.0140
 8366TIP3    H146513   2.320   2.959  14.524 -0.9084 -0.1629  0.4876
 8366TIP3    H246514   2.446   2.907  14.590 -0.2333 -0.0511 -0.6821
 8367TIP3   OH246515   1.774   0.763  11.202  0.1746 -0.4406 -0.2844
 8367TIP3    H146516   1.794   0.683  11.154 -0.4465 -1.2274  0.7374
 8367TIP3    H246517   1.827   0.758  11.282 -1.5491 -0.9720  0.8795
 8368TIP3   OH246518   2.822   4.299  15.811 -0.1626 -0.3487  0.4496
 8368TIP3    H146519   2.729   4.316  15.825  0.0425  0.0913  1.3991
 8368TIP3    H246520   2.830   4.281  15.718 -0.9253  1.5269 -0.0190
 8369TIP3   OH246521   4.256   2.679   4.656 -0.3639  0.1467  0.1209
 8369TIP3    H146522   4.263   2.763   4.610 -2.1244 -0.5627 -1.5701
 8369TIP3    H246523   4.172   2.685   4.702 -0.2279 -0.4643  0.4452
 8370TIP3   OH246524   4.051   0.252   5.205 -0.5569  0.1352 -0.6868
 8370TIP3    H146525   4.114   0.220   5.141 -2.2545  0.6674 -2.7066
 8370TIP3    H246526   3.988   0.180   5.215  0.7937 -0.8289  2.1180
 8371TIP3   OH246527   4.224   6.129   4.545  0.1699 -0.1399  0.3274
 8371TIP3    H146528   4.301   6.182   4.522  0.2198 -0.5817 -0.5893
 8371TIP3    H246529   4.197   6.089   4.462 -0.5067 -0.7101  0.8079
 8372TIP3   OH246530   5.845   5.590  13.966  0.0504 -0.7825 -0.0472
 8372TIP3    H146531   5.891   5.525  13.912  2.9243  2.0420 -1.3122
 8372TIP3    H246532   5.880   5.577  14.054  0.3792 -1.1214 -0.2228
 8373TIP3   OH246533   2.974   1.519   1.985 -0.2249 -0.5467 -0.0392
 8373TIP3    H146534   2.915   1.594   1.988  0.2678 -0.0918 -1.1090
 8373TIP3    H246535   2.919   1.447   1.955 -0.3225 -0.1901 -0.7543
 8374TIP3   OH246536   5.134   6.549  14.017  0.2952 -0.3784 -0.3594
 8374TIP3    H146537   5.066   6.580  14.077 -0.3041  1.2340 -1.7810
 8374TIP3    H246538   5.099   6.567  13.930  1.7119 -1.3972 -1.1805
 8375TIP3   OH246539   1.707   2.012   2.827 -0.2274 -0.0856 -0.4877
 8375TIP3    H146540   1.706   1.929   2.778 -0.3868 -0.0251 -0.5884
 8375TIP3    H246541   1.679   1.987   2.915  0.8173 -0.3230 -0.2083
 8376TIP3   OH246542   0.818   5.804   2.637 -0.3228 -0.3561  0.1001
 8376TIP3    H146543   0.796   5.813   2.544 -0.7333  0.7767  0.2908
 8376TIP3    H246544   0.889   5.740   2.639  1.2468  1.2138 -1.2357
 8377TIP3   OH246545   1.067   1.969  11.617 -0.0437  0.0513 -0.7773
 8377TIP3    H146546   1.072   2.038  11.551 -0.5755  0.1502 -0.7239
 8377TIP3    H246547   1.154   1.929  11.618  0.0279  0.1899 -1.3853
 8378TIP3   OH246548   1.683   0.954  16.052  0.0014  0.0449 -0.5190
 8378TIP3    H146549   1.772   0.950  16.088 -0.3247  0.4248  0.3387
 8378TIP3    H246550   1.689   1.020  15.983  0.6679 -0.8088 -1.3202
 8379TIP3   OH246551   3.258   1.399  13.765  0.0346  0.7249  0.1577
 8379TIP3    H146552   3.339   1.350  13.750 -0.8236 -0.5644 -0.4046
 8379TIP3    H246553   3.244   1.447  13.683 -1.5244 -1.7069 -1.0883
 8380TIP3   OH246554   6.578   1.828  15.147 -0.8075  0.2501 -0.6198
 8380TIP3    H146555   6.666   1.851  15.176 -0.9609  0.3183 -0.1988
 8380TIP3    H246556   6.522   1.852  15.221 -0.8509 -2.8203  0.4587
 8381TIP3   OH246557   3.652   5.389  15.049 -0.0794 -0.4847  0.0125
 8381TIP3    H146558   3.744   5.414  15.053 -0.0583 -0.7016  1.7063
 8381TIP3    H246559   3.628   5.372  15.140 -2.2164  1.0869 -0.1690
 8382TIP3   OH246560   3.997   0.982  13.642  0.1510  0.5361 -0.2715
 8382TIP3    H146561   3.977   1.022  13.558  0.4728  0.4072 -0.4101
 8382TIP3    H246562   4.011   1.055  13.702 -0.8730  0.6333 -0.1361
 8383TIP3   OH246563   1.055   0.348   3.824 -0.4047  0.2526 -0.1817
 8383TIP3    H146564   1.145   0.379   3.835  0.2116 -2.0205  1.9884
 8383TIP3    H246565   1.001   0.420   3.856  0.8855 -0.0042  2.9277
 8384TIP3   OH246566   1.702   0.613  13.608 -0.0593 -0.0527 -0.0338
 8384TIP3    H146567   1.646   0.556  13.556 -1.2890  1.0538  0.0239
 8384TIP3    H246568   1.784   0.619  13.559 -0.8873  0.2843 -1.4067
 8385TIP3   OH246569   3.678   0.739   0.020  0.8620 -0.1178  0.2426
 8385TIP3    H146570   3.699   0.761  -0.071  0.8483 -0.1398  0.2334
 8385TIP3    H246571   3.747   0.679   0.047  1.2678  0.4443  0.4684
 8386TIP3   OH246572   0.208   3.095  14.116 -0.2843 -0.5058 -0.2250
 8386TIP3    H146573   0.114   3.114  14.111 -0.5508 -1.2794  1.3159
 8386TIP3    H246574   0.228   3.096  14.209  1.0643 -1.2390 -0.4822
 8387TIP3   OH246575   6.699   3.571   5.526  0.3289  0.9903 -0.3950
 8387TIP3    H146576   6.635   3.584   5.456  0.7388  0.5845 -0.8481
 8387TIP3    H246577   6.783   3.567   5.481  0.6436  1.1816  0.1677
 8388TIP3   OH246578   0.578   1.921  16.348  0.2044  0.1745  0.2308
 8388TIP3    H146579   0.535   1.934  16.432 -0.2380 -0.8144  0.1691
 8388TIP3    H246580   0.558   1.830  16.325  0.7473  0.2842 -0.6969
 8389TIP3   OH246581   3.512   5.900   5.662 -0.4748 -0.1048  0.6715
 8389TIP3    H146582   3.480   5.824   5.613  1.8172 -0.2717 -0.6961
 8389TIP3    H246583   3.471   5.892   5.748  0.7615 -3.7367  1.0933
 8390TIP3   OH246584   0.894   5.935  14.083  0.3021 -0.0506  0.4902
 8390TIP3    H146585   0.815   5.986  14.102  0.4332 -0.2242  1.6038
 8390TIP3    H246586   0.949   5.993  14.030 -0.8240 -0.1529 -0.8269
 8391TIP3   OH246587   3.048   1.532  16.076 -0.0650 -0.0445  0.0457
 8391TIP3    H146588   3.094   1.456  16.041  1.1193  0.3610  0.6727
 8391TIP3    H246589   2.977   1.495  16.129  0.3403 -0.7077  0.1283
 8392TIP3   OH246590   0.559   3.159   2.359  0.0052  0.0175 -0.1487
 8392TIP3    H146591   0.509   3.090   2.402  0.4040  0.9017  1.8426
 8392TIP3    H246592   0.493   3.223   2.332 -0.1977 -0.2871 -0.3868
 8393TIP3   OH246593   2.097   5.867   2.110 -0.2586 -0.1021 -0.7861
 8393TIP3    H146594   2.077   5.807   2.182 -0.4571  0.7498 -0.1220
 8393TIP3    H246595   2.085   5.814   2.031  0.1290 -1.0941 -0.1992
 8394TIP3   OH246596   3.380   4.286  11.094 -0.1922 -0.1393  0.4447
 8394TIP3    H146597   3.343   4.304  11.181  0.5881  1.4946  0.4666
 8394TIP3    H246598   3.414   4.370  11.064  0.7256 -0.9497 -0.9014
 8395TIP3   OH246599   1.416   6.199   5.354 -0.3824 -0.3098  0.0539
 8395TIP3    H146600   1.424   6.140   5.279 -1.1617 -1.3795  0.7786
 8395TIP3    H246601   1.393   6.283   5.316 -0.6307 -0.8013 -0.9188
 8396TIP3   OH246602   5.090   5.517  10.341  0.8386  0.0635  1.0896
 8396TIP3    H146603   5.068   5.469  10.261  2.7564  0.7307  0.1027
 8396TIP3    H246604   5.017   5.578  10.352 -1.3267 -2.4867  2.0076
 8397TIP3   OH246605   1.223   4.011   0.422 -0.3397  0.0014 -0.3396
 8397TIP3    H146606   1.182   3.926   0.407 -2.4968  0.6931  1.1088
 8397TIP3    H246607   1.194   4.065   0.347 -0.8449  0.0625 -0.1051
 8398TIP3   OH246608   2.697   3.021   5.427 -0.4333 -0.1602  0.1832
 8398TIP3    H146609   2.778   2.972   5.408  0.2729  1.1879 -0.4116
 8398TIP3    H246610   2.631   2.981   5.370  0.2664 -0.0844 -0.7095
 8399TIP3   OH246611   3.884   6.715   1.015  0.4327 -0.1045  0.0929
 8399TIP3    H146612   3.804   6.744   1.059  1.4290  0.2125  1.7809
 8399TIP3    H246613   3.898   6.626   1.047  0.4773 -0.3614 -0.6241
 8400TIP3   OH246614   4.937   5.588   3.607 -0.2831 -0.2549 -0.2340
 8400TIP3    H146615   4.844   5.609   3.596 -0.4124 -0.4351  0.4545
 8400TIP3    H246616   4.981   5.673   3.612 -0.4466 -0.1688 -0.2801
 8401TIP3   OH246617   2.757   1.687   2.121  0.1600 -0.2803 -0.0934
 8401TIP3    H146618   2.677   1.738   2.136 -1.1122 -2.3363  0.6733
 8401TIP3    H246619   2.778   1.650   2.207  1.6215 -0.2241 -0.4126
 8402TIP3   OH246620   2.742   1.279  15.283 -0.6071 -0.3687  0.0551
 8402TIP3    H146621   2.797   1.308  15.210 -0.7196 -0.0651  0.0910
 8402TIP3    H246622   2.778   1.193  15.307  0.4290  0.2135  0.6695
 8403TIP3   OH246623   1.595   2.649  11.849 -0.7551 -0.2750  0.0554
 8403TIP3    H146624   1.678   2.622  11.889 -1.4961  0.5941  2.3495
 8403TIP3    H246625   1.602   2.744  11.843 -1.2756 -0.2702 -0.5321
 8404TIP3   OH246626   4.343   1.552   0.955  0.2445  0.1441 -0.1907
 8404TIP3    H146627   4.415   1.590   0.904  0.2480  0.5357  0.1022
 8404TIP3    H246628   4.330   1.465   0.917 -0.6465  0.9286 -1.7522
 8405TIP3   OH246629   3.426   6.179  12.385 -0.1353  0.1506 -0.6038
 8405TIP3    H146630   3.484   6.251  12.359  0.3980  0.3242  0.9115
 8405TIP3    H246631   3.482   6.101  12.381 -0.0239  0.1909  0.0303
 8406TIP3   OH246632   5.352   6.040   1.222  0.2846  0.2423  0.6917
 8406TIP3    H146633   5.291   6.099   1.177  2.9112  2.1240 -0.6246
 8406TIP3    H246634   5.385   6.092   1.295  0.9048 -0.4620  0.9179
 8407TIP3   OH246635   5.879   2.791   1.556 -0.1221  0.1512 -0.7494
 8407TIP3    H146636   5.866   2.791   1.651  1.1070  0.2187 -0.5629
 8407TIP3    H246637   5.810   2.848   1.522 -0.3849  0.3766  0.1389
 8408TIP3   OH246638   1.784   0.095  12.559 -0.0951 -0.4199  0.4041
 8408TIP3    H146639   1.779   0.188  12.582  0.7525 -0.2295 -0.1537
 8408TIP3    H246640   1.696   0.062  12.575 -0.2086  0.3007  1.3600
 8409TIP3   OH246641   1.845   3.878   1.777  0.1498 -0.1883 -0.2512
 8409TIP3    H146642   1.935   3.846   1.778  0.6920  1.2337 -0.9492
 8409TIP3    H246643   1.796   3.812   1.728  0.9373 -0.6316 -0.4514
 8410TIP3   OH246644   0.880   6.583  17.058  0.2870 -0.3156  0.2371
 8410TIP3    H146645   0.962   6.555  17.019  0.4248 -0.4514  0.6167
 8410TIP3    H246646   0.878   6.540  17.144 -0.1251 -0.2240  0.2771
 8411TIP3   OH246647   4.086   4.600  11.651 -0.7601 -0.5204  0.4750
 8411TIP3    H146648   4.168   4.550  11.652 -0.7823 -0.5462  1.0775
 8411TIP3    H246649   4.112   4.690  11.631 -0.5907 -0.5338  0.6407
 8412TIP3   OH246650   2.576   2.900   4.687  0.2078 -0.4973 -0.0079
 8412TIP3    H146651   2.551   2.932   4.773  1.2999  1.0423 -0.2229
 8412TIP3    H246652   2.667   2.926   4.677 -0.4087  1.1241 -2.3807
 8413TIP3   OH246653   6.617   1.228   5.167 -0.5317  0.0464 -0.1897
 8413TIP3    H146654   6.573   1.286   5.105  0.1086 -0.9888 -1.6732
 8413TIP3    H246655   6.686   1.281   5.206  0.0797  0.2963 -1.5630
 8414TIP3   OH246656   2.185   3.725  15.799 -0.0940 -0.1478 -0.3030
 8414TIP3    H146657   2.239   3.662  15.752 -0.7701 -0.2412 -0.9710
 8414TIP3    H246658   2.159   3.790  15.733 -1.9152 -0.8423 -0.3415
 8415TIP3   OH246659   3.058   1.474   6.226  0.2126  0.3732  0.0213
 8415TIP3    H146660   3.032   1.524   6.149 -0.1217 -0.7869 -0.6515
 8415TIP3    H246661   3.150   1.452   6.211 -0.0406 -0.4396 -0.3960
 8416TIP3   OH246662   5.288   3.892   3.017 -0.2095 -0.7214  0.6534
 8416TIP3    H146663   5.354   3.831   3.049  0.1372 -0.6301  0.1312
 8416TIP3    H246664   5.338   3.971   2.995 -0.5897 -0.4090  0.9056
 8417TIP3   OH246665   5.955   5.667   2.242 -0.2584  0.4035 -0.0612
 8417TIP3    H146666   6.045   5.670   2.276 -0.0859 -0.9475 -0.3390
 8417TIP3    H246667   5.903   5.637   2.316 -0.5209  1.3301  0.1429
 8418TIP3   OH246668   1.209   6.569   6.350  0.3557  0.0257 -0.8672
 8418TIP3    H146669   1.261   6.489   6.354  1.2814  0.6428 -0.2161
 8418TIP3    H246670   1.152   6.565   6.426 -0.4992 -0.6005 -1.5231
 8419TIP3   OH246671   2.105   6.773   1.724  0.0161 -0.1508  0.0022
 8419TIP3    H146672   2.109   6.716   1.801 -1.4424 -1.4756 -0.8387
 8419TIP3    H246673   2.109   6.862   1.760  1.7962 -0.7364  1.3926
 8420TIP3   OH246674   2.367   1.295  14.573  0.4100  0.0332 -0.0544
 8420TIP3    H146675   2.344   1.370  14.628 -0.7292  0.7075 -1.3929
 8420TIP3    H246676   2.329   1.219  14.619  1.5823  0.2305  1.3129
 8421TIP3   OH246677   3.773   2.455  14.055 -0.0480 -0.6445  0.6728
 8421TIP3    H146678   3.742   2.364  14.054  1.5127 -1.2152 -0.5135
 8421TIP3    H246679   3.708   2.502  14.002 -0.3619 -1.2601  0.4914
 8422TIP3   OH246680   4.136   5.718  13.031 -0.3162 -0.1048  0.2828
 8422TIP3    H146681   4.149   5.631  13.069 -0.3932  0.5345  1.8362
 8422TIP3    H246682   4.206   5.726  12.966 -0.1096 -1.1879  0.3409
 8423TIP3   OH246683   6.528   5.550  13.889  0.6908 -0.1375 -0.1696
 8423TIP3    H146684   6.550   5.465  13.850  0.4973  0.0061 -0.5934
 8423TIP3    H246685   6.482   5.528  13.970  0.0816 -0.4402 -0.5904
 8424TIP3   OH246686   4.390   6.333   0.099  0.1652 -0.8064 -0.2024
 8424TIP3    H146687   4.428   6.367   0.180  0.2086 -0.4609 -0.3652
 8424TIP3    H246688   4.457   6.274   0.064 -0.6630 -2.5915  1.0566
 8425TIP3   OH246689   2.398   6.396  12.666  0.2931 -0.7356  0.2001
 8425TIP3    H146690   2.449   6.343  12.604  0.4585 -1.4951  0.9682
 8425TIP3    H246691   2.308   6.390  12.634  0.7613  1.3641 -1.6989
 8426TIP3   OH246692   1.556   3.978  15.111 -0.0012 -0.0654 -0.4314
 8426TIP3    H146693   1.635   3.944  15.068  1.1140 -0.5439  1.8108
 8426TIP3    H246694   1.521   3.902  15.158 -1.7457  0.1922 -1.2555
 8427TIP3   OH246695   6.473   5.949   1.504  0.2623  0.3329 -0.1614
 8427TIP3    H146696   6.521   6.000   1.439  1.1055  0.3436  0.4664
 8427TIP3    H246697   6.438   5.874   1.454  0.2156  0.7571 -0.7849
 8428TIP3   OH246698   1.471   2.647   1.636 -0.4464  0.1764 -0.4421
 8428TIP3    H146699   1.393   2.638   1.690 -0.0191 -1.3435 -0.0322
 8428TIP3    H246700   1.443   2.626   1.548 -0.8264  1.2113 -0.5814
 8429TIP3   OH246701   2.041   4.206   4.066  0.2479  0.2421 -0.2867
 8429TIP3    H146702   2.043   4.159   3.983  2.5863 -1.8853  0.8296
 8429TIP3    H246703   2.058   4.138   4.132 -1.8624  1.7736  2.0037
 8430TIP3   OH246704   4.766   1.195  15.949 -0.3939 -0.1894  0.1044
 8430TIP3    H146705   4.712   1.212  16.027 -1.0153 -0.3630 -0.2815
 8430TIP3    H246706   4.796   1.281  15.921  0.3517 -0.1811  0.8991
 8431TIP3   OH246707   5.989   4.726   3.893 -0.4576 -0.6313  0.0441
 8431TIP3    H146708   5.898   4.750   3.909 -0.3507  1.0177 -1.4279
 8431TIP3    H246709   5.985   4.655   3.829 -0.7586  0.5567 -1.3274
 8432TIP3   OH246710   5.661   6.014  16.258 -0.0413  0.0238 -0.2901
 8432TIP3    H146711   5.600   6.064  16.312  1.0936  1.4566 -0.2685
 8432TIP3    H246712   5.747   6.040  16.289  0.6061 -0.4386 -1.6244
 8433TIP3   OH246713   4.413   0.720   1.302 -0.0151 -0.3355  0.1047
 8433TIP3    H146714   4.449   0.687   1.220  0.9905 -0.2182  0.4727
 8433TIP3    H246715   4.334   0.767   1.277  0.5330  0.1116 -0.8647
 8434TIP3   OH246716   0.489   5.491   3.168  0.6363  0.1225  0.2473
 8434TIP3    H146717   0.414   5.541   3.201  2.1800  0.7663  3.1084
 8434TIP3    H246718   0.541   5.555   3.119  0.8674  0.5075  0.9720
 8435TIP3   OH246719   6.023   2.450  13.786  0.1907 -0.3251 -0.0635
 8435TIP3    H146720   6.054   2.477  13.699 -2.1251 -0.5172 -1.0127
 8435TIP3    H246721   5.987   2.363  13.773  1.1240 -0.9840  1.4530
 8436TIP3   OH246722   1.479   5.207  13.415  0.0547 -0.2103 -0.1166
 8436TIP3    H146723   1.564   5.246  13.433 -0.7437  1.5199  0.1492
 8436TIP3    H246724   1.417   5.280  13.421 -1.5404 -1.5248  0.3576
 8437TIP3   OH246725   5.350   0.403  12.412 -0.2721  0.2763 -0.1532
 8437TIP3    H146726   5.370   0.342  12.483  0.7796  0.3822 -0.3463
 8437TIP3    H246727   5.311   0.479  12.455 -3.9411 -1.4316 -0.0925
 8438TIP3   OH246728   5.630   6.298   5.149  0.3512  0.5224  0.2638
 8438TIP3    H146729   5.589   6.279   5.065  1.5991 -1.1932 -0.0266
 8438TIP3    H246730   5.560   6.290   5.213 -0.7141  2.2751 -0.6161
 8439TIP3   OH246731   5.995   1.052  10.644  0.0975  0.7523  0.4633
 8439TIP3    H146732   5.955   1.082  10.726 -0.0653  1.6391  0.0682
 8439TIP3    H246733   5.951   0.970  10.625 -0.9080  1.2625  0.5109
 8440TIP3   OH246734   4.687   5.798  15.061  0.1167 -0.0690  0.7400
 8440TIP3    H146735   4.741   5.734  15.015  0.4305  0.0559  0.9341
 8440TIP3    H246736   4.686   5.769  15.152  0.3997  0.2957  0.8611
 8441TIP3   OH246737   2.396   4.620  15.163 -0.5285 -0.4028 -0.2947
 8441TIP3    H146738   2.417   4.675  15.088 -0.1252 -1.0488 -0.6645
 8441TIP3    H246739   2.322   4.566  15.133  0.4327 -1.5461 -0.6805
 8442TIP3   OH246740   3.934   6.285   4.662 -0.0591 -0.4149 -0.3469
 8442TIP3    H146741   3.984   6.278   4.743  3.0494 -1.7449 -2.2302
 8442TIP3    H246742   3.968   6.364   4.620  0.5596 -1.3763 -1.6993
 8443TIP3   OH246743   4.888   3.734   2.711 -0.4541  0.5072  0.1104
 8443TIP3    H146744   4.881   3.711   2.804 -0.8482 -2.8613 -0.6223
 8443TIP3    H246745   4.982   3.747   2.697 -0.3673  0.8368  0.9388
 8444TIP3   OH246746   0.211   6.418  16.411  0.6806 -0.2512  0.5296
 8444TIP3    H146747   0.143   6.389  16.349  1.0084  0.0695  0.0176
 8444TIP3    H246748   0.293   6.403  16.365  0.8517  2.8691 -0.3971
 8445TIP3   OH246749   5.678   0.187  16.507  0.1508 -0.2234 -0.3369
 8445TIP3    H146750   5.689   0.139  16.425 -0.0006  2.0078 -1.7466
 8445TIP3    H246751   5.634   0.268  16.481  0.6230  0.8017  1.8872
 8446TIP3   OH246752   2.805   0.686   0.347 -0.1148 -0.4065 -0.2032
 8446TIP3    H146753   2.832   0.642   0.428  2.7586 -0.0195 -0.8423
 8446TIP3    H246754   2.785   0.776   0.374 -2.6330 -1.0871  0.5392
 8447TIP3   OH246755   3.720   4.521   0.246  0.0807 -0.1097 -0.3695
 8447TIP3    H146756   3.752   4.592   0.303  1.8762 -0.4642 -0.8718
 8447TIP3    H246757   3.685   4.566   0.169  0.5288  0.2664 -0.3607
 8448TIP3   OH246758   2.496   0.180   1.130 -0.1484 -0.4661 -0.5317
 8448TIP3    H146759   2.456   0.181   1.217 -1.6983  1.2925 -1.1837
 8448TIP3    H246760   2.565   0.246   1.135  0.9511 -1.6109 -0.1710
 8449TIP3   OH246761   3.858   6.215   2.957  0.2349  0.0599 -0.1603
 8449TIP3    H146762   3.823   6.182   3.040 -3.8514  1.6275 -1.0450
 8449TIP3    H246763   3.823   6.155   2.891  1.1750  0.4084 -0.9939
 8450TIP3   OH246764   0.313   3.242   5.319 -0.1608  0.3101  0.9035
 8450TIP3    H146765   0.343   3.245   5.410  0.6275 -0.6130  0.6960
 8450TIP3    H246766   0.392   3.261   5.267 -0.2718 -0.5449  0.3919
 8451TIP3   OH246767   1.078   2.199  12.065 -0.4967 -0.3479 -0.6353
 8451TIP3    H146768   1.029   2.280  12.076 -1.6014 -1.2473  2.0205
 8451TIP3    H246769   1.019   2.131  12.097  1.5146 -1.8042  0.1923
 8452TIP3   OH246770   2.348   6.515  15.346  0.2644 -0.5124 -0.0704
 8452TIP3    H146771   2.389   6.430  15.332  1.8449  0.0137  1.1081
 8452TIP3    H246772   2.387   6.572  15.280  0.6054 -0.2739  0.3325
 8453TIP3   OH246773   1.161   0.694  13.791  0.2205  0.3367 -0.4842
 8453TIP3    H146774   1.173   0.680  13.697 -2.0243  1.6058 -1.0346
 8453TIP3    H246775   1.218   0.629  13.832  0.4631 -0.9827 -2.7148
 8454TIP3   OH246776   3.826   0.283  10.600  0.0208  0.4257  0.2116
 8454TIP3    H146777   3.921   0.294  10.597  0.0534 -0.0638 -0.9193
 8454TIP3    H246778   3.798   0.291  10.509 -0.6414 -2.5447  0.0603
 8455TIP3   OH246779   4.615   4.587  12.213  0.6513  0.3583 -0.2829
 8455TIP3    H146780   4.698   4.590  12.166  1.4252  1.5587  1.0905
 8455TIP3    H246781   4.627   4.519  12.278  0.4853  0.3935 -0.2155
 8456TIP3   OH246782   2.768   3.832  16.597 -0.1719  0.2127  0.1176
 8456TIP3    H146783   2.731   3.918  16.578  0.9441  0.6467 -0.1823
 8456TIP3    H246784   2.715   3.798  16.669 -0.6536  1.1300  0.2102
 8457TIP3   OH246785   3.867   2.221  13.711  0.0192 -0.4597  0.6604
 8457TIP3    H146786   3.908   2.205  13.626 -0.0526  1.1885  0.2802
 8457TIP3    H246787   3.935   2.265  13.762 -0.7597  0.9678  0.5237
 8458TIP3   OH246788   3.151   5.182   2.151  0.5527  0.0368  0.1027
 8458TIP3    H146789   3.133   5.140   2.236  0.9452  1.4809  0.9283
 8458TIP3    H246790   3.075   5.238   2.135  0.0527 -0.9086 -0.9737
 8459TIP3   OH246791   1.932   3.805   4.863 -0.3633  0.0214 -0.3919
 8459TIP3    H146792   2.003   3.742   4.874 -0.5282 -0.9488 -3.6073
 8459TIP3    H246793   1.970   3.889   4.889  1.6896 -0.6301 -1.0670
 8460TIP3   OH246794   4.826   5.163  10.720 -0.3872  0.0506 -0.4376
 8460TIP3    H146795   4.796   5.235  10.775 -0.2164  0.0075 -0.2895
 8460TIP3    H246796   4.826   5.087  10.778 -0.6311 -0.0827 -0.6106
 8461TIP3   OH246797   1.461   4.423  12.295 -0.8038 -0.4769 -0.3504
 8461TIP3    H146798   1.521   4.495  12.277 -0.8939 -0.7276 -1.7565
 8461TIP3    H246799   1.376   4.466  12.308 -0.7727 -0.2874 -0.7414
 8462TIP3   OH246800   1.343   0.853  11.669 -0.1932 -0.2987  0.1114
 8462TIP3    H146801   1.377   0.812  11.748  1.8603 -1.4817 -1.2678
 8462TIP3    H246802   1.406   0.922  11.649 -0.4350 -0.2976 -0.7070
 8463TIP3   OH246803   5.579   4.666  13.462  0.4796 -0.2633 -0.0412
 8463TIP3    H146804   5.497   4.638  13.421 -0.2994 -0.8650  1.8331
 8463TIP3    H246805   5.585   4.760  13.442  0.1632 -0.5268 -1.5001
 8464TIP3   OH246806   2.625   6.560   4.942  0.1705  0.0375  0.4668
 8464TIP3    H146807   2.593   6.589   4.856  1.2669  1.6269  0.5484
 8464TIP3    H246808   2.683   6.486   4.922  0.4536  0.4214 -0.1830
 8465TIP3   OH246809   3.565   6.480   4.103  0.5199 -0.4307 -0.1940
 8465TIP3    H146810   3.650   6.462   4.062  1.2899  0.1036  1.1271
 8465TIP3    H246811   3.586   6.519   4.187 -1.0619  1.1256 -0.4700
 8466TIP3   OH246812   3.556   1.358  12.512  0.5756  0.1520  0.1225
 8466TIP3    H146813   3.472   1.352  12.558  0.9415 -1.9803  0.6058
 8466TIP3    H246814   3.612   1.409  12.571 -0.4503  2.0295 -0.4238
 8467TIP3   OH246815   4.011   3.843  14.761  0.0749 -0.2800  0.2142
 8467TIP3    H146816   4.062   3.921  14.739  0.7697 -0.8753 -0.3332
 8467TIP3    H246817   4.044   3.818  14.848  0.6427 -0.5978 -0.0886
 8468TIP3   OH246818   4.943   2.228   0.842  0.1397 -0.2986  0.5645
 8468TIP3    H146819   4.962   2.172   0.768  0.6849  0.2239  0.3014
 8468TIP3    H246820   5.028   2.259   0.873 -0.1882  1.4910 -0.1863
 8469TIP3   OH246821   3.934   5.624   1.807 -0.0219  0.4565 -0.0632
 8469TIP3    H146822   3.919   5.626   1.901  0.3881  0.0497  0.0165
 8469TIP3    H246823   4.009   5.682   1.793  0.2817  0.0702 -0.0618
 8470TIP3   OH246824   4.500   3.444   1.798 -0.1266 -0.9030 -0.7808
 8470TIP3    H146825   4.562   3.384   1.839 -0.0157 -1.0000 -1.0878
 8470TIP3    H246826   4.449   3.389   1.738 -1.4312 -1.0881  0.4558
 8471TIP3   OH246827   3.336   6.157   2.048 -0.8283 -0.8201 -0.0551
 8471TIP3    H146828   3.337   6.185   2.139 -1.3060 -0.2703 -0.2101
 8471TIP3    H246829   3.428   6.145   2.025 -0.7243 -1.3418  0.6075
 8472TIP3   OH246830   0.806   0.190  14.823  0.1800  0.2711  0.2400
 8472TIP3    H146831   0.720   0.207  14.862  0.5582 -0.2724  1.3407
 8472TIP3    H246832   0.792   0.202  14.729 -0.8259  1.3112  0.5013
 8473TIP3   OH246833   0.698   3.171  14.765  0.4520 -0.1904  0.2258
 8473TIP3    H146834   0.754   3.125  14.828  0.1864  0.0382  0.6365
 8473TIP3    H246835   0.688   3.259  14.801 -1.0231 -0.5293  0.7317
 8474TIP3   OH246836   5.001   5.035  13.732  0.5374 -0.0116 -0.2105
 8474TIP3    H146837   4.925   5.025  13.790  1.5484 -0.6951  1.0609
 8474TIP3    H246838   5.039   5.119  13.756  0.0466  0.4519 -1.0296
 8475TIP3   OH246839   6.233   2.025  13.881 -0.0705  0.4183 -0.4556
 8475TIP3    H146840   6.248   2.115  13.908  0.7701  0.2009 -0.1620
 8475TIP3    H246841   6.146   2.004  13.915  1.0272  0.0664  2.4118
 8476TIP3   OH246842   0.336   3.655   3.023  0.2532 -0.0505 -0.0701
 8476TIP3    H146843   0.363   3.615   3.106 -1.8221 -1.8629 -0.1598
 8476TIP3    H246844   0.282   3.730   3.049  1.4289  0.7435  0.1492
 8477TIP3   OH246845   4.305   4.365   4.290  0.0551 -0.0748  0.5032
 8477TIP3    H146846   4.319   4.271   4.274  1.9878  0.0601  1.1579
 8477TIP3    H246847   4.343   4.407   4.213  1.3373  0.2436  1.2958
 8478TIP3   OH246848   5.174   4.553  15.037 -0.4303  0.2035  1.1229
 8478TIP3    H146849   5.267   4.561  15.055  0.4517 -0.8106 -2.1819
 8478TIP3    H246850   5.151   4.633  14.990 -0.8999 -0.1041  0.8129
 8479TIP3   OH246851   1.425   2.158   2.751  0.0353 -0.1470 -0.2105
 8479TIP3    H146852   1.455   2.081   2.702  0.0530 -0.0419 -0.3676
 8479TIP3    H246853   1.391   2.217   2.683 -0.1979 -0.1172 -0.0671
 8480TIP3   OH246854   4.246   5.198   1.775 -0.1890 -0.1506 -0.1777
 8480TIP3    H146855   4.176   5.146   1.815 -1.4805  1.6860  0.0337
 8480TIP3    H246856   4.318   5.194   1.838 -0.7958 -0.4695  0.5064
 8481TIP3   OH246857   4.299   3.179   5.249 -0.4499 -0.2668 -0.1381
 8481TIP3    H146858   4.357   3.108   5.274  1.3065  0.7947 -0.9846
 8481TIP3    H246859   4.332   3.209   5.165 -1.5427  1.1101 -0.1227
 8482TIP3   OH246860   3.000   1.805  14.437  0.0643  0.3270  0.0292
 8482TIP3    H146861   2.982   1.785  14.345  1.2933 -1.9250  0.1943
 8482TIP3    H246862   3.096   1.802  14.443 -0.0199 -0.1890  1.4692
 8483TIP3   OH246863   5.461   2.776  14.250  0.0655 -0.2840  0.0623
 8483TIP3    H146864   5.515   2.708  14.210  0.8088  1.1004 -1.4174
 8483TIP3    H246865   5.410   2.812  14.178 -0.1821  0.8197  0.7599
 8484TIP3   OH246866   1.645   4.047  12.717 -1.0325 -0.1337  0.0165
 8484TIP3    H146867   1.724   4.033  12.769 -0.6308 -1.2725 -0.8592
 8484TIP3    H246868   1.676   4.059  12.628 -1.8415 -0.8244 -0.3791
 8485TIP3   OH246869   6.034   5.929  11.418 -0.7505  0.4673  0.8575
 8485TIP3    H146870   6.093   5.981  11.471 -1.5305  1.8209  0.4291
 8485TIP3    H246871   6.048   5.959  11.328  0.5687 -1.7905  0.2177
 8486TIP3   OH246872   3.798   0.520  13.459  0.3731  0.0312  0.0490
 8486TIP3    H146873   3.797   0.514  13.364  0.6662  0.0246  0.0452
 8486TIP3    H246874   3.785   0.613  13.478  0.4555  0.0529 -0.0018
 8487TIP3   OH246875   6.406   1.373  16.628 -0.2602  0.2258  0.1197
 8487TIP3    H146876   6.378   1.295  16.580  0.8729  2.1595 -4.1901
 8487TIP3    H246877   6.329   1.429  16.629 -0.0678  0.5037 -0.2358
 8488TIP3   OH246878   1.860   3.101  15.725 -0.1803 -0.1665  0.5888
 8488TIP3    H146879   1.903   3.044  15.661 -0.5718  0.3898 -0.1943
 8488TIP3    H246880   1.932   3.142  15.773  0.1026 -1.7931  1.6197
 8489TIP3   OH246881   3.395   6.126  15.341 -0.1333  0.4131  0.3236
 8489TIP3    H146882   3.402   6.064  15.414  1.4086  0.6680  0.4313
 8489TIP3    H246883   3.459   6.096  15.277 -0.4646  1.0118 -0.3066
 8490TIP3   OH246884   0.315   2.816   1.450 -0.4344  0.4322 -0.2251
 8490TIP3    H146885   0.342   2.906   1.432  2.8179  0.0307  1.9201
 8490TIP3    H246886   0.310   2.811   1.545 -1.2656 -1.4970 -0.3223
 8491TIP3   OH246887   6.689   6.725   4.479 -0.0947 -0.0232 -0.9302
 8491TIP3    H146888   6.701   6.724   4.384 -2.3414  2.0649 -1.3457
 8491TIP3    H246889   6.715   6.813   4.506  0.7053 -0.6453  0.4666
 8492TIP3   OH246890   1.136   6.283  14.153 -0.0839  0.0740  0.6796
 8492TIP3    H146891   1.194   6.359  14.166  0.9348 -0.2695 -1.5142
 8492TIP3    H246892   1.074   6.289  14.226  2.0037  1.0881  2.5015
 8493TIP3   OH246893   4.822   0.665   3.254  0.3935  0.1602 -0.1023
 8493TIP3    H146894   4.757   0.600   3.226 -0.2792  0.9124 -0.3130
 8493TIP3    H246895   4.781   0.749   3.235  1.1905  0.6507  0.3299
 8494TIP3   OH246896   4.628   1.727  15.011 -0.1451 -0.5511  0.6124
 8494TIP3    H146897   4.675   1.804  14.981  0.1649 -0.2131  1.9009
 8494TIP3    H246898   4.630   1.733  15.107 -1.4897 -1.3276  0.7177
 8495TIP3   OH246899   6.386   5.439  16.134 -0.7445 -0.9248 -0.1380
 8495TIP3    H146900   6.453   5.494  16.092 -1.0869  0.4271  0.9826
 8495TIP3    H246901   6.436   5.378  16.188 -0.3812 -0.6144 -0.1145
 8496TIP3   OH246902   1.514   1.917  16.878  0.6671  0.7453  0.2405
 8496TIP3    H146903   1.605   1.890  16.889 -0.2118 -2.1552  1.4402
 8496TIP3    H246904   1.470   1.887  16.958 -1.5418  1.1141 -0.7363
 8497TIP3   OH246905   3.941   4.446  16.385  0.0481  0.1494  0.2689
 8497TIP3    H146906   3.846   4.433  16.383  0.2078 -1.3070  0.9371
 8497TIP3    H246907   3.959   4.484  16.471  0.1819 -0.7103  0.6300
 8498TIP3   OH246908   6.482   0.091   2.116  0.0009 -0.1098  0.1949
 8498TIP3    H146909   6.478   0.001   2.148  1.5984 -0.6903 -1.0786
 8498TIP3    H246910   6.549   0.088   2.047  0.4582  2.1593  0.4767
 8499TIP3   OH246911   6.050   4.786   4.951 -0.2514  0.1775  0.0059
 8499TIP3    H146912   6.027   4.868   4.908 -0.2276  0.1838  0.0057
 8499TIP3    H246913   6.062   4.723   4.880  2.6893  0.8817 -0.2213
 8500TIP3   OH246914   5.736   5.925  13.620  0.1218  0.5630 -0.5279
 8500TIP3    H146915   5.729   5.957  13.709  0.6842 -0.2700 -0.1666
 8500TIP3    H246916   5.677   5.849  13.616  2.3608 -1.3413  0.1011
 8501TIP3   OH246917   2.505   1.550  11.147  0.0723  0.2938 -0.1918
 8501TIP3    H146918   2.587   1.561  11.100  0.2401  0.2863  0.0979
 8501TIP3    H246919   2.453   1.492  11.091  0.8715 -0.9942  0.3534
 8502TIP3   OH246920   3.463   0.460  16.593 -0.1518  0.6714  0.2418
 8502TIP3    H146921   3.434   0.415  16.673  1.3156  2.3311  1.8019
 8502TIP3    H246922   3.406   0.426  16.524 -1.5238 -0.7856  1.9959
 8503TIP3   OH246923   3.108   1.200  15.469  0.0156 -0.2979  0.0861
 8503TIP3    H146924   3.148   1.117  15.445 -0.4787 -0.5742  0.1961
 8503TIP3    H246925   3.028   1.205  15.416 -0.7729 -0.6373  1.2069
 8504TIP3   OH246926   0.784   2.182   5.090 -0.6201 -0.4115 -0.9137
 8504TIP3    H146927   0.822   2.241   5.024 -1.1342  1.2179  0.1749
 8504TIP3    H246928   0.734   2.240   5.147 -3.1746 -2.2134 -1.1607
 8505TIP3   OH246929   0.335   1.368  13.792 -0.2852  0.5068  0.6211
 8505TIP3    H146930   0.274   1.300  13.818  0.6110 -1.1715 -1.3659
 8505TIP3    H246931   0.281   1.435  13.750 -0.9820  0.0622  0.8062
 8506TIP3   OH246932   0.726   0.255   3.910  0.0519 -0.8493  0.1951
 8506TIP3    H146933   0.751   0.345   3.933  0.6859 -1.3755  1.6479
 8506TIP3    H246934   0.701   0.261   3.818 -1.8710  1.2125  0.7564
 8507TIP3   OH246935   0.337   3.551   3.873  0.5074 -0.2126  0.1934
 8507TIP3    H146936   0.365   3.469   3.832  0.4461  0.2241 -0.7321
 8507TIP3    H246937   0.327   3.612   3.801 -0.4565  0.3304  0.7744
 8508TIP3   OH246938   6.458   3.291   0.167 -0.3076 -0.5885  0.2377
 8508TIP3    H146939   6.482   3.380   0.190 -2.0571 -0.0523  0.1669
 8508TIP3    H246940   6.510   3.271   0.089 -0.1924  0.5181  0.0240
 8509TIP3   OH246941   3.147   0.387   4.324  0.0967  0.5034 -0.3011
 8509TIP3    H146942   3.186   0.474   4.309  1.2623  0.1869  0.6826
 8509TIP3    H246943   3.102   0.396   4.408  1.8599 -0.3141  0.8004
 8510TIP3   OH246944   5.381   4.757  15.755 -0.5023 -0.4720 -0.2421
 8510TIP3    H146945   5.471   4.723  15.753 -0.0335  0.7232 -1.4776
 8510TIP3    H246946   5.369   4.787  15.846  0.9147  0.6874 -0.3937
 8511TIP3   OH246947   4.896   5.972  14.989 -0.8069  0.1411  0.1103
 8511TIP3    H146948   4.823   5.914  15.011 -0.1664 -0.3027  1.1648
 8511TIP3    H246949   4.973   5.926  15.021 -0.2686  1.5151  0.8903
 8512TIP3   OH246950   3.635   0.581  10.506  0.7292  0.4076  0.1849
 8512TIP3    H146951   3.710   0.567  10.564 -0.6876 -0.6000  1.8866
 8512TIP3    H246952   3.574   0.510  10.529 -0.2162  0.4377 -2.0413
 8513TIP3   OH246953   2.599   5.461   0.622  0.6819 -0.2735 -0.3479
 8513TIP3    H146954   2.611   5.515   0.699 -1.3080 -1.5013  0.9189
 8513TIP3    H246955   2.575   5.522   0.553  0.4130  0.6507  0.5467
 8514TIP3   OH246956   5.636   2.191   4.940 -0.1127  0.6595  0.5571
 8514TIP3    H146957   5.658   2.107   4.899  0.6377  0.3606  1.5365
 8514TIP3    H246958   5.716   2.218   4.985 -0.6156  1.4608  0.9974
 8515TIP3   OH246959   1.811   0.061   4.774  0.2219  0.2786 -0.3848
 8515TIP3    H146960   1.816   0.030   4.865  0.1598  1.2482 -0.0420
 8515TIP3    H246961   1.900   0.048   4.740 -0.1378 -1.6161 -0.7204
 8516TIP3   OH246962   5.696   0.132  13.614 -0.5260 -0.4008  0.8699
 8516TIP3    H146963   5.716   0.089  13.697  0.9341 -0.0282  0.7381
 8516TIP3    H246964   5.638   0.205  13.637 -0.9301 -0.8857  1.4207
 8517TIP3   OH246965   1.708   1.890   2.446  0.2226 -0.0572  0.6795
 8517TIP3    H146966   1.634   1.890   2.385  0.9015  0.2735 -0.1733
 8517TIP3    H246967   1.741   1.800   2.443 -0.2383 -0.2485  1.1909
 8518TIP3   OH246968   3.604   2.796   4.241  0.2338 -0.1974 -0.0208
 8518TIP3    H146969   3.652   2.814   4.322  0.3352  2.4026 -0.5668
 8518TIP3    H246970   3.641   2.714   4.209  1.5160 -0.2983  1.5947
 8519TIP3   OH246971   4.975   5.880  16.693  0.1021 -0.6468 -0.6421
 8519TIP3    H146972   4.957   5.874  16.787 -0.9311 -0.9311 -0.8508
 8519TIP3    H246973   4.911   5.943  16.660  0.3856 -0.6373 -1.1836
 8520TIP3   OH246974   2.395   1.784  16.219 -0.0619 -0.3592 -0.3495
 8520TIP3    H146975   2.423   1.852  16.281 -1.6571 -0.5164  0.6032
 8520TIP3    H246976   2.405   1.825  16.133  0.4456  0.5336  0.1111
 8521TIP3   OH246977   4.035   6.534  15.096 -0.5191  0.0631  0.0833
 8521TIP3    H146978   4.077   6.577  15.021  0.4924 -1.0802 -0.0291
 8521TIP3    H246979   4.061   6.587  15.171 -1.2404  1.0055 -0.2967
 8522TIP3   OH246980   2.655   2.744   6.116 -0.2480 -0.1677  0.1844
 8522TIP3    H146981   2.609   2.803   6.177 -0.5499 -1.4830  1.2872
 8522TIP3    H246982   2.735   2.719   6.162  0.8628  0.8770 -1.0889
 8523TIP3   OH246983   4.424   4.824   2.387  0.2909  0.2885 -0.5284
 8523TIP3    H146984   4.420   4.859   2.299  1.1575  2.1834  0.1353
 8523TIP3    H246985   4.518   4.814   2.405  0.2264  1.5552  0.7408
 8524TIP3   OH246986   2.572   1.228   0.569  0.3083  0.0154  0.1804
 8524TIP3    H146987   2.554   1.302   0.511  2.2414 -0.7355 -1.5114
 8524TIP3    H246988   2.668   1.221   0.570  0.2031 -2.1764  0.6524
 8525TIP3   OH246989   4.859   3.249   3.320  0.1512  0.2665 -0.0312
 8525TIP3    H146990   4.895   3.315   3.261  1.3910 -0.0202  0.3737
 8525TIP3    H246991   4.818   3.185   3.262 -0.7695  1.1922 -0.4463
 8526TIP3   OH246992   3.731   5.258   3.466  0.1771  1.1161  0.4440
 8526TIP3    H146993   3.663   5.258   3.533 -0.2595  3.3013  0.0511
 8526TIP3    H246994   3.787   5.333   3.488  1.1075  0.7541 -0.5769
 8527TIP3   OH246995   0.412   1.213   4.961  0.0733  0.3164  0.3290
 8527TIP3    H146996   0.439   1.295   5.002 -0.6224 -0.6188  2.8104
 8527TIP3    H246997   0.316   1.216   4.963 -0.0783  0.8298 -2.6282
 8528TIP3   OH246998   3.859   1.679   0.715  0.1734  0.2942  0.3973
 8528TIP3    H146999   3.884   1.768   0.690  1.3844 -0.2589 -0.4508
 8528TIP3    H247000   3.773   1.666   0.675 -0.2676  1.2505  0.9853
 8529TIP3   OH247001   3.563   6.090  11.785  0.1925  0.1352  0.0680
 8529TIP3    H147002   3.634   6.137  11.829  1.2771 -0.7157 -0.6948
 8529TIP3    H247003   3.483   6.132  11.816  1.0454  1.4360  0.5982
 8530TIP3   OH247004   4.123   1.252   1.439  0.1208  0.1622 -0.6192
 8530TIP3    H147005   4.180   1.245   1.362  0.9524  0.5555 -0.0596
 8530TIP3    H247006   4.057   1.317   1.415  1.2986  1.4538 -0.4767
 8531TIP3   OH247007   3.017   1.065   2.333 -0.0526 -0.5422  0.1232
 8531TIP3    H147008   3.054   1.140   2.380  0.4960 -1.4423  1.1986
 8531TIP3    H247009   2.987   1.100   2.249 -0.4595  1.0093  0.8828
 8532TIP3   OH247010   2.616   0.652   1.750 -0.0612 -0.8102  0.2537
 8532TIP3    H147011   2.630   0.745   1.768 -0.7417 -0.7655  0.5983
 8532TIP3    H247012   2.529   0.633   1.787 -0.3247 -1.3643 -0.6126
 8533TIP3   OH247013   1.683   2.806  16.171 -0.5653 -0.0539 -0.0643
 8533TIP3    H147014   1.626   2.732  16.193  1.3958 -2.0245 -1.2750
 8533TIP3    H247015   1.728   2.825  16.253  0.1394 -1.3550 -0.1250
 8534TIP3   OH247016   1.239   2.373  13.994 -0.0197  0.4755 -0.0810
 8534TIP3    H147017   1.150   2.344  13.973 -0.0245 -0.2714  0.8870
 8534TIP3    H247018   1.278   2.298  14.038  1.6098  0.2440 -1.8039
 8535TIP3   OH247019   0.442   3.717  11.353  0.4925  0.0693  0.0487
 8535TIP3    H147020   0.484   3.745  11.434  3.4108 -0.8445 -1.0337
 8535TIP3    H247021   0.448   3.793  11.296  1.7129 -0.3839 -0.4541
 8536TIP3   OH247022   5.619   5.629   2.067 -0.4784  0.3521 -0.1499
 8536TIP3    H147023   5.668   5.634   2.150  0.5545 -1.8853 -0.5344
 8536TIP3    H247024   5.647   5.706   2.018  0.5802  0.5617  0.7404
 8537TIP3   OH247025   1.485   0.004  12.326  0.0576 -0.0323  0.5763
 8537TIP3    H147026   1.461  -0.049  12.402 -1.2247  0.1892  0.3528
 8537TIP3    H247027   1.436   0.086  12.338  1.0784  0.6338  0.3115
 8538TIP3   OH247028   5.142   4.334  13.973 -0.3204  0.2736  0.5956
 8538TIP3    H147029   5.179   4.397  13.911 -0.9363 -0.2688 -0.3566
 8538TIP3    H247030   5.059   4.307  13.932 -2.0701  1.8246  2.8766
 8539TIP3   OH247031   5.755   1.745  16.817 -0.1111  0.2572  0.0645
 8539TIP3    H147032   5.812   1.699  16.756  1.9817  2.4097  0.2363
 8539TIP3    H247033   5.667   1.730  16.783  0.5802 -2.2985 -0.8484
 8540TIP3   OH247034   3.639   2.398  14.521  0.4248  0.1447  0.1259
 8540TIP3    H147035   3.608   2.360  14.603 -0.7877 -1.8878 -1.2030
 8540TIP3    H247036   3.560   2.428  14.476  0.4575 -2.6289 -2.0962
 8541TIP3   OH247037   5.363   3.676   3.419  0.4321 -0.1218  0.1312
 8541TIP3    H147038   5.388   3.652   3.330 -1.0495  0.8712 -0.5889
 8541TIP3    H247039   5.350   3.771   3.415  2.6689  0.3496  2.0086
 8542TIP3   OH247040   1.936   6.423  16.673  0.6230  0.1888  0.0072
 8542TIP3    H147041   1.918   6.373  16.752  0.2417  0.2431 -0.0421
 8542TIP3    H247042   1.918   6.362  16.601  2.4301 -0.3438 -0.0334
 8543TIP3   OH247043   4.842   0.520   1.545  0.1057 -0.3669 -0.1671
 8543TIP3    H147044   4.836   0.428   1.518 -0.1394 -0.4720  0.2287
 8543TIP3    H247045   4.920   0.553   1.501 -0.3770 -0.4820 -1.1262
 8544TIP3   OH247046   6.461   4.282   4.485  0.4133 -0.1000 -0.5825
 8544TIP3    H147047   6.445   4.325   4.569  0.2725  0.0694 -0.6942
 8544TIP3    H247048   6.509   4.347   4.434 -0.8458  0.4024 -1.1810
 8545TIP3   OH247049   3.404   4.244   6.849  0.5075 -0.9496  0.1367
 8545TIP3    H147050   3.373   4.159   6.815  0.3634 -0.9910  0.3704
 8545TIP3    H247051   3.488   4.257   6.806  0.1394 -0.8089 -0.5516
 8546TIP3   OH247052   4.693   2.609   5.192  0.0826  0.6270  0.3286
 8546TIP3    H147053   4.767   2.653   5.234 -0.9630  1.8882  0.9510
 8546TIP3    H247054   4.631   2.680   5.174 -0.0906 -0.0580 -2.1819
 8547TIP3   OH247055   4.626   5.963  13.788 -0.3286 -0.3178  0.1268
 8547TIP3    H147056   4.535   5.990  13.803 -1.1992 -0.9486 -3.1908
 8547TIP3    H247057   4.625   5.869  13.804  0.3151 -0.0245  2.1206
 8548TIP3   OH247058   0.256   6.751   1.416 -0.3460 -0.3057  0.0101
 8548TIP3    H147059   0.188   6.813   1.390  0.2946  0.7428  0.7676
 8548TIP3    H247060   0.234   6.728   1.506 -0.1953 -0.6635 -0.0413
 8549TIP3   OH247061   4.622   5.402   4.581 -0.1526 -0.5772  1.0969
 8549TIP3    H147062   4.565   5.472   4.551 -0.4219 -1.3990 -0.3721
 8549TIP3    H247063   4.563   5.331   4.607  0.1316 -1.7255 -1.1594
 8550TIP3   OH247064   2.527   1.504  17.037  0.4745 -0.2926  0.4334
 8550TIP3    H147065   2.523   1.470  17.126  0.8716 -2.6496 -0.3722
 8550TIP3    H247066   2.480   1.440  16.984 -1.2791  1.9031 -0.8977
 8551TIP3   OH247067   2.510   2.777   2.634  0.5057 -0.1160  0.0477
 8551TIP3    H147068   2.515   2.847   2.568  0.8489  0.3069  0.5159
 8551TIP3    H247069   2.417   2.755   2.639 -0.0041  2.1042  1.7541
 8552TIP3   OH247070   0.020   4.943   2.429 -0.6057 -0.2440 -0.3770
 8552TIP3    H147071   0.021   4.932   2.334 -1.1623 -0.4074 -0.3703
 8552TIP3    H247072   0.012   4.855   2.464  0.5465 -0.2726 -0.1370
 8553TIP3   OH247073   5.962   0.224  16.296 -0.3236  0.5234  0.1444
 8553TIP3    H147074   5.990   0.312  16.324 -1.6199  1.0823 -0.2614
 8553TIP3    H247075   5.971   0.170  16.375 -1.2540  1.4477  0.9175
 8554TIP3   OH247076   0.882   6.167  16.644  0.6124 -0.2923 -0.0410
 8554TIP3    H147077   0.836   6.091  16.680 -2.1559  1.5778  0.7700
 8554TIP3    H247078   0.832   6.191  16.566  0.0387  1.8658  0.9012
 8555TIP3   OH247079   4.930   4.243  14.903 -0.1727  0.2806  0.3714
 8555TIP3    H147080   5.023   4.230  14.924 -0.0573 -0.5975 -0.5853
 8555TIP3    H247081   4.884   4.179  14.957 -0.1728  0.3451  0.4481
 8556TIP3   OH247082   4.051   0.647   1.104 -0.0396  0.0193  0.4016
 8556TIP3    H147083   4.010   0.640   1.190 -0.8996 -1.3793 -0.0916
 8556TIP3    H247084   4.101   0.566   1.095 -0.4257 -0.1205 -0.6351
 8557TIP3   OH247085   5.002   0.660   0.665  0.0033  0.2010 -0.0943
 8557TIP3    H147086   4.963   0.747   0.673 -0.6762 -0.1463  0.4703
 8557TIP3    H247087   4.931   0.604   0.632  0.3376 -0.2122 -0.1298
 8558TIP3   OH247088   6.306   3.219  12.385 -0.6158 -0.4569  0.3705
 8558TIP3    H147089   6.303   3.186  12.296  0.1200  0.7407 -0.1133
 8558TIP3    H247090   6.385   3.180  12.423  1.5221  2.3506 -0.9027
 8559TIP3   OH247091   4.915   2.578  14.394 -0.1050 -0.4195 -0.4094
 8559TIP3    H147092   4.822   2.573  14.372 -0.1480 -3.0449 -0.0032
 8559TIP3    H247093   4.920   2.639  14.467 -1.4007  0.2485 -0.8543
 8560TIP3   OH247094   1.800   5.425  12.827  0.0152  0.8038 -0.3106
 8560TIP3    H147095   1.890   5.422  12.861 -0.1759  2.3868  0.4059
 8560TIP3    H247096   1.774   5.516  12.836 -2.1185  0.1622  0.6917
 8561TIP3   OH247097   4.610   4.054  14.493 -0.1805  0.0568 -0.1342
 8561TIP3    H147098   4.531   4.081  14.447 -0.4203 -0.2878  0.0776
 8561TIP3    H247099   4.665   4.013  14.426  0.3833  1.4317 -0.5675
 8562TIP3   OH247100   3.729   5.321  11.953 -0.1055 -0.3613  0.4660
 8562TIP3    H147101   3.806   5.377  11.949  0.6219 -1.2205  1.6040
 8562TIP3    H247102   3.741   5.258  11.882 -0.0036 -0.2012  0.3424
 8563TIP3   OH247103   1.598   3.710   6.081  0.5675  0.3671  0.1769
 8563TIP3    H147104   1.626   3.780   6.022  0.7095  0.2421  0.0944
 8563TIP3    H247105   1.585   3.634   6.023 -1.6615  0.8695 -0.0606
 8564TIP3   OH247106   2.240   3.548   4.183 -0.3482 -0.4292  0.6166
 8564TIP3    H147107   2.160   3.496   4.191 -0.7591 -0.2391 -1.5776
 8564TIP3    H247108   2.279   3.520   4.100  0.7860  0.9370  0.6444
 8565TIP3   OH247109   2.837   4.138  11.548  0.0737  0.1170  0.4136
 8565TIP3    H147110   2.744   4.136  11.571 -0.3667 -3.7909 -0.9546
 8565TIP3    H247111   2.837   4.155  11.454  0.6787 -0.4742  0.3035
 8566TIP3   OH247112   5.648   6.405   3.315 -0.0471 -0.0776  0.1709
 8566TIP3    H147113   5.698   6.383   3.237  1.2328  2.4704  0.1788
 8566TIP3    H247114   5.602   6.486   3.293 -2.9620 -1.4358  0.7530
 8567TIP3   OH247115   6.435   3.858  12.840  0.2281  0.0279 -0.6430
 8567TIP3    H147116   6.409   3.782  12.789 -1.3734 -0.1780  0.4134
 8567TIP3    H247117   6.502   3.902  12.787 -0.4225 -0.8899 -2.2682
 8568TIP3   OH247118   4.071   6.703  15.307  0.1115  0.3946  0.3215
 8568TIP3    H147119   4.048   6.796  15.296 -0.4685  0.5321  2.2350
 8568TIP3    H247120   3.996   6.666  15.353 -0.0190 -1.2516 -1.1249
 8569TIP3   OH247121   1.295   4.007   3.940  0.3368  0.2735 -0.2067
 8569TIP3    H147122   1.331   3.949   3.872  0.2888 -0.3087  0.2643
 8569TIP3    H247123   1.210   4.034   3.906 -0.3550 -1.2175  0.2827
 8570TIP3   OH247124   3.428   6.678   5.378 -0.1807  0.6138 -0.5217
 8570TIP3    H147125   3.463   6.712   5.459  0.2246  1.6623 -1.1254
 8570TIP3    H247126   3.465   6.734   5.310  0.5516 -1.0471 -1.5563
 8571TIP3   OH247127   5.181   2.989  15.482  0.2904 -0.6896 -0.2613
 8571TIP3    H147128   5.250   3.043  15.445 -1.2935  0.4565 -1.7150
 8571TIP3    H247129   5.111   2.990  15.416 -0.9455 -2.1442  0.9409
 8572TIP3   OH247130   5.326   4.102  12.386  0.3548  0.5110  0.1634
 8572TIP3    H147131   5.415   4.101  12.351 -0.1779  0.1009 -1.2738
 8572TIP3    H247132   5.286   4.181  12.349  0.1085  0.6891  0.7922
 8573TIP3   OH247133   0.184   2.873  11.135  0.6198  0.1492 -0.1040
 8573TIP3    H147134   0.248   2.821  11.184 -1.1246 -1.3871  0.6283
 8573TIP3    H247135   0.233   2.951  11.108  2.0308  0.5197  3.0344
 8574TIP3   OH247136   1.099   6.133  15.969 -0.2329 -0.1832  0.4529
 8574TIP3    H147137   1.071   6.216  16.009  1.0348  0.1590  0.6720
 8574TIP3    H247138   1.065   6.137  15.879 -1.2885 -0.0134  0.8479
 8575TIP3   OH247139   1.710   3.037  11.279 -0.3919 -0.0273  0.3530
 8575TIP3    H147140   1.762   3.090  11.340 -1.2666  0.7254  0.4702
 8575TIP3    H247141   1.771   3.011  11.210 -0.0502  1.6091  0.0096
 8576TIP3   OH247142   2.231   4.985   2.291  0.5482  0.1212  0.1607
 8576TIP3    H147143   2.223   4.889   2.287 -0.9190  0.1912  0.6902
 8576TIP3    H247144   2.210   5.014   2.202  1.4845 -0.0564 -0.1317
 8577TIP3   OH247145   1.625   5.080   6.600 -0.0679  0.0998  0.0572
 8577TIP3    H147146   1.716   5.072   6.629 -0.4563 -1.2361  1.0385
 8577TIP3    H247147   1.624   5.041   6.513 -0.2944 -3.3619  1.4361
 8578TIP3   OH247148   3.095   5.047   4.015  0.4309 -0.2127 -0.0829
 8578TIP3    H147149   3.112   5.083   3.928 -2.8460  0.1873 -0.7046
 8578TIP3    H247150   3.159   5.089   4.072  1.8257  0.4953 -2.0722
 8579TIP3   OH247151   0.639   0.988   3.887 -0.7944 -0.2859 -0.1160
 8579TIP3    H147152   0.648   0.893   3.879 -1.8990 -0.6601  2.2209
 8579TIP3    H247153   0.631   1.019   3.797  0.2195 -2.3113 -0.9768
 8580TIP3   OH247154   0.309   1.628   6.258  0.2305  0.0355 -0.0088
 8580TIP3    H147155   0.377   1.574   6.217  0.3231  1.0820 -1.2972
 8580TIP3    H247156   0.270   1.571   6.325  3.1555 -0.2298  1.6347
 8581TIP3   OH247157   0.923   4.433   5.785  0.1367 -0.4029 -0.0491
 8581TIP3    H147158   0.911   4.405   5.876 -0.0062 -0.0761  0.0333
 8581TIP3    H247159   0.985   4.506   5.790  1.8608 -1.7719 -0.4223
 8582TIP3   OH247160   1.601   4.553   4.194  0.1161 -0.3346  0.2347
 8582TIP3    H147161   1.607   4.476   4.138 -0.9673  0.7216 -1.4104
 8582TIP3    H247162   1.510   4.582   4.185  1.0360  2.4951 -1.0967
 8583TIP3   OH247163   6.200   2.941   4.074  0.0917  0.1381  0.1622
 8583TIP3    H147164   6.246   2.858   4.059  0.0986  0.4836 -2.0471
 8583TIP3    H247165   6.233   2.972   4.158  2.1149 -0.8062 -0.2182
 8584TIP3   OH247166   0.023   6.339  15.705  0.4517  0.3249  0.5862
 8584TIP3    H147167   0.059   6.298  15.784 -0.6413  0.3572  1.1181
 8584TIP3    H247168  -0.058   6.291  15.688 -0.7973  2.1181  1.1400
 8585TIP3   OH247169   4.490   0.048   4.519  1.0795 -0.4300 -0.0328
 8585TIP3    H147170   4.495   0.091   4.604  0.2808 -1.2908  0.4664
 8585TIP3    H247171   4.477   0.120   4.457  3.3020  0.3724  0.3360
 8586TIP3   OH247172   1.137   3.297  11.386 -1.0655 -0.0427 -0.0976
 8586TIP3    H147173   1.098   3.348  11.457 -1.2622 -0.3243 -0.0004
 8586TIP3    H247174   1.083   3.316  11.309  0.3498  1.8762 -0.6988
 8587TIP3   OH247175   2.423   3.618   0.224  0.2005  0.2548 -0.6747
 8587TIP3    H147176   2.355   3.551   0.221  0.2644 -0.0967  2.3010
 8587TIP3    H247177   2.505   3.569   0.214  0.1733  0.0186  0.1245
 8588TIP3   OH247178   3.340   6.671  11.820 -0.3836  0.3933 -0.1144
 8588TIP3    H147179   3.318   6.602  11.882 -0.6109  0.7250  0.1849
 8588TIP3    H247180   3.433   6.657  11.800 -0.6267 -0.4733 -0.6860
 8589TIP3   OH247181   5.118   5.114  13.115 -0.1536  0.0425  0.4881
 8589TIP3    H147182   5.209   5.111  13.087  0.1734  0.9273  1.3826
 8589TIP3    H247183   5.095   5.207  13.110 -1.7201 -0.3859 -1.8380
 8590TIP3   OH247184   2.446   6.786  12.035 -0.0055  0.1800  0.1009
 8590TIP3    H147185   2.527   6.807  12.081  0.4393 -1.0051 -0.1158
 8590TIP3    H247186   2.399   6.869  12.030  1.5279  1.0489 -0.4576
 8591TIP3   OH247187   1.334   3.057  16.923 -0.2142 -0.2120  0.8963
 8591TIP3    H147188   1.409   3.112  16.947 -0.2624  0.2950 -0.0387
 8591TIP3    H247189   1.357   3.023  16.836  0.6232 -3.1586  2.1555
 8592TIP3   OH247190   6.431   6.667  16.818  0.3433  0.5716  0.1467
 8592TIP3    H147191   6.484   6.589  16.802 -0.3388  0.2407 -0.5489
 8592TIP3    H247192   6.487   6.740  16.791 -0.3290  0.1099 -2.8428
 8593TIP3   OH247193   3.948   3.972   4.513 -0.4230  0.2106 -0.8156
 8593TIP3    H147194   3.860   3.943   4.491 -0.4366  0.3304 -0.9195
 8593TIP3    H247195   3.993   3.980   4.429 -0.0382 -0.7106 -0.7076
 8594TIP3   OH247196   3.452   4.911   2.499 -0.1299 -0.2090 -0.2017
 8594TIP3    H147197   3.486   4.872   2.580  1.1083  1.3486  0.0844
 8594TIP3    H247198   3.381   4.968   2.529  0.2545  0.2805 -0.2044
 8595TIP3   OH247199   2.957   3.038  13.922 -0.4300 -0.5025 -0.5492
 8595TIP3    H147200   2.954   2.968  13.858  0.4979  0.0997 -1.2788
 8595TIP3    H247201   2.948   3.119  13.871 -0.1994 -0.0336  0.1300
 8596TIP3   OH247202   3.778   2.676  12.245 -0.0613 -0.0564  0.1851
 8596TIP3    H147203   3.754   2.590  12.212  1.9494 -0.7134  0.2900
 8596TIP3    H247204   3.852   2.660  12.303 -0.4665  1.6191  1.2439
 8597TIP3   OH247205   2.595   6.374  14.021  0.3095  0.1792 -0.4217
 8597TIP3    H147206   2.523   6.382  14.083  1.2170  0.9070  0.5937
 8597TIP3    H247207   2.673   6.397  14.073  0.9843  2.0247 -2.1226
 8598TIP3   OH247208   2.358   0.055  10.532  0.3659  0.2430  0.1438
 8598TIP3    H147209   2.413  -0.014  10.494  0.6660  0.9314 -0.6830
 8598TIP3    H247210   2.411   0.134  10.526 -1.0438  1.1079 -1.5104
 8599TIP3   OH247211   6.277   1.233  13.387  0.0338 -0.3880  0.0852
 8599TIP3    H147212   6.325   1.150  13.387 -0.7252 -0.8961  1.9939
 8599TIP3    H247213   6.340   1.297  13.420  0.7477 -0.0758 -1.7768
 8600TIP3   OH247214   5.548   1.026   1.033 -0.2476  0.0367  0.1716
 8600TIP3    H147215   5.617   1.045   0.970 -1.0279  2.3802 -0.0817
 8600TIP3    H247216   5.575   0.944   1.074  1.5891 -0.2066 -1.3796
 8601TIP3   OH247217   2.391   4.419  14.780  0.0912  0.2163 -0.2471
 8601TIP3    H147218   2.316   4.365  14.755  1.1312 -1.8150  0.7310
 8601TIP3    H247219   2.439   4.433  14.698 -1.0686  1.1344 -0.7979
 8602TIP3   OH247220   0.076   5.858  14.891  0.4027 -0.4174  0.0047
 8602TIP3    H147221   0.089   5.803  14.814 -0.8323 -0.9285  0.1397
 8602TIP3    H247222  -0.015   5.843  14.916  0.3821  0.8007  0.7432
 8603TIP3   OH247223   6.635   1.532   3.567 -0.0394  0.1947 -0.5484
 8603TIP3    H147224   6.712   1.496   3.611  0.1886  1.7873  0.4585
 8603TIP3    H247225   6.636   1.625   3.590  0.0418  1.1397 -3.8995
 8604TIP3   OH247226   2.023   0.208  10.939 -0.1682 -0.0015  0.4510
 8604TIP3    H147227   2.051   0.125  10.978 -1.0810  0.7466  2.8828
 8604TIP3    H247228   2.072   0.275  10.988  0.1052  0.9548 -1.0643
 8605TIP3   OH247229   3.723   1.217  14.895  0.2475 -0.7238  0.4681
 8605TIP3    H147230   3.697   1.180  14.979 -1.1550 -0.6373  0.1052
 8605TIP3    H247231   3.718   1.143  14.834 -0.6059 -0.3978  0.1201
 8606TIP3   OH247232   6.490   2.807   2.155  1.0274  0.0429 -0.5511
 8606TIP3    H147233   6.497   2.736   2.092  0.3254 -0.7564  0.2500
 8606TIP3    H247234   6.564   2.794   2.214  0.2839 -0.6906  0.2421
 8607TIP3   OH247235   0.048   6.113   6.172  0.3946 -0.4175 -0.2183
 8607TIP3    H147236   0.116   6.094   6.237  1.2577 -1.1796 -1.3102
 8607TIP3    H247237   0.051   6.040   6.111  1.4139  1.4486 -2.5875
 8608TIP3   OH247238   3.493   2.722   1.275 -0.6819 -0.0876  0.0121
 8608TIP3    H147239   3.531   2.701   1.190  0.7357 -0.8623  0.7978
 8608TIP3    H247240   3.543   2.799   1.305 -0.0521 -0.7832  0.8125
 8609TIP3   OH247241   5.823   0.255   2.107  0.5865 -0.0766  0.0441
 8609TIP3    H147242   5.890   0.322   2.116  1.1270 -0.5970 -0.0417
 8609TIP3    H247243   5.803   0.229   2.197  0.1263  0.4422  0.0920
 8610TIP3   OH247244   6.204   4.248   2.708  0.2829 -0.1403  0.0004
 8610TIP3    H147245   6.180   4.310   2.638  3.4940  0.3670 -0.8351
 8610TIP3    H247246   6.169   4.164   2.679 -2.4997  0.8588  0.1944
 8611TIP3   OH247247   6.454   4.515   1.697  0.2964 -0.5571  0.0743
 8611TIP3    H147248   6.419   4.534   1.784  2.5559  0.2922  0.8868
 8611TIP3    H247249   6.531   4.460   1.714  1.6249  0.7910 -1.2209
 8612TIP3   OH247250   4.105   2.400  14.517 -0.7292  0.0176  0.1707
 8612TIP3    H147251   4.153   2.320  14.499 -0.1737  0.6444 -1.2953
 8612TIP3    H247252   4.026   2.394  14.463 -0.7181  0.4225  0.1053
 8613TIP3   OH247253   3.419   0.963  14.872  0.3964  0.0958 -0.3159
 8613TIP3    H147254   3.326   0.947  14.882  0.3761  0.0670 -0.5573
 8613TIP3    H247255   3.449   0.897  14.810  0.4859  0.4087 -0.6084
 8614TIP3   OH247256   6.697   4.714  11.144  0.1244  0.3470  0.5041
 8614TIP3    H147257   6.711   4.639  11.086  0.1872 -0.7499  1.8895
 8614TIP3    H247258   6.755   4.782  11.109  1.5683 -0.8981  0.3661
 8615TIP3   OH247259   0.599   5.552   1.631 -0.3372  0.3443 -0.3753
 8615TIP3    H147260   0.611   5.542   1.725  0.6186  0.1588 -0.5128
 8615TIP3    H247261   0.665   5.496   1.591 -1.5145 -0.5153 -1.1745
 8616TIP3   OH247262   2.103   2.836  14.133  0.0365  0.4366  0.3475
 8616TIP3    H147263   2.098   2.835  14.229 -1.0413 -1.9836  0.3348
 8616TIP3    H247264   2.176   2.777  14.113 -1.2975 -1.0663 -0.3073
 8617TIP3   OH247265   1.352   3.734   5.451 -0.0935  0.3278 -0.5436
 8617TIP3    H147266   1.335   3.653   5.497  2.3353 -0.6589 -1.2194
 8617TIP3    H247267   1.275   3.789   5.468 -0.4804 -0.9649  2.3892
 8618TIP3   OH247268   5.509   5.990   4.410  0.0015 -0.2052 -0.6933
 8618TIP3    H147269   5.549   6.034   4.486 -0.0045 -0.3358 -0.6145
 8618TIP3    H247270   5.552   5.904   4.407 -2.9824 -1.9915  1.7622
 8619TIP3   OH247271   1.417   6.268  14.936  0.0739 -1.0137  0.4101
 8619TIP3    H147272   1.420   6.211  14.860 -1.9669  1.4020 -1.6481
 8619TIP3    H247273   1.324   6.284  14.951  0.5192  0.9475  1.5019
 8620TIP3   OH247274   4.818   3.748   1.923 -0.6530  0.0997  0.4420
 8620TIP3    H147275   4.812   3.714   1.833  0.5424  1.0254 -0.0223
 8620TIP3    H247276   4.836   3.670   1.976  1.3705 -0.1455 -0.5070
 8621TIP3   OH247277   1.451   0.738  13.727 -0.3449 -0.3361  0.5389
 8621TIP3    H147278   1.533   0.697  13.701 -0.5042  0.3160 -1.0968
 8621TIP3    H247279   1.383   0.676  13.702 -0.4511 -0.0873  0.2037
 8622TIP3   OH247280   4.967   0.337  15.555  0.1858  0.0056  0.4952
 8622TIP3    H147281   5.046   0.320  15.605  0.3808 -0.8304 -0.0818
 8622TIP3    H247282   4.993   0.402  15.490  0.8253 -1.3384 -0.6635
 8623TIP3   OH247283   6.373   6.054   3.415  0.5694 -0.3332 -0.1059
 8623TIP3    H147284   6.458   6.083   3.381  1.6785 -2.6586  0.4881
 8623TIP3    H247285   6.315   6.053   3.339  0.7991  2.0437 -0.3835
 8624TIP3   OH247286   4.361   5.252  13.981  0.5511  0.8250 -0.3894
 8624TIP3    H147287   4.356   5.336  14.026 -1.5885  1.3336 -1.4600
 8624TIP3    H247288   4.330   5.270  13.892  1.3463 -0.8356 -1.0504
 8625TIP3   OH247289   6.231   4.510  12.687 -0.0585  0.1802  0.2853
 8625TIP3    H147290   6.287   4.535  12.759  0.4927  0.5866 -0.2785
 8625TIP3    H247291   6.145   4.547  12.708 -0.2996 -0.9479  1.4407
 8626TIP3   OH247292   3.710   1.967   0.840  0.2236  0.2481 -0.5051
 8626TIP3    H147293   3.787   2.002   0.885 -0.2719  1.8675 -0.8432
 8626TIP3    H247294   3.662   1.920   0.908  1.7130 -1.2028 -0.3887
 8627TIP3   OH247295   2.346   6.028  15.187 -0.2436 -0.0576 -0.4571
 8627TIP3    H147296   2.360   6.107  15.134 -3.2881  0.5033 -0.6089
 8627TIP3    H247297   2.314   5.963  15.124 -0.0917 -0.6409  0.0652
 8628TIP3   OH247298   1.281   6.372   2.401  0.0445  0.4746  0.1141
 8628TIP3    H147299   1.207   6.432   2.401 -1.2209 -1.0174  0.2502
 8628TIP3    H247300   1.330   6.393   2.322  0.3882  2.5124  0.8061
 8629TIP3   OH247301   2.285   0.807   6.037  0.6578  0.5095  0.1018
 8629TIP3    H147302   2.339   0.735   6.005  0.7115  1.0704 -1.0868
 8629TIP3    H247303   2.319   0.823   6.126  1.3035 -0.2628  0.0136
 8630TIP3   OH247304   1.542   2.054   4.179 -0.0313 -0.2151 -0.2224
 8630TIP3    H147305   1.457   2.093   4.160 -0.2752 -0.3215  0.6268
 8630TIP3    H247306   1.528   1.959   4.169  0.4693 -0.1427 -1.9233
 8631TIP3   OH247307   6.336   1.127  12.066  0.1446 -0.5996  0.9532
 8631TIP3    H147308   6.253   1.097  12.029  1.4024 -2.5143 -0.5487
 8631TIP3    H247309   6.331   1.222  12.064 -0.7399 -0.6138 -2.3195
 8632TIP3   OH247310   2.537   0.305   5.846  0.0157 -0.0743  0.3195
 8632TIP3    H147311   2.623   0.314   5.887  1.0268 -0.1710 -1.6587
 8632TIP3    H247312   2.486   0.253   5.908  1.2941  0.1600  1.6285
 8633TIP3   OH247313   4.343   4.988   4.100  0.0254 -0.5453  0.2021
 8633TIP3    H147314   4.253   5.022   4.102  0.2932  0.3019 -0.9831
 8633TIP3    H247315   4.377   5.005   4.188 -0.5792  0.2659  0.2884
 8634TIP3   OH247316   6.603   6.081   2.173 -0.0391  0.0591 -0.0109
 8634TIP3    H147317   6.531   6.077   2.110 -0.7279 -1.7608  0.8547
 8634TIP3    H247318   6.678   6.044   2.126  0.5558  2.3546 -1.0670
 8635TIP3   OH247319   4.664   4.374  16.835 -0.0961 -0.0742 -0.5176
 8635TIP3    H147320   4.700   4.398  16.921  1.2805 -0.2711 -1.0093
 8635TIP3    H247321   4.701   4.439  16.775 -1.0120  0.0357 -0.9857
 8636TIP3   OH247322   5.636   3.923   1.160  0.0756  0.5444  0.3855
 8636TIP3    H147323   5.726   3.919   1.193 -0.5690  0.4180  2.3147
 8636TIP3    H247324   5.584   3.886   1.232 -1.5123  0.6544 -0.6747
 8637TIP3   OH247325   2.655   2.356  14.313  0.2468  0.2689  0.0506
 8637TIP3    H147326   2.648   2.295  14.239 -0.2272  1.8523 -1.2661
 8637TIP3    H247327   2.742   2.395  14.303  0.1402  0.5587  0.2596
 8638TIP3   OH247328   5.885   0.005   4.400 -0.1586  0.1002 -0.1558
 8638TIP3    H147329   5.974   0.004   4.436 -0.1076 -1.7704 -0.2365
 8638TIP3    H247330   5.895   0.043   4.313  0.5710 -0.1187 -0.1785
 8639TIP3   OH247331   3.848   1.306   4.463 -0.2459  0.0502  0.0710
 8639TIP3    H147332   3.824   1.385   4.511  0.5342  0.3458 -0.0123
 8639TIP3    H247333   3.930   1.277   4.504  0.0028 -0.1433 -0.5482
 8640TIP3   OH247334   2.082   0.451   5.523 -0.2569  0.2927 -0.3459
 8640TIP3    H147335   1.997   0.494   5.528  0.0929  0.9374  0.2767
 8640TIP3    H247336   2.066   0.364   5.560 -0.9866 -0.1872 -1.6976
 8641TIP3   OH247337   6.069   2.731   3.198 -0.2134 -0.7265  0.1028
 8641TIP3    H147338   6.007   2.762   3.264 -1.2899 -0.8475 -0.8089
 8641TIP3    H247339   6.034   2.764   3.115  1.0250 -0.6912 -0.4382
 8642TIP3   OH247340   3.627   4.702   3.548 -0.1729 -0.4306  0.5217
 8642TIP3    H147341   3.652   4.616   3.514  0.2858  0.1465 -0.6379
 8642TIP3    H247342   3.699   4.760   3.524 -1.2718  0.6555 -0.2832
 8643TIP3   OH247343   3.318   2.041  13.193  0.4547  0.5365  0.0203
 8643TIP3    H147344   3.289   1.965  13.143 -0.5978 -0.1283  1.5626
 8643TIP3    H247345   3.251   2.108  13.176 -0.7152 -0.1751  1.6292
 8644TIP3   OH247346   5.111   1.201   2.521  0.4820  0.3119 -0.2307
 8644TIP3    H147347   5.146   1.115   2.546  1.1290  0.0274 -2.0200
 8644TIP3    H247348   5.114   1.252   2.602  2.1866 -0.6575  0.3700
 8645TIP3   OH247349   5.549   5.533  16.369 -0.4984  0.3210 -0.2096
 8645TIP3    H147350   5.617   5.535  16.436 -0.6753 -0.5604  0.0148
 8645TIP3    H247351   5.595   5.507  16.289 -0.2480  1.5873 -0.4980
 8646TIP3   OH247352   4.538   1.625  15.630  0.4321  0.0244 -0.6283
 8646TIP3    H147353   4.540   1.598  15.538 -1.7607 -0.1686 -0.6705
 8646TIP3    H247354   4.629   1.647  15.650  1.2172 -1.3551 -2.3977
 8647TIP3   OH247355   2.151   6.505   3.117  0.6004 -0.1573 -0.3313
 8647TIP3    H147356   2.184   6.510   3.028  1.1768 -0.6067 -0.1549
 8647TIP3    H247357   2.211   6.444   3.161 -0.4096 -0.9385  0.0240
 8648TIP3   OH247358   0.518   5.396  13.621 -0.5776 -0.5253  0.2615
 8648TIP3    H147359   0.436   5.399  13.573 -0.1802 -0.4996 -0.4418
 8648TIP3    H247360   0.562   5.317  13.589  0.2215  0.1363 -0.3290
 8649TIP3   OH247361   2.322   2.023   4.289 -0.1276 -0.3378  0.5790
 8649TIP3    H147362   2.283   2.064   4.211  2.0995 -1.2172 -1.0933
 8649TIP3    H247363   2.260   1.954   4.313 -1.3229  0.5654  0.2078
 8650TIP3   OH247364   5.056   0.658   5.776 -0.0268 -0.2889 -0.1774
 8650TIP3    H147365   5.008   0.608   5.843 -0.3513 -0.8883 -0.8428
 8650TIP3    H247366   5.079   0.740   5.820  1.3447 -1.3649  1.2559
 8651TIP3   OH247367   5.206   3.167  11.498  0.0596  0.3720 -0.0017
 8651TIP3    H147368   5.219   3.155  11.404  2.4142 -0.4696  0.3440
 8651TIP3    H247369   5.120   3.130  11.516  0.8337 -2.4142 -1.3819
 8652TIP3   OH247370   5.945   0.635  11.097 -0.3808 -0.0335 -0.7559
 8652TIP3    H147371   5.955   0.726  11.125 -0.4403 -0.2082 -0.1514
 8652TIP3    H247372   6.033   0.598  11.105 -0.5149 -0.2427 -0.2256
 8653TIP3   OH247373   0.312   5.077  14.403 -0.4545  0.0336 -0.1979
 8653TIP3    H147374   0.313   5.013  14.331  0.2086 -1.4278  1.0534
 8653TIP3    H247375   0.219   5.091  14.420 -0.6161  0.1754 -1.1462
 8654TIP3   OH247376   1.974   1.525   9.647 -0.3958  0.0126 -0.0895
 8654TIP3    H147377   1.919   1.594   9.683 -0.5083  0.0088 -0.2519
 8654TIP3    H247378   2.013   1.483   9.723 -1.8178 -0.9958  0.1080
 8655TIP3   OH247379   4.664   5.489   5.079  0.0900  0.0618  0.0735
 8655TIP3    H147380   4.744   5.501   5.028 -0.0689  1.5104  0.1360
 8655TIP3    H247381   4.625   5.410   5.043  0.9971 -0.0561 -0.6972
 8656TIP3   OH247382   4.018   5.240   0.399  0.1663 -0.0329  0.4013
 8656TIP3    H147383   3.945   5.181   0.382 -0.5923  0.4172  1.9164
 8656TIP3    H247384   4.002   5.315   0.342 -1.3448  0.6586  1.6267
 8657TIP3   OH247385   6.072   1.595  15.215  0.3602  0.0813 -0.1086
 8657TIP3    H147386   6.066   1.664  15.149 -0.0342 -0.5260 -0.7168
 8657TIP3    H247387   6.084   1.515  15.165 -1.4779 -0.5962  0.4657
 8658TIP3   OH247388   0.468   2.194  15.268 -0.2263  0.4896  0.0921
 8658TIP3    H147389   0.466   2.288  15.286  0.3063  0.6786 -0.7544
 8658TIP3    H247390   0.557   2.178  15.235 -0.2227 -0.3636  0.4851
 8659TIP3   OH247391   1.063   4.642  13.063 -0.1439  0.2388 -0.8779
 8659TIP3    H147392   1.105   4.712  13.113  0.5174 -0.3024 -0.6572
 8659TIP3    H247393   1.104   4.562  13.096 -2.3764 -0.4666  0.4267
 8660TIP3   OH247394   1.012   0.525  16.120 -0.4156 -0.4829  0.1899
 8660TIP3    H147395   0.923   0.538  16.087 -0.1224 -0.2342 -0.5401
 8660TIP3    H247396   1.002   0.469  16.197 -1.0397 -2.0395 -0.9785
 8661TIP3   OH247397   2.421   3.369   1.810  0.1723  0.3382 -0.0082
 8661TIP3    H147398   2.414   3.381   1.715 -0.4238  0.6005  0.0678
 8661TIP3    H247399   2.515   3.358   1.825  0.3353  0.9012 -0.5530
 8662TIP3   OH247400   3.795   6.439   3.246 -0.4345 -0.0073 -0.1257
 8662TIP3    H147401   3.865   6.483   3.198 -3.3717  2.6405 -2.4632
 8662TIP3    H247402   3.765   6.504   3.309 -0.4418 -1.3552  1.3371
 8663TIP3   OH247403   6.285   6.357  15.047 -0.0985 -0.3100 -0.2001
 8663TIP3    H147404   6.273   6.310  14.965  0.1063  1.7193 -1.4703
 8663TIP3    H247405   6.196   6.380  15.075 -0.1064  0.2857 -0.6833
 8664TIP3   OH247406   6.193   2.391   0.558  0.2662 -0.4470  0.1996
 8664TIP3    H147407   6.181   2.391   0.653  0.7513 -2.5250  0.3180
 8664TIP3    H247408   6.113   2.351   0.523 -0.6350  1.7865 -0.4472
 8665TIP3   OH247409   6.125   2.275  13.140  0.1142  0.2666 -0.9834
 8665TIP3    H147410   6.099   2.186  13.161  0.2348  0.4573  0.0625
 8665TIP3    H247411   6.196   2.294  13.201  0.0548  1.0908 -1.1563
 8666TIP3   OH247412   6.561   6.339  15.865 -0.0524  0.5575  0.0280
 8666TIP3    H147413   6.541   6.384  15.948 -1.9848 -0.6570  0.2943
 8666TIP3    H247414   6.609   6.261  15.892 -0.1402  0.4752 -0.0566
 8667TIP3   OH247415   4.219   5.847   2.351 -0.1657  0.6301  0.3829
 8667TIP3    H147416   4.288   5.785   2.375  1.0580  1.7039 -0.1933
 8667TIP3    H247417   4.230   5.859   2.257 -3.4705 -1.8496 -0.4847
 8668TIP3   OH247418   6.415   4.948   5.365 -0.2082 -0.3342  0.3432
 8668TIP3    H147419   6.509   4.961   5.382 -0.3015  0.4970  0.2759
 8668TIP3    H247420   6.376   4.943   5.452 -0.0501 -1.1370  0.3744
 8669TIP3   OH247421   4.784   5.881   4.399 -0.4111 -0.0099  0.7607
 8669TIP3    H147422   4.764   5.873   4.492 -1.5749  0.9347  0.6130
 8669TIP3    H247423   4.823   5.796   4.375 -0.7014 -0.4941  1.9535
 8670TIP3   OH247424   3.636   3.645  14.292  0.4933 -0.2257 -0.4638
 8670TIP3    H147425   3.541   3.656  14.294  0.7611  3.7850 -1.3182
 8670TIP3    H247426   3.656   3.598  14.373 -2.1895 -1.0856 -0.2083
 8671TIP3   OH247427   2.725   2.015  16.391  0.2037 -0.4542  0.3153
 8671TIP3    H147428   2.787   2.077  16.352 -0.5609 -0.3229 -0.7244
 8671TIP3    H247429   2.730   2.033  16.485  0.9571  0.2799  0.1550
 8672TIP3   OH247430   5.664   6.712  14.744  0.4881 -0.5233  0.2565
 8672TIP3    H147431   5.739   6.656  14.726  1.3183 -0.5648  3.3155
 8672TIP3    H247432   5.666   6.726  14.839 -3.3478 -0.5049  0.5161
 8673TIP3   OH247433   2.130   0.509  12.932  0.3974  0.3597  0.1325
 8673TIP3    H147434   2.113   0.561  13.011  4.3081  1.0634  0.7282
 8673TIP3    H247435   2.117   0.571  12.860 -1.9670  0.0584  0.2292
 8674TIP3   OH247436   6.052   3.572   3.961 -0.1811 -0.7796 -0.2169
 8674TIP3    H147437   6.084   3.482   3.966  0.0628 -0.7067 -0.5002
 8674TIP3    H247438   6.076   3.602   3.874  0.9329  0.0123  0.3430
 8675TIP3   OH247439   3.423   3.298  16.380  0.2930  0.0292  0.1505
 8675TIP3    H147440   3.501   3.244  16.395 -0.0758 -0.5752 -0.0821
 8675TIP3    H247441   3.379   3.299  16.465  1.4784  1.9035  0.8091
 8676TIP3   OH247442   3.215   2.953  13.115  0.3744  0.2163  0.0833
 8676TIP3    H147443   3.233   2.860  13.100 -0.3251  0.0845  0.0291
 8676TIP3    H247444   3.299   2.989  13.146  0.8455 -0.2768 -0.5792
 8677TIP3   OH247445   1.262   6.599  16.491  0.4235 -0.1352  0.1089
 8677TIP3    H147446   1.233   6.523  16.442 -1.0935 -0.9224  2.0848
 8677TIP3    H247447   1.344   6.571  16.533  1.3224  0.2907 -1.3062
 8678TIP3   OH247448   4.689   4.036  13.273  0.3299  0.1254 -0.0210
 8678TIP3    H147449   4.741   4.116  13.286  2.3035 -0.9858 -0.6526
 8678TIP3    H247450   4.635   4.054  13.196  0.1806  1.1125  0.2992
 8679TIP3   OH247451   4.458   2.415  16.784 -0.1393  0.1579  0.4479
 8679TIP3    H147452   4.414   2.338  16.749 -0.2218 -0.1334  1.1665
 8679TIP3    H247453   4.423   2.489  16.733  0.1675 -0.3006 -0.4485
 8680TIP3   OH247454   2.159   4.263   2.425  0.2834 -0.3902 -0.3346
 8680TIP3    H147455   2.254   4.250   2.432  0.4209  1.1598  1.5018
 8680TIP3    H247456   2.122   4.176   2.432  1.4985 -0.8114  1.5211
 8681TIP3   OH247457   3.679   2.123   3.679 -0.1978  0.5943  0.1962
 8681TIP3    H147458   3.763   2.124   3.725 -0.4828  1.0210  0.7177
 8681TIP3    H247459   3.703   2.117   3.586  0.3599 -3.7569  0.4299
 8682TIP3   OH247460   4.603   1.556  13.490  0.3795  0.1827  0.0545
 8682TIP3    H147461   4.520   1.509  13.487  1.2587 -1.3884 -1.3466
 8682TIP3    H247462   4.586   1.631  13.547 -1.9576 -0.1439 -0.1127
 8683TIP3   OH247463   6.744   2.965   2.899 -0.6861  0.3466 -0.1967
 8683TIP3    H147464   6.769   3.032   2.964  0.6434  0.3914 -0.7166
 8683TIP3    H247465   6.688   3.011   2.837 -2.4368  0.1729  1.1941
 8684TIP3   OH247466   5.174   0.888  14.398  0.0383 -0.0366 -0.6494
 8684TIP3    H147467   5.125   0.968  14.378 -2.4955 -0.4865  2.8036
 8684TIP3    H247468   5.196   0.896  14.491  1.5342 -2.4835 -0.7064
 8685TIP3   OH247469   2.471   2.704  13.601 -0.1067 -0.2216  0.4215
 8685TIP3    H147470   2.479   2.729  13.509  0.0139 -4.1119 -0.8117
 8685TIP3    H247471   2.377   2.693  13.615 -0.0352 -1.2114  0.2115
 8686TIP3   OH247472   3.997   1.212   2.436  0.3077  0.2115 -0.2135
 8686TIP3    H147473   3.970   1.120   2.440  0.6360  0.0564 -1.1897
 8686TIP3    H247474   4.091   1.208   2.417  0.5425  0.7441  0.8092
 8687TIP3   OH247475   0.290   4.057   1.093  0.3097  0.2215  0.1265
 8687TIP3    H147476   0.310   4.039   1.185  0.5167  1.2917  0.2989
 8687TIP3    H247477   0.364   4.107   1.062 -0.2921  0.8571 -0.3064
 8688TIP3   OH247478   5.296   6.261   3.489  0.8077 -0.3537  0.2754
 8688TIP3    H147479   5.333   6.309   3.564 -1.6179  1.0679  0.6578
 8688TIP3    H247480   5.263   6.180   3.527  0.1230  0.0984  0.6714
 8689TIP3   OH247481   4.829   4.799  10.692 -0.1122 -0.0949  0.2265
 8689TIP3    H147482   4.909   4.840  10.725 -0.3285 -0.8181  1.6844
 8689TIP3    H247483   4.828   4.822  10.599  1.4407  0.4853  0.3220
 8690TIP3   OH247484   0.257   6.750  11.343  0.4313 -0.3493 -0.9076
 8690TIP3    H147485   0.293   6.665  11.368  0.7478  0.4663  1.7375
 8690TIP3    H247486   0.188   6.766  11.407  0.4054  1.4219 -1.3401
 8691TIP3   OH247487   6.091   2.086  12.337  0.3515 -0.1565 -0.5403
 8691TIP3    H147488   6.020   2.068  12.275  1.2360  0.4673 -1.7864
 8691TIP3    H247489   6.052   2.143  12.403 -0.9260 -1.7924  0.2084
 8692TIP3   OH247490   1.542   5.588   1.936 -0.1505 -0.1079 -0.0520
 8692TIP3    H147491   1.610   5.642   1.977 -1.9478  2.8068 -0.6306
 8692TIP3    H247492   1.498   5.546   2.009  0.1399  0.6883  0.6006
 8693TIP3   OH247493   5.707   6.515   2.452 -0.1797  0.3166 -0.3939
 8693TIP3    H147494   5.758   6.481   2.379 -1.5386  2.6545 -2.5741
 8693TIP3    H247495   5.760   6.587   2.487  0.0749 -0.2467  0.4213
 8694TIP3   OH247496   1.356   4.980  14.287 -0.4037 -0.2043  0.4901
 8694TIP3    H147497   1.384   5.034  14.361 -2.0550  1.8485 -0.2863
 8694TIP3    H247498   1.261   4.981  14.291 -0.5183 -3.0745  0.3537
 8695TIP3   OH247499   0.061   5.172  12.509 -0.4724  0.6266 -0.1357
 8695TIP3    H147500   0.069   5.098  12.449 -0.7716  0.5880 -0.1314
 8695TIP3    H247501   0.146   5.215  12.506 -0.1287 -0.0122  0.2397
 8696TIP3   OH247502   4.692   0.757  11.973 -0.2242 -0.2195 -0.2363
 8696TIP3    H147503   4.778   0.755  11.933 -0.8935 -0.6960 -1.7374
 8696TIP3    H247504   4.709   0.755  12.067  1.3975 -3.7654 -0.4281
 8697TIP3   OH247505   4.255   2.757  11.132 -0.1884 -0.4897 -0.3380
 8697TIP3    H147506   4.218   2.699  11.065 -2.8024 -0.0855  0.6251
 8697TIP3    H247507   4.290   2.697  11.198 -0.6097 -0.9301 -0.5109
 8698TIP3   OH247508   4.673   3.498  15.219  0.1063 -0.4598  0.3608
 8698TIP3    H147509   4.733   3.432  15.184 -0.1190 -0.4727  0.0009
 8698TIP3    H247510   4.649   3.465  15.306  0.8544 -0.3080  0.6306
 8699TIP3   OH247511   4.690   6.468   3.406 -0.5403 -0.3619 -0.2636
 8699TIP3    H147512   4.687   6.389   3.460 -2.4735 -0.0884  0.0842
 8699TIP3    H247513   4.701   6.435   3.317  0.4473 -0.9200  0.0449
 8700TIP3   OH247514   1.293   2.546   1.087 -0.5077  0.3074  0.1872
 8700TIP3    H147515   1.241   2.517   1.012 -1.9183 -1.5238  1.7660
 8700TIP3    H247516   1.269   2.638   1.099 -1.3189  0.2387 -0.7602
 8701TIP3   OH247517   6.792   1.090   4.384  0.3274  0.1821  0.3536
 8701TIP3    H147518   6.798   1.099   4.289  0.5309  0.0530  0.3557
 8701TIP3    H247519   6.861   1.029   4.408 -0.0724 -0.2053  0.5255
 8702TIP3   OH247520   4.657   6.700  12.090  0.0715  0.0079 -0.2841
 8702TIP3    H147521   4.716   6.652  12.033  1.5937  0.0591  1.1673
 8702TIP3    H247522   4.678   6.668  12.178 -1.0441  1.0975  0.4087
 8703TIP3   OH247523   2.724   0.950   0.426 -0.3700 -0.0147 -0.2535
 8703TIP3    H147524   2.777   1.021   0.390 -1.3825  0.9857  0.1928
 8703TIP3    H247525   2.712   0.972   0.518  0.0135 -1.2176  0.1047
 8704TIP3   OH247526   6.153   2.042  12.655  0.4991 -0.5657 -0.3353
 8704TIP3    H147527   6.144   2.030  12.561  1.8866 -0.4716 -0.5031
 8704TIP3    H247528   6.156   1.953  12.691  2.6936 -0.7144 -0.7130
 8705TIP3   OH247529   1.467   5.888   4.414  0.2653  0.8252 -0.2539
 8705TIP3    H147530   1.393   5.837   4.381  0.0394  0.0824  1.2879
 8705TIP3    H247531   1.530   5.889   4.342  0.5930 -2.2609 -0.1610
 8706TIP3   OH247532   4.425   0.557  13.155  0.3395 -0.0866  0.0036
 8706TIP3    H147533   4.437   0.621  13.086 -0.8551 -1.4823 -1.5845
 8706TIP3    H247534   4.340   0.578  13.193  0.0756 -0.5336 -0.3295
 8707TIP3   OH247535   4.768   6.279  11.208 -0.2973  0.6006  0.2661
 8707TIP3    H147536   4.719   6.329  11.273 -1.1185 -0.2675  0.3290
 8707TIP3    H247537   4.850   6.256  11.252 -1.1211 -0.5453  1.2596
 8708TIP3   OH247538   1.576   2.803  15.706  0.0781  0.0508 -0.2410
 8708TIP3    H147539   1.595   2.737  15.772  0.8053  1.1724  0.7173
 8708TIP3    H247540   1.609   2.885  15.743 -4.1460  1.7423  0.3762
 8709TIP3   OH247541   0.535   4.741  17.016  0.0658  0.4879  0.8045
 8709TIP3    H147542   0.568   4.681  16.949 -0.9798 -0.2705  0.9359
 8709TIP3    H247543   0.502   4.816  16.968 -2.1529 -0.7439  0.2839
 8710TIP3   OH247544   5.689   1.437   5.500 -0.1901 -0.3337 -0.2117
 8710TIP3    H147545   5.602   1.471   5.521  0.4305  0.3025  1.5234
 8710TIP3    H247546   5.726   1.412   5.584  1.7133  0.4220 -0.7749
 8711TIP3   OH247547   4.283   3.421   5.923 -0.0594 -0.0290 -0.4801
 8711TIP3    H147548   4.292   3.329   5.947  0.2449  0.4049  1.1324
 8711TIP3    H247549   4.346   3.467   5.978 -0.4747  1.1956 -0.9939
 8712TIP3   OH247550   2.715   2.396  11.451 -0.2024 -0.1627  0.7817
 8712TIP3    H147551   2.670   2.351  11.522  0.8369  0.6885  2.0141
 8712TIP3    H247552   2.807   2.397  11.476  0.4013 -0.9308 -1.1780
 8713TIP3   OH247553   1.252   5.561   2.752 -0.0766 -0.3177 -1.3262
 8713TIP3    H147554   1.162   5.588   2.771 -0.0406 -1.5108  0.7842
 8713TIP3    H247555   1.300   5.643   2.744 -0.8940  0.3319  0.0650
 8714TIP3   OH247556   0.760   0.564  11.894  0.4877  0.5928 -0.1080
 8714TIP3    H147557   0.773   0.603  11.980 -0.8012  2.6889 -0.7824
 8714TIP3    H247558   0.738   0.638  11.837 -2.0513 -1.0927 -1.5193
 8715TIP3   OH247559   2.881   3.356   3.649 -0.0781 -0.4597 -0.0090
 8715TIP3    H147560   2.786   3.347   3.652 -0.0343 -0.6906  1.1408
 8715TIP3    H247561   2.906   3.315   3.566 -0.9769 -0.3783 -0.3368
 8716TIP3   OH247562   2.187   2.585  12.899  0.5056  0.0715  0.2598
 8716TIP3    H147563   2.109   2.579  12.844  0.6299 -0.1042  0.1049
 8716TIP3    H247564   2.152   2.604  12.987  0.2048 -1.2763  0.4481
 8717TIP3   OH247565   4.376   3.517   1.262  0.2222  0.3724 -0.7860
 8717TIP3    H147566   4.465   3.547   1.243  0.3123  0.5624 -0.0939
 8717TIP3    H247567   4.376   3.499   1.356 -0.6568  1.0306 -0.6449
 8718TIP3   OH247568   2.176   0.384   4.600 -1.0055 -0.9303  0.1216
 8718TIP3    H147569   2.206   0.294   4.588 -0.9887 -0.8312 -0.6242
 8718TIP3    H247570   2.095   0.390   4.549 -0.7617 -0.3986 -0.2169
 8719TIP3   OH247571   5.610   1.532   0.114  0.0490 -0.4596 -0.6350
 8719TIP3    H147572   5.704   1.548   0.127  0.2757 -1.9470 -0.2110
 8719TIP3    H247573   5.567   1.578   0.187  0.1358  2.6359 -2.3554
 8720TIP3   OH247574   4.220   1.350  14.031 -0.2584 -0.0678 -0.2276
 8720TIP3    H147575   4.143   1.322  14.081  0.9721  0.0216  1.8245
 8720TIP3    H247576   4.209   1.444  14.020 -1.9702 -0.4596 -2.8250
 8721TIP3   OH247577   4.957   3.834  16.305 -0.0876 -0.0933 -0.3909
 8721TIP3    H147578   4.987   3.885  16.380 -0.1925 -1.3010  0.5030
 8721TIP3    H247579   4.866   3.813  16.325 -0.2494 -0.0593 -1.0729
 8722TIP3   OH247580   2.395   2.821   1.660  0.2476 -0.7356 -0.1397
 8722TIP3    H147581   2.446   2.773   1.726 -0.8601 -1.0866  0.4848
 8722TIP3    H247582   2.403   2.913   1.687 -1.9108 -1.0296  1.7847
 8723TIP3   OH247583   3.422   0.328  11.126  1.0415  0.1789 -0.4812
 8723TIP3    H147584   3.333   0.303  11.101 -0.1134  1.8313  1.6165
 8723TIP3    H247585   3.436   0.413  11.085  1.1848  0.4815  0.1867
 8724TIP3   OH247586   2.438   6.627   4.408  0.0280 -0.3248  0.1119
 8724TIP3    H147587   2.383   6.560   4.449  0.5613 -1.2474 -0.6398
 8724TIP3    H247588   2.424   6.615   4.314 -1.0209  1.6227 -0.0296
 8725TIP3   OH247589   4.832   4.630   1.095 -0.8993  0.2215 -0.1066
 8725TIP3    H147590   4.776   4.556   1.119 -1.2170  0.5864  0.3003
 8725TIP3    H247591   4.790   4.667   1.017 -1.8125  1.0943  0.7598
 8726TIP3   OH247592   6.299   0.778   1.719 -0.0715 -0.3063 -0.2245
 8726TIP3    H147593   6.261   0.761   1.632 -0.6409 -0.3292  0.0279
 8726TIP3    H247594   6.380   0.728   1.719  0.0992 -0.0489 -0.8687
 8727TIP3   OH247595   0.582   4.416   6.487  0.1929 -0.1737  0.1178
 8727TIP3    H147596   0.590   4.338   6.541  2.6879 -1.5794 -2.0498
 8727TIP3    H247597   0.494   4.411   6.451 -0.3809 -0.8925  1.5405
 8728TIP3   OH247598   0.519   0.682  16.743  0.4376 -0.2570 -0.0761
 8728TIP3    H147599   0.499   0.627  16.668  0.3796 -0.4532  0.0838
 8728TIP3    H247600   0.508   0.772  16.711 -0.8698 -0.3523  0.0512
 8729TIP3   OH247601   5.828   3.550  17.094  0.1429  0.5455 -0.1380
 8729TIP3    H147602   5.825   3.542  16.999 -0.1249 -0.6854 -0.0484
 8729TIP3    H247603   5.921   3.560  17.115  0.0848  2.4846 -0.6077
 8730TIP3   OH247604   4.356   6.653  16.130  0.0440 -0.1656 -0.3058
 8730TIP3    H147605   4.366   6.569  16.174 -1.2194  1.0993  2.6315
 8730TIP3    H247606   4.353   6.631  16.037 -0.2557 -3.3439  0.3611
 8731TIP3   OH247607   2.255   5.885   4.105  0.1722 -0.4500  0.1103
 8731TIP3    H147608   2.350   5.882   4.114  0.3018  1.9014  0.0465
 8731TIP3    H247609   2.239   5.882   4.011  0.4123  2.1015 -0.0737
 8732TIP3   OH247610   5.737   1.023  13.436  0.3173  0.5198 -0.1108
 8732TIP3    H147611   5.738   0.929  13.454  0.3223  0.1135 -2.0517
 8732TIP3    H247612   5.687   1.061  13.509 -1.5852 -1.2417 -0.4228
 8733TIP3   OH247613   5.157   0.443   0.789 -0.1543 -0.2601  0.2838
 8733TIP3    H147614   5.213   0.432   0.713  0.4760  3.7303 -0.0684
 8733TIP3    H247615   5.069   0.419   0.759  0.6285 -2.3521 -0.4756
 8734TIP3   OH247616   0.485   5.544   4.756  0.4787  1.1497  0.4989
 8734TIP3    H147617   0.522   5.517   4.840  0.7926  0.5992  0.1846
 8734TIP3    H247618   0.405   5.591   4.780  0.0756  0.2022  1.0615
 8735TIP3   OH247619   2.723   5.814  12.797  0.4707  0.5431  0.0198
 8735TIP3    H147620   2.635   5.843  12.820  0.3415  1.5481 -1.5818
 8735TIP3    H247621   2.781   5.877  12.840  0.2540  2.0259 -1.7403
 8736TIP3   OH247622   2.213   5.567   1.469  0.5725 -0.2159 -0.1988
 8736TIP3    H147623   2.258   5.616   1.400 -0.6222  1.5763  0.2103
 8736TIP3    H247624   2.206   5.478   1.436  1.1890  0.3104 -1.8192
 8737TIP3   OH247625   3.978   1.286   1.895  0.0733  0.2931  0.0534
 8737TIP3    H147626   3.937   1.304   1.979  0.7541  0.7201  0.2987
 8737TIP3    H247627   3.909   1.306   1.831 -1.3562 -2.5454  0.5531
 8738TIP3   OH247628   3.653   5.673   2.129 -0.5613 -0.0133  0.1606
 8738TIP3    H147629   3.736   5.662   2.081 -1.0225  0.0978 -0.6818
 8738TIP3    H247630   3.632   5.586   2.161  1.2046  0.3776  2.6635
 8739TIP3   OH247631   2.556   0.226   5.171 -0.1876  0.2176 -0.0068
 8739TIP3    H147632   2.650   0.220   5.155 -0.2618 -0.5461 -0.1931
 8739TIP3    H247633   2.538   0.157   5.235 -0.6626  0.1933 -0.1646
 8740TIP3   OH247634   6.475   3.871   1.744  0.1645 -0.0079  0.6353
 8740TIP3    H147635   6.549   3.889   1.801  0.3997  0.3451  0.2291
 8740TIP3    H247636   6.505   3.798   1.689 -0.5111 -1.1736  1.7731
 8741TIP3   OH247637   2.930   0.404   0.331  0.5289 -0.3452  0.3035
 8741TIP3    H147638   2.901   0.477   0.277  0.7510 -0.8269 -0.4774
 8741TIP3    H247639   3.006   0.438   0.379  1.8853 -0.6200 -1.5395
 8742TIP3   OH247640   6.581   6.548   1.227 -0.6642  0.1110  0.4587
 8742TIP3    H147641   6.563   6.455   1.242  0.6853 -0.4556 -1.1995
 8742TIP3    H247642   6.591   6.585   1.315  0.3493 -1.6468  1.1144
 8743TIP3   OH247643   1.325   4.389   4.063 -0.0600 -0.0800 -0.3028
 8743TIP3    H147644   1.310   4.367   3.971 -0.7984 -2.1051  0.2575
 8743TIP3    H247645   1.407   4.344   4.085 -0.3860 -0.3952  0.2726
 8744TIP3   OH247646   6.644   4.265   0.829 -0.0893  0.2660 -0.3299
 8744TIP3    H147647   6.681   4.352   0.812 -1.8556  1.0477 -0.3632
 8744TIP3    H247648   6.666   4.247   0.920 -0.9024  1.3922  0.1114
 8745TIP3   OH247649   5.337   6.478  15.958 -0.3248 -0.4704  0.1450
 8745TIP3    H147650   5.367   6.459  15.869  1.3530  0.7169  0.3995
 8745TIP3    H247651   5.269   6.544  15.947 -1.2715 -1.4959 -0.3249
 8746TIP3   OH247652   6.568   0.369  15.360  0.4593  0.2679  0.1181
 8746TIP3    H147653   6.530   0.455  15.337  1.4330  0.1695 -2.0347
 8746TIP3    H247654   6.518   0.307  15.307 -0.4277 -0.5812  1.8804
 8747TIP3   OH247655   0.571   0.615   5.994 -0.5532  0.4218 -0.1995
 8747TIP3    H147656   0.643   0.579   6.045 -1.2270 -0.4948  0.1269
 8747TIP3    H247657   0.542   0.692   6.045 -0.9052 -0.2012  0.5608
 8748TIP3   OH247658   3.132   3.685  12.581 -0.5353 -0.0771 -0.0942
 8748TIP3    H147659   3.118   3.764  12.528 -2.2739 -0.9805 -1.0941
 8748TIP3    H247660   3.218   3.653  12.553 -0.1881  0.9957 -0.3024
 8749TIP3   OH247661   1.192   6.704   3.035 -0.4881  0.4640 -0.6862
 8749TIP3    H147662   1.244   6.650   2.976  0.1875 -0.2510  0.5337
 8749TIP3    H247663   1.146   6.642   3.090  0.4037  1.1076  0.8412
 8750TIP3   OH247664   1.479   3.074   3.826  0.0265  0.3547  0.9313
 8750TIP3    H147665   1.536   3.014   3.779  1.4898  1.0067  1.7985
 8750TIP3    H247666   1.491   3.159   3.783  0.8289  0.7974  1.9611
 8751TIP3   OH247667   5.767   1.269   3.447 -0.1770 -0.1577 -0.0588
 8751TIP3    H147668   5.709   1.305   3.515 -0.4298 -0.6530 -0.0049
 8751TIP3    H247669   5.799   1.346   3.400 -1.4727  0.0927 -0.5726
 8752TIP3   OH247670   1.556   2.663   0.838  0.1860  0.3701 -0.4788
 8752TIP3    H147671   1.521   2.635   0.753 -0.6331 -0.3204  0.0726
 8752TIP3    H247672   1.650   2.671   0.823  0.0777  0.0688 -1.4071
 8753TIP3   OH247673   5.679   0.636  16.434  0.6087  0.4593 -0.1683
 8753TIP3    H147674   5.623   0.673  16.502 -0.1544 -0.2195 -0.4094
 8753TIP3    H247675   5.768   0.642  16.469  0.1039 -1.3208  1.6187
 8754TIP3   OH247676   2.923   2.984   2.090 -0.3841 -0.3538 -0.1411
 8754TIP3    H147677   2.943   2.893   2.113  0.8899 -0.6513 -2.2242
 8754TIP3    H247678   2.940   3.033   2.170  0.3819 -1.7585  0.5945
 8755TIP3   OH247679   6.656   2.497   4.966 -0.3782  0.3507  0.0926
 8755TIP3    H147680   6.741   2.503   4.923  0.0746  1.3235  1.0708
 8755TIP3    H247681   6.637   2.587   4.993 -2.4656  0.4517 -1.4836
 8756TIP3   OH247682   5.025   5.559  11.726 -0.3398  0.3714  0.0462
 8756TIP3    H147683   5.000   5.486  11.669 -1.9004  0.4463  0.5565
 8756TIP3    H247684   5.120   5.566  11.717 -0.6107  1.0740 -3.3043
 8757TIP3   OH247685   1.508   5.847  14.532 -0.1898 -0.5561 -0.4860
 8757TIP3    H147686   1.545   5.837  14.444 -0.0117 -0.5025 -0.4178
 8757TIP3    H247687   1.457   5.927  14.528  2.3116  1.1905  0.3047
 8758TIP3   OH247688   4.921   0.966   0.385 -0.5370 -0.0443 -0.5772
 8758TIP3    H147689   4.952   0.970   0.476  2.9999  1.0886 -1.6493
 8758TIP3    H247690   4.853   1.032   0.379  1.4528  2.2850  0.6255
 8759TIP3   OH247691   4.978   2.996   2.462 -0.2867 -0.5176 -0.0153
 8759TIP3    H147692   5.061   3.044   2.462 -0.2606 -0.5604 -0.2641
 8759TIP3    H247693   4.911   3.064   2.451 -0.3230 -0.4272  0.6940
 8760TIP3   OH247694   2.264   2.727  13.137 -0.6925  0.4741 -0.2737
 8760TIP3    H147695   2.348   2.737  13.093 -0.6445  2.0144  0.1262
 8760TIP3    H247696   2.202   2.775  13.083 -1.4079 -0.9136 -0.7407
 8761TIP3   OH247697   3.360   1.183  16.140  0.2502 -0.5673 -0.2988
 8761TIP3    H147698   3.420   1.118  16.104  1.2083  0.0662  0.1310
 8761TIP3    H247699   3.320   1.223  16.063 -1.3868 -2.5585 -0.5763
 8762TIP3   OH247700   4.858   4.181  14.639 -0.3457  0.0977 -0.6052
 8762TIP3    H147701   4.773   4.139  14.628 -0.3449  0.4288 -1.9505
 8762TIP3    H247702   4.877   4.172  14.733 -2.5851  1.4319  0.0484
 8763TIP3   OH247703   4.746   0.702   2.812 -0.0920 -0.1218  0.1244
 8763TIP3    H147704   4.768   0.686   2.720 -1.0809  1.9176 -0.5365
 8763TIP3    H247705   4.676   0.640   2.831  1.8641 -2.3967  0.3814
 8764TIP3   OH247706   1.876   6.297  16.242 -0.3118 -0.0636 -0.0835
 8764TIP3    H147707   1.925   6.337  16.170  0.0204 -0.7221 -0.2288
 8764TIP3    H247708   1.792   6.342  16.242 -0.4157 -0.2364 -1.0475
 8765TIP3   OH247709   2.027   3.576  10.841  0.6918  0.1483 -0.1535
 8765TIP3    H147710   1.959   3.557  10.776  0.6336 -0.4777  0.0823
 8765TIP3    H247711   2.008   3.665  10.871 -1.4038 -0.7775  1.5535
 8766TIP3   OH247712   0.735   6.694  14.950 -0.0192 -0.3290  0.1934
 8766TIP3    H147713   0.651   6.703  14.905 -0.6295  0.1219  1.3817
 8766TIP3    H247714   0.788   6.767  14.916 -0.9388  0.8364  1.1649
 8767TIP3   OH247715   1.816   5.165   0.834 -0.3171 -0.4031  0.4775
 8767TIP3    H147716   1.857   5.132   0.755  0.6045  1.3025  0.2019
 8767TIP3    H247717   1.808   5.260   0.820 -2.0687 -0.3428  1.5619
 8768TIP3   OH247718   0.327   4.802   5.854 -0.5271  0.7715  0.1709
 8768TIP3    H147719   0.262   4.747   5.897 -0.5617  0.7176  0.0511
 8768TIP3    H247720   0.410   4.775   5.893 -0.6287  1.1835  0.6738
 8769TIP3   OH247721   0.228   0.551  10.723  0.1574 -0.4870 -0.4143
 8769TIP3    H147722   0.198   0.606  10.650 -2.0291 -0.6958  0.2555
 8769TIP3    H247723   0.150   0.501  10.748  0.5937  0.2132  2.6450
 8770TIP3   OH247724   4.619   3.309   1.460 -0.3284 -0.2472 -0.1042
 8770TIP3    H147725   4.546   3.331   1.519  0.2401 -1.1219  0.9507
 8770TIP3    H247726   4.582   3.246   1.399 -0.7212  0.0951 -0.2282
 8771TIP3   OH247727   3.529   3.834  14.016  0.6651 -0.3414  0.1061
 8771TIP3    H147728   3.434   3.847  14.010  0.5229 -1.7534 -1.9309
 8771TIP3    H247729   3.565   3.922  14.022 -0.6688  0.4475 -2.1373
 8772TIP3   OH247730   2.457   4.612   2.144 -0.6047 -0.0939 -0.5750
 8772TIP3    H147731   2.510   4.536   2.119  0.7072  0.2975  0.9061
 8772TIP3    H247732   2.486   4.634   2.232 -2.9109  0.4506  0.1155
 8773TIP3   OH247733   4.070   5.157  15.177  0.3965 -0.7860 -0.6610
 8773TIP3    H147734   4.121   5.164  15.258  0.1560 -1.0142 -0.4877
 8773TIP3    H247735   4.099   5.231  15.124 -1.0930  0.7193  0.5506
 8774TIP3   OH247736   2.483   5.628   1.270 -0.2663  0.2701  0.1388
 8774TIP3    H147737   2.575   5.656   1.269 -0.7310  1.9667  0.3573
 8774TIP3    H247738   2.485   5.539   1.304  1.3193  0.2018 -0.0546
 8775TIP3   OH247739   1.210   3.396  10.466 -0.7254  0.2742 -0.5866
 8775TIP3    H147740   1.125   3.397  10.511 -0.5369  1.3533 -0.2177
 8775TIP3    H247741   1.261   3.463  10.512  0.4267 -0.5794 -0.6131
 8776TIP3   OH247742   3.910   4.299  14.889 -0.1042 -0.2566  0.0108
 8776TIP3    H147743   3.936   4.209  14.906  0.3708 -0.0191  0.5981
 8776TIP3    H247744   3.881   4.331  14.975  0.6842  0.4484  0.0295
 8777TIP3   OH247745   3.056   2.870  15.265 -0.1466  0.2949  0.1848
 8777TIP3    H147746   2.963   2.860  15.285  0.2619  0.9258  2.6533
 8777TIP3    H247747   3.088   2.934  15.328  2.0607 -0.2304 -0.3165
 8778TIP3   OH247748   2.669   5.719   2.062  0.2346 -0.7787 -0.5304
 8778TIP3    H147749   2.702   5.726   1.973 -0.8444 -1.1311 -0.9795
 8778TIP3    H247750   2.691   5.630   2.090  0.8180 -0.5786 -0.3267
 8779TIP3   OH247751   4.641   5.687   3.495  0.1140 -0.5770  0.6319
 8779TIP3    H147752   4.609   5.666   3.407 -0.5637  0.3846  0.6378
 8779TIP3    H247753   4.576   5.649   3.554 -0.1428 -0.0416  0.6889
 8780TIP3   OH247754   3.125   4.953   4.632 -0.3823  0.1034 -0.4872
 8780TIP3    H147755   3.047   5.009   4.629 -0.2136  0.3526 -0.1918
 8780TIP3    H247756   3.090   4.864   4.640 -0.6531  0.1543 -1.0314
 8781TIP3   OH247757   5.723   0.199  12.542  0.1828  0.1721  0.3586
 8781TIP3    H147758   5.818   0.202  12.532  0.0979  1.5438 -0.1617
 8781TIP3    H247759   5.709   0.152  12.625  1.3475  0.9474  1.0207
 8782TIP3   OH247760   5.564   3.891   3.895 -0.2019  0.3443  0.6457
 8782TIP3    H147761   5.515   3.809   3.903 -0.1433  0.1863 -0.5149
 8782TIP3    H247762   5.568   3.908   3.801  0.0302  1.5387  0.8595
 8783TIP3   OH247763   6.406   5.755   4.760  0.6904 -0.6571 -0.1997
 8783TIP3    H147764   6.415   5.686   4.826  0.6392  1.1221  1.7853
 8783TIP3    H247765   6.495   5.770   4.729  1.2016  0.4120  1.6250
 8784TIP3   OH247766   3.850   1.504  15.715  0.3809  0.0144  0.0257
 8784TIP3    H147767   3.830   1.436  15.650  3.0224 -0.7379 -0.1176
 8784TIP3    H247768   3.931   1.544  15.684  1.6148 -0.1882  2.6616
 8785TIP3   OH247769   5.345   4.377  13.609  0.3349 -0.0639 -0.4435
 8785TIP3    H147770   5.395   4.402  13.532 -1.6255 -1.2823 -2.2204
 8785TIP3    H247771   5.368   4.285  13.623  1.4578  0.4104  1.1305
 8786TIP3   OH247772   3.910   5.375  10.652 -0.1780 -0.1199  0.4073
 8786TIP3    H147773   3.954   5.348  10.571 -2.2671 -0.0741 -0.8208
 8786TIP3    H247774   3.938   5.466  10.664  0.1377 -0.1154 -0.2903
 8787TIP3   OH247775   2.278   1.516  16.643 -0.0050  0.7217 -0.0897
 8787TIP3    H147776   2.219   1.554  16.709 -0.4991  0.6894 -0.5057
 8787TIP3    H247777   2.352   1.482  16.694  0.2131  1.7973  0.3278
 8788TIP3   OH247778   3.272   6.748   4.416 -0.1387  0.0531 -0.8873
 8788TIP3    H147779   3.253   6.742   4.509 -0.9205  1.1857 -0.9623
 8788TIP3    H247780   3.336   6.819   4.409  2.1439 -1.8560 -0.9450
 8789TIP3   OH247781   4.313   1.193   0.535 -0.0556 -0.3771 -0.4279
 8789TIP3    H147782   4.392   1.217   0.486 -0.4401 -0.4769 -1.1200
 8789TIP3    H247783   4.345   1.148   0.612  0.6427  1.3712  0.3480
 8790TIP3   OH247784   6.535   4.815  16.493  0.4979  0.4067  0.1298
 8790TIP3    H147785   6.540   4.828  16.399  0.9109 -1.8579 -0.2253
 8790TIP3    H247786   6.626   4.798  16.520  0.1064 -1.3156  0.4930
 8791TIP3   OH247787   4.371   2.388  11.723  0.6988  0.4417  0.1645
 8791TIP3    H147788   4.322   2.448  11.666 -0.5964 -0.5002  0.2367
 8791TIP3    H247789   4.377   2.435  11.806  0.4909  0.8508 -0.0463
 8792TIP3   OH247790   5.373   3.096   3.451  0.2966 -0.1477  0.4272
 8792TIP3    H147791   5.407   3.185   3.463 -2.7162  1.1763  0.1628
 8792TIP3    H247792   5.387   3.078   3.358 -0.8050  0.9239  0.0197
 8793TIP3   OH247793   5.372   0.221   2.841  0.5727  0.1043 -0.4224
 8793TIP3    H147794   5.375   0.127   2.823 -1.1699  0.0868 -0.7231
 8793TIP3    H247795   5.281   0.246   2.826  0.2823  1.2584  2.5344
 8794TIP3   OH247796   5.468   4.324  11.325 -0.3137 -0.7613 -0.0386
 8794TIP3    H147797   5.456   4.318  11.419  0.6842 -0.4223  0.1213
 8794TIP3    H247798   5.402   4.387  11.295  0.0821 -0.0386  0.5855
 8795TIP3   OH247799   1.576   2.777   6.404  0.6388  0.7369 -0.1426
 8795TIP3    H147800   1.640   2.794   6.335  0.6801  4.0024  0.5059
 8795TIP3    H247801   1.629   2.743   6.477  1.3004  1.3467 -0.3248
 8796TIP3   OH247802   6.186   2.153  16.123  0.0936  0.1638  0.6455
 8796TIP3    H147803   6.099   2.131  16.155 -0.2632  1.0310  0.2848
 8796TIP3    H247804   6.240   2.077  16.146 -0.2593  0.5213  2.8463
 8797TIP3   OH247805   5.081   4.557  13.374 -0.1605  0.3630 -0.2601
 8797TIP3    H147806   5.052   4.506  13.299 -0.7888 -0.3650  0.4612
 8797TIP3    H247807   5.016   4.626  13.383 -0.6738 -0.1756  0.2404
 8798TIP3   OH247808   0.330   2.382   0.034  0.1976 -0.3951  0.1862
 8798TIP3    H147809   0.303   2.304  -0.014 -0.5429 -0.9088  1.3983
 8798TIP3    H247810   0.255   2.441   0.029  0.5082 -0.0240 -0.1609
 8799TIP3   OH247811   6.504   2.464  16.976  0.1464  0.7155  0.1273
 8799TIP3    H147812   6.516   2.460  17.071  1.5141  0.7886 -0.0189
 8799TIP3    H247813   6.417   2.502  16.964 -0.0978  0.5647  1.3539
 8800TIP3   OH247814   5.873   2.987  16.136  0.5472 -0.5884  0.5371
 8800TIP3    H147815   5.852   3.019  16.223 -1.3569  3.0957 -1.0620
 8800TIP3    H247816   5.967   3.001  16.127  0.5195  0.3730  1.5226
 8801TIP3   OH247817   3.834   5.767   0.393  0.0620  0.0663 -0.2365
 8801TIP3    H147818   3.838   5.840   0.455 -0.0729 -1.5099  1.6957
 8801TIP3    H247819   3.890   5.795   0.320  0.6598  1.7668  0.8150
 8802TIP3   OH247820   1.927   3.607  11.155  0.4656  0.2254  0.0329
 8802TIP3    H147821   1.965   3.683  11.111 -0.7371  0.5615 -0.4683
 8802TIP3    H247822   1.871   3.567  11.088  0.8236 -0.9177  0.3927
 8803TIP3   OH247823   6.186   5.684   4.214 -0.3570  0.6330  0.4720
 8803TIP3    H147824   6.167   5.687   4.120 -0.1904  0.0725  0.4188
 8803TIP3    H247825   6.129   5.751   4.252 -0.0272  1.2427 -0.0953
 8804TIP3   OH247826   2.327   5.141  11.435  0.0307 -0.7882  0.4739
 8804TIP3    H147827   2.268   5.103  11.369 -0.2161  0.5566 -0.1073
 8804TIP3    H247828   2.344   5.230  11.404  1.0032 -0.5797  1.5333
 8805TIP3   OH247829   6.487   4.865   1.648 -0.0655 -0.2404 -0.4060
 8805TIP3    H147830   6.435   4.855   1.568  0.6907  1.1269 -1.1076
 8805TIP3    H247831   6.507   4.958   1.652  0.2716 -0.3577  1.1714
 8806TIP3   OH247832   1.325   1.268   0.622 -0.4450 -0.2567  0.2275
 8806TIP3    H147833   1.288   1.229   0.702 -1.0224 -0.4594 -0.1308
 8806TIP3    H247834   1.333   1.361   0.643 -0.0849 -0.3910  0.7099
 8807TIP3   OH247835   0.133   5.879   3.929 -0.2524 -0.4112 -0.3917
 8807TIP3    H147836   0.126   5.850   3.838  0.9464  0.1535 -0.6929
 8807TIP3    H247837   0.225   5.905   3.938 -0.4311 -0.1720  0.8981
 8808TIP3   OH247838   2.848   5.603  12.252  0.0730  0.0560  0.1554
 8808TIP3    H147839   2.762   5.614  12.210  0.3687  1.5170 -0.1244
 8808TIP3    H247840   2.869   5.511  12.240 -0.6654  0.0551 -1.3607
 8809TIP3   OH247841   5.463   2.855  13.425  0.1416  0.6840  0.0721
 8809TIP3    H147842   5.558   2.864  13.422  0.2745 -0.6735 -0.6845
 8809TIP3    H247843   5.447   2.761  13.415 -1.2223  0.6513  1.9853
 8810TIP3   OH247844   4.520   3.348  12.650 -0.5990 -1.0810 -0.0196
 8810TIP3    H147845   4.594   3.356  12.711 -1.9909 -2.1825  1.9204
 8810TIP3    H247846   4.537   3.414  12.583  2.1359 -1.3001  0.3506
 8811TIP3   OH247847   5.716   4.510  13.114 -0.0087 -0.3204  0.1861
 8811TIP3    H147848   5.752   4.424  13.091 -1.0810 -0.5954 -0.4952
 8811TIP3    H247849   5.773   4.541  13.185  0.8673 -1.2393 -0.0896
 8812TIP3   OH247850   3.584   1.757  12.556  0.2404 -0.5318  0.3860
 8812TIP3    H147851   3.671   1.779  12.590 -0.5971  0.0766  2.2466
 8812TIP3    H247852   3.581   1.662  12.558 -0.0155 -0.5290  2.7952
 8813TIP3   OH247853   2.318   6.769  11.372 -0.5255  0.2016 -0.0122
 8813TIP3    H147854   2.329   6.864  11.375 -0.7407  0.2173  2.2627
 8813TIP3    H247855   2.277   6.747  11.456  2.6468 -2.2438  1.1053
 8814TIP3   OH247856   0.778   6.403   5.223 -0.1339 -0.0824  0.1542
 8814TIP3    H147857   0.787   6.317   5.182  1.4564 -0.9841  2.2158
 8814TIP3    H247858   0.734   6.385   5.307  2.3702  0.6753  1.7175
 8815TIP3   OH247859   1.777   1.870   1.122 -0.3273  1.1577  0.1136
 8815TIP3    H147860   1.700   1.855   1.177 -1.7870 -2.1435 -2.4607
 8815TIP3    H247861   1.847   1.821   1.166 -0.9979  0.0625 -0.0066
 8816TIP3   OH247862   4.357   3.197  14.667  0.5810  0.1812  0.8320
 8816TIP3    H147863   4.297   3.245  14.610  1.2689  0.8992  0.6789
 8816TIP3    H247864   4.412   3.147  14.607  1.8623  1.5899  0.7599
 8817TIP3   OH247865   4.413   1.444   4.237  0.3247  0.3124 -0.9873
 8817TIP3    H147866   4.503   1.418   4.221  1.0457  1.7773  0.3500
 8817TIP3    H247867   4.419   1.534   4.269 -1.7049  0.8255 -1.8770
 8818TIP3   OH247868   3.067   4.282   0.862  0.5684 -0.1417  0.8337
 8818TIP3    H147869   3.131   4.221   0.823  0.9634 -0.4839  1.9681
 8818TIP3    H247870   2.985   4.234   0.861  0.3241  0.2617 -0.5426
 8819TIP3   OH247871   4.681   1.932   1.048  0.3242  0.7290 -0.3145
 8819TIP3    H147872   4.677   2.012   0.994 -1.5552  1.1205  0.3331
 8819TIP3    H247873   4.670   1.963   1.138  0.9510 -0.1463  0.0746
 8820TIP3   OH247874   2.557   3.603  14.424  0.0678  0.0033 -0.2467
 8820TIP3    H147875   2.555   3.635  14.334 -0.0493  0.5242 -0.0648
 8820TIP3    H247876   2.581   3.680  14.476 -0.4181 -0.1517  0.2207
 8821TIP3   OH247877   3.637   6.793   3.763  0.1024  0.3708  0.4876
 8821TIP3    H147878   3.646   6.818   3.855  0.4031  0.5266  0.4163
 8821TIP3    H247879   3.720   6.817   3.723 -0.1616  0.6506  0.0924
 8822TIP3   OH247880   6.415   0.849  11.501  0.2602 -0.0984 -0.1323
 8822TIP3    H147881   6.448   0.847  11.590  1.5960  1.6798 -0.5162
 8822TIP3    H247882   6.382   0.761  11.485  1.1255 -0.8004  1.6924
 8823TIP3   OH247883   4.526   3.488   2.218  0.8616 -0.2095 -0.0420
 8823TIP3    H147884   4.520   3.440   2.135 -1.5726 -0.6832  0.3586
 8823TIP3    H247885   4.471   3.565   2.205  2.4383  1.0248  0.3263
 8824TIP3   OH247886   3.696   5.413  13.193  0.1883  0.0679  0.0192
 8824TIP3    H147887   3.734   5.490  13.151 -1.1342 -0.3024 -2.0249
 8824TIP3    H247888   3.607   5.441  13.218  0.1523 -0.4126  0.4544
 8825TIP3   OH247889   0.878   1.324   2.063  0.2305 -1.0015  0.0081
 8825TIP3    H147890   0.932   1.253   2.098  3.0139  1.3207  0.7913
 8825TIP3    H247891   0.861   1.380   2.139  0.0801  0.3285 -0.9759
 8826TIP3   OH247892   2.793   4.237   4.923  0.7370  0.0365 -0.1000
 8826TIP3    H147893   2.867   4.282   4.881 -0.5078  1.3903 -0.9319
 8826TIP3    H247894   2.776   4.289   5.002 -0.0977  0.4783 -0.5596
 8827TIP3   OH247895   3.151   2.223   1.686 -0.4043  0.1924 -0.0675
 8827TIP3    H147896   3.220   2.286   1.709  1.2153 -1.4912 -0.0774
 8827TIP3    H247897   3.108   2.205   1.770  0.1097  0.1937  0.2051
 8828TIP3   OH247898   2.719   6.574  10.912  0.3056  0.7945 -0.0407
 8828TIP3    H147899   2.759   6.502  10.864  2.4829  1.7015  0.2783
 8828TIP3    H247900   2.697   6.638  10.845 -0.4033  0.3832 -0.2009
 8829TIP3   OH247901   1.052   4.959  14.687 -0.5320 -0.3561  0.1897
 8829TIP3    H147902   1.011   4.919  14.610 -1.1140  0.2807  0.1626
 8829TIP3    H247903   1.137   4.914  14.695 -0.0613  0.1855 -1.3509
 8830TIP3   OH247904   0.954   3.677   5.952 -0.8432 -0.2751 -0.6053
 8830TIP3    H147905   0.902   3.626   5.890  1.2607 -1.7165 -1.3022
 8830TIP3    H247906   1.018   3.615   5.986  1.3835  1.7047 -0.9538
 8831TIP3   OH247907   4.837   4.134   1.771  0.1878 -0.3547 -0.4814
 8831TIP3    H147908   4.791   4.079   1.708 -0.7968 -1.1083  0.8267
 8831TIP3    H247909   4.776   4.140   1.846  1.6471 -0.2219  0.7438
 8832TIP3   OH247910   5.091   4.018   0.946  0.2448  0.5024 -0.0594
 8832TIP3    H147911   5.012   4.050   0.902 -0.4160  1.1621  1.5257
 8832TIP3    H247912   5.126   4.094   0.991  1.6757  0.1555 -0.5471
 8833TIP3   OH247913   2.699   2.056   2.923  0.2246  0.3794  0.2767
 8833TIP3    H147914   2.628   2.015   2.874  0.8907  0.6386 -0.9379
 8833TIP3    H247915   2.703   2.006   3.005 -0.6209 -0.3547 -0.1132
 8834TIP3   OH247916   5.869   3.414  16.676 -0.0770 -0.2004  0.0751
 8834TIP3    H147917   5.783   3.420  16.717  0.2537  3.4400  0.5207
 8834TIP3    H247918   5.910   3.498  16.693  2.6626 -0.9146 -2.1996
 8835TIP3   OH247919   3.413   2.337   0.803  0.1109 -0.2390 -0.5356
 8835TIP3    H147920   3.417   2.249   0.766  2.0687 -0.2896 -0.3045
 8835TIP3    H247921   3.504   2.365   0.808 -0.4591  1.7769 -0.5112
 8836TIP3   OH247922   0.784   6.511   4.932  0.1221  0.0222  0.0618
 8836TIP3    H147923   0.801   6.431   4.882 -0.7022 -0.5761  0.7209
 8836TIP3    H247924   0.815   6.491   5.020 -0.5217  0.2470  0.3466
 8837TIP3   OH247925   6.051   2.413  13.522 -0.0199  0.4571  1.1766
 8837TIP3    H147926   6.140   2.436  13.496  0.0949 -0.1335  1.0312
 8837TIP3    H247927   6.030   2.335  13.469 -0.8814  1.0087  0.6893
 8838TIP3   OH247928   2.834   2.470  17.001  0.3594 -0.0899 -0.1685
 8838TIP3    H147929   2.895   2.430  16.940 -0.4697  0.0164 -1.0911
 8838TIP3    H247930   2.757   2.413  17.000  0.3780 -0.1664  0.8927
 8839TIP3   OH247931   5.169   6.208  12.700  0.1884 -0.1202  0.2977
 8839TIP3    H147932   5.203   6.125  12.733  1.5248  0.0079 -0.6645
 8839TIP3    H247933   5.233   6.235  12.633 -0.2822  1.6201  0.5046
 8840TIP3   OH247934   4.203   4.773  12.605 -0.0617 -0.0786  0.4204
 8840TIP3    H147935   4.191   4.746  12.696  1.8322 -0.3500  0.6308
 8840TIP3    H247936   4.191   4.693  12.555 -1.4555  0.1396  0.3776
 8841TIP3   OH247937   3.919   1.551  16.804  0.1091 -0.1530 -0.2126
 8841TIP3    H147938   3.940   1.467  16.845 -0.3268 -0.8044 -1.2784
 8841TIP3    H247939   3.890   1.607  16.876 -0.6278 -1.2531  0.3691
 8842TIP3   OH247940   5.935   3.089   3.196  0.0573  0.7865  0.0416
 8842TIP3    H147941   5.924   3.001   3.160  1.0007 -0.1086  1.7689
 8842TIP3    H247942   5.862   3.099   3.257  0.7605  0.5942  0.9293
 8843TIP3   OH247943   5.230   0.566  11.805 -0.2361  0.9441  0.1577
 8843TIP3    H147944   5.135   0.572  11.811 -0.2410  0.3677  0.8067
 8843TIP3    H247945   5.252   0.614  11.725 -0.8967  2.6060  0.9346
 8844TIP3   OH247946   5.670   6.085   6.011 -0.2670  0.6370 -0.0228
 8844TIP3    H147947   5.576   6.068   6.010 -0.6850  2.6898 -0.2765
 8844TIP3    H247948   5.682   6.160   5.952  1.3442  1.2527  1.0069
 8845TIP3   OH247949   6.141   5.680   3.954  0.3186  0.7887 -0.0388
 8845TIP3    H147950   6.080   5.731   3.901  0.2745 -0.5072 -1.2778
 8845TIP3    H247951   6.225   5.687   3.909 -0.0763 -1.7023 -1.3087
 8846TIP3   OH247952   1.008   6.229  15.442  0.0436  0.3552 -0.4936
 8846TIP3    H147953   0.967   6.313  15.422 -0.3735  0.7347  1.7169
 8846TIP3    H247954   1.076   6.219  15.376 -1.1221  1.5089 -1.9400
 8847TIP3   OH247955   2.220   2.770  11.818 -0.0160  0.3908  0.2119
 8847TIP3    H147956   2.310   2.794  11.838  0.5507 -1.5525  0.2247
 8847TIP3    H247957   2.227   2.703  11.750 -1.3987 -0.2588  0.6657
 8848TIP3   OH247958   0.533   6.047  16.429  0.3857  0.6276  0.3804
 8848TIP3    H147959   0.491   5.988  16.366 -0.8778  1.8081  0.0581
 8848TIP3    H247960   0.537   6.131  16.384 -1.1755  1.6863  2.0589
 8849TIP3   OH247961   0.415   2.420   1.441 -0.3921 -0.2691 -0.2736
 8849TIP3    H147962   0.347   2.364   1.479 -0.2541 -0.5095 -0.3751
 8849TIP3    H247963   0.369   2.473   1.375 -0.4224 -0.6799 -0.5923
 8850TIP3   OH247964   3.061   3.836   1.428 -0.1754 -0.0895 -0.0519
 8850TIP3    H147965   3.109   3.857   1.508  0.8085 -1.0129 -0.3913
 8850TIP3    H247966   3.088   3.903   1.366 -0.4240  0.2211  0.1632
 8851TIP3   OH247967   0.255   2.432  10.581 -0.1330  0.5044 -0.0559
 8851TIP3    H147968   0.277   2.397  10.495 -2.0377  0.5439 -0.6109
 8851TIP3    H247969   0.163   2.408  10.594  0.5390 -1.0601  2.7415
 8852TIP3   OH247970   6.397   2.153   5.240  0.5988 -0.0654  0.3512
 8852TIP3    H147971   6.386   2.195   5.155  1.6443  1.3087  0.8531
 8852TIP3    H247972   6.487   2.121   5.239  0.4479 -0.5106  0.7483
 8853TIP3   OH247973   5.277   6.199  13.130 -0.1599 -0.3185  0.2659
 8853TIP3    H147974   5.205   6.261  13.145 -0.2608 -0.6078  1.0226
 8853TIP3    H247975   5.286   6.153  13.214  0.0886 -1.1444 -0.2094
 8854TIP3   OH247976   0.727   0.500   0.516 -0.2071 -0.4612 -0.2829
 8854TIP3    H147977   0.677   0.467   0.441 -0.0994 -0.9387 -0.1469
 8854TIP3    H247978   0.817   0.474   0.499 -0.2444 -0.9314  0.2059
 8855TIP3   OH247979   4.891   4.268  12.364  1.0460 -0.6286 -0.4475
 8855TIP3    H147980   4.888   4.364  12.369  2.8320 -0.4989 -1.1546
 8855TIP3    H247981   4.900   4.239  12.454 -1.1027 -0.2615 -0.0545
 8856TIP3   OH247982   4.947   2.699   5.288 -0.4489  0.3655 -0.1136
 8856TIP3    H147983   5.006   2.731   5.356  1.5545 -0.1431 -1.5283
 8856TIP3    H247984   4.960   2.604   5.287 -2.7567 -0.0111  0.8201
 8857TIP3   OH247985   4.889   4.351  10.837  0.7861 -0.6219  0.3158
 8857TIP3    H147986   4.841   4.433  10.849  0.6354 -0.6145 -0.3089
 8857TIP3    H247987   4.822   4.283  10.849  0.4583 -0.5939 -1.2431
 8858TIP3   OH247988   5.016   2.692  16.344  0.1501 -0.5508  0.3435
 8858TIP3    H147989   5.030   2.602  16.372  0.5732 -0.2401  1.1761
 8858TIP3    H247990   4.932   2.717  16.383  0.5689 -0.2315  1.0581
 8859TIP3   OH247991   4.130   2.488   4.340  0.0095  0.3413 -0.2140
 8859TIP3    H147992   4.220   2.481   4.372 -0.2759  0.7644  0.7474
 8859TIP3    H247993   4.112   2.404   4.298  0.2285 -0.4915  1.2849
 8860TIP3   OH247994   6.674   3.597   1.894 -0.5722 -0.3442  0.1515
 8860TIP3    H147995   6.600   3.656   1.904 -1.1328 -1.2789  1.7290
 8860TIP3    H247996   6.661   3.529   1.960  2.8656  0.6756  2.1480
 8861TIP3   OH247997   2.183   2.556  13.774 -0.0578  0.1362  0.3520
 8861TIP3    H147998   2.222   2.575  13.859 -1.6967  0.8247  0.9896
 8861TIP3    H247999   2.187   2.639  13.726  2.0375 -0.5404 -0.8131
 8862TIP3   OH248000   1.415   1.451  13.628 -0.1897 -0.2969 -0.3917
 8862TIP3    H148001   1.508   1.463  13.647 -0.4844 -1.2024  1.8443
 8862TIP3    H248002   1.371   1.509  13.690 -1.1507  1.2344 -2.3912
 8863TIP3   OH248003   6.527   2.752  15.900 -0.3255 -0.8872  0.4838
 8863TIP3    H148004   6.604   2.758  15.958  0.0705 -1.2452  0.0058
 8863TIP3    H248005   6.564   2.745  15.812 -0.9116  2.1206 -0.1155
 8864TIP3   OH248006   5.978   1.593  10.810 -0.3337  0.1965 -0.0917
 8864TIP3    H148007   5.933   1.631  10.886  1.7638  0.8941  0.8799
 8864TIP3    H248008   6.046   1.657  10.789  0.6265 -1.1084 -1.0760
 8865TIP3   OH248009   6.080   2.773  12.050  0.2961  0.0867  0.8547
 8865TIP3    H148010   6.099   2.783  11.957  0.6222  1.9515  1.0926
 8865TIP3    H248011   5.985   2.782  12.057  0.0346 -1.8627  0.5405
 8866TIP3   OH248012   4.699   0.963   2.908 -0.0159 -0.2362  0.1335
 8866TIP3    H148013   4.650   0.945   2.989 -0.9489  0.8304 -0.1690
 8866TIP3    H248014   4.722   0.876   2.875 -1.2415 -0.7587  0.5850
 8867TIP3   OH248015   3.830   1.938   0.215 -0.7889 -0.5351 -0.2013
 8867TIP3    H148016   3.908   1.961   0.164  0.3300 -0.6777  1.3819
 8867TIP3    H248017   3.770   1.902   0.150 -0.2597  1.2032 -1.7569
 8868TIP3   OH248018   4.819   4.196  12.113 -0.5344 -0.5741  0.8852
 8868TIP3    H148019   4.842   4.211  12.204  0.7406  3.0081  0.1538
 8868TIP3    H248020   4.854   4.273  12.067 -4.3628 -0.3093 -2.0682
 8869TIP3   OH248021   5.178   5.913  14.442 -0.0829  0.0749 -0.1981
 8869TIP3    H148022   5.123   5.964  14.501 -1.3248 -0.7184 -0.6373
 8869TIP3    H248023   5.267   5.946  14.457 -0.0939 -1.0627  3.1652
 8870TIP3   OH248024   3.081   4.355  12.549 -0.1322 -0.0393 -0.3389
 8870TIP3    H148025   3.159   4.393  12.509 -0.5651  0.7056 -0.5029
 8870TIP3    H248026   3.039   4.306  12.478  1.0748 -1.9142  0.1817
 8871TIP3   OH248027   2.050   1.463   1.448 -0.2650  0.8831 -0.0604
 8871TIP3    H148028   2.039   1.546   1.493  0.2229  0.6243  0.5494
 8871TIP3    H248029   2.111   1.413   1.503 -1.1015 -0.1562 -0.0372
 8872TIP3   OH248030   1.389   1.805   2.077 -0.0517  0.1991  0.0834
 8872TIP3    H148031   1.467   1.819   2.131 -0.6319 -0.3730  1.1018
 8872TIP3    H248032   1.340   1.887   2.084  1.3757  1.3268 -2.1853
 8873TIP3   OH248033   6.586   2.031   4.348  0.6609 -0.0446  0.1301
 8873TIP3    H148034   6.661   2.088   4.364  0.5454  0.0605  0.2982
 8873TIP3    H248035   6.578   1.979   4.428  0.2863  0.2503  0.2878
 8874TIP3   OH248036   5.913   0.152  11.897 -0.0767 -0.6708  0.2280
 8874TIP3    H148037   5.925   0.242  11.928 -0.7722 -0.3004 -0.5569
 8874TIP3    H248038   5.822   0.132  11.918 -0.5296 -0.4508 -1.4507
 8875TIP3   OH248039   1.655   1.088  15.321 -0.0189  0.3874  0.2991
 8875TIP3    H148040   1.615   1.151  15.381 -0.3367  0.7710 -0.3104
 8875TIP3    H248041   1.649   1.129  15.235 -0.3322 -0.5218 -0.1201
 8876TIP3   OH248042   4.498   6.182  13.589 -0.6561 -0.2085  0.2021
 8876TIP3    H148043   4.528   6.102  13.545  0.3833  0.1991  0.1542
 8876TIP3    H248044   4.497   6.160  13.682  0.8895  0.1053  0.3108
 8877TIP3   OH248045   2.952   1.230  17.138  0.3804  0.2890 -0.3230
 8877TIP3    H148046   2.902   1.201  17.062 -0.7425 -0.7192  0.7521
 8877TIP3    H248047   3.043   1.206  17.118 -0.2018 -2.1825 -0.3940
 8878TIP3   OH248048   0.147   1.556  13.674 -0.2102  0.4168  0.1178
 8878TIP3    H148049   0.145   1.642  13.716 -0.6234  0.2619  0.4227
 8878TIP3    H248050   0.124   1.574  13.583 -1.4697  0.5042  0.4217
 8879TIP3   OH248051   3.797   0.072   5.255  0.0483  0.1678 -0.2253
 8879TIP3    H148052   3.820   0.007   5.321 -0.6308 -0.7184 -0.8430
 8879TIP3    H248053   3.701   0.074   5.255  0.0336 -0.0887 -1.4037
 8880TIP3   OH248054   5.139   2.832  14.072 -0.2299  0.7020  0.2291
 8880TIP3    H148055   5.057   2.785  14.057  1.0253 -1.6067  0.1522
 8880TIP3    H248056   5.133   2.863  14.162 -1.0420  0.2474  0.3378
 8881TIP3   OH248057   6.244   3.742  14.205 -0.2080  0.6373  0.1720
 8881TIP3    H148058   6.161   3.717  14.246  0.0123 -0.1441  0.1457
 8881TIP3    H248059   6.285   3.660  14.181  0.9493  0.9853  0.8846
 8882TIP3   OH248060   6.730   5.252   0.405  0.2434 -0.4531 -0.4179
 8882TIP3    H148061   6.769   5.340   0.409  1.1560 -0.8947  1.6314
 8882TIP3    H248062   6.738   5.227   0.313  0.9827  1.1578 -0.8409
 8883TIP3   OH248063   3.710   1.081  15.517 -0.2235 -0.6853 -0.2278
 8883TIP3    H148064   3.784   1.066  15.575  0.9678  0.3066 -1.4405
 8883TIP3    H248065   3.633   1.066  15.573  0.8634 -1.5258  1.1090
 8884TIP3   OH248066   6.356   4.107   4.693 -0.7504  0.5627  0.7475
 8884TIP3    H148067   6.412   4.047   4.742 -1.0693 -1.2768 -1.0009
 8884TIP3    H248068   6.416   4.152   4.633 -0.6400  1.3773  1.4533
 8885TIP3   OH248069   4.105   2.707   3.705 -0.2241  0.4754  0.7952
 8885TIP3    H148070   4.027   2.705   3.760 -1.5073 -2.0052 -0.9002
 8885TIP3    H248071   4.082   2.766   3.633  0.1201  1.0227  1.1279
 8886TIP3   OH248072   6.657   0.357  14.496 -0.4989  0.4950 -0.3649
 8886TIP3    H148073   6.694   0.290  14.554 -0.0293  0.6230 -0.5132
 8886TIP3    H248074   6.634   0.429  14.555  0.7116  0.9455 -0.4197
 8887TIP3   OH248075   2.999   2.649  14.044 -0.2961 -0.1447  0.2947
 8887TIP3    H148076   3.051   2.641  13.965  0.1368  1.2230  0.4201
 8887TIP3    H248077   3.015   2.738  14.075  0.3451 -0.9655  2.4933
 8888TIP3   OH248078   2.336   3.410  13.693 -0.4174 -0.6076  0.3739
 8888TIP3    H148079   2.306   3.353  13.764  1.6132 -0.7251  1.1938
 8888TIP3    H248080   2.429   3.388  13.682  0.7505  3.1638  1.3934
 8889TIP3   OH248081   6.024   2.356  15.454 -0.3208  0.1576 -0.2300
 8889TIP3    H148082   5.953   2.317  15.505 -0.5158  0.7680 -0.0288
 8889TIP3    H248083   6.102   2.342  15.508 -0.2384 -0.7148 -0.5543
 8890TIP3   OH248084   4.470   1.247  14.266  0.0607  0.4217  0.1234
 8890TIP3    H148085   4.384   1.238  14.308 -0.3866  1.0643 -0.6238
 8890TIP3    H248086   4.455   1.225  14.174  0.7112  0.4916 -0.0070
 8891TIP3   OH248087   3.081   0.196   5.095  0.4265  0.1236 -0.2455
 8891TIP3    H148088   3.157   0.229   5.142 -0.5801  1.1517  0.7546
 8891TIP3    H248089   3.114   0.123   5.043  2.3377  1.3327 -0.8323
 8892TIP3   OH248090   3.447   4.894  15.507  0.5656  0.3404 -0.1190
 8892TIP3    H148091   3.437   4.910  15.413  1.4163  0.0566 -0.2750
 8892TIP3    H248092   3.496   4.970  15.538 -0.1537  0.6777  0.1964
 8893TIP3   OH248093   2.549   2.261  15.380 -0.8662 -0.0286  0.3989
 8893TIP3    H148094   2.550   2.325  15.309  2.9881 -0.9543 -0.6561
 8893TIP3    H248095   2.502   2.186  15.344 -0.0102 -0.0265 -0.8048
 8894TIP3   OH248096   3.918   6.438  16.697 -0.0979  0.9938 -0.0136
 8894TIP3    H148097   3.844   6.379  16.683 -1.2295  1.7479  2.2569
 8894TIP3    H248098   3.901   6.478  16.782  3.6647  0.1528  1.3496
 8895TIP3   OH248099   0.213   5.045  16.501  0.1831 -0.2109  0.1458
 8895TIP3    H148100   0.216   5.126  16.551  0.9624 -0.5638  0.6882
 8895TIP3    H248101   0.136   5.054  16.445  0.4156  1.0124  0.0058
 8896TIP3   OH248102   0.629   1.885  13.025  0.3706 -0.6270  0.3301
 8896TIP3    H148103   0.536   1.872  13.043  0.2330 -1.5983 -0.9231
 8896TIP3    H248104   0.635   1.975  12.994  0.1565  0.0430  2.1466
 8897TIP3   OH248105   3.861   0.638   4.338 -0.2051 -0.2356 -0.2551
 8897TIP3    H148106   3.859   0.558   4.392  0.1547  0.4402  0.7883
 8897TIP3    H248107   3.953   0.665   4.340 -0.1978 -0.1753 -1.1913
 8898TIP3   OH248108   2.363   1.489  14.773 -0.5117 -0.1776 -0.1959
 8898TIP3    H148109   2.452   1.520  14.757 -1.3862  2.0425 -1.1811
 8898TIP3    H248110   2.338   1.532  14.855 -0.9896 -0.0485 -0.4076
 8899TIP3   OH248111   5.693   6.361   5.838 -0.2703  0.2652  0.2340
 8899TIP3    H148112   5.608   6.324   5.815  0.4959 -0.4198 -1.6524
 8899TIP3    H248113   5.671   6.437   5.892 -1.9643 -1.4719  2.2483
 8900TIP3   OH248114   3.027   1.950  12.726 -0.0129 -0.6709 -0.3684
 8900TIP3    H148115   3.100   1.906  12.682  0.2558 -1.7759  1.0948
 8900TIP3    H248116   3.055   1.957  12.817 -0.7600  1.0804 -0.2248
 8901TIP3   OH248117   5.325   5.497  11.948  0.0718  0.3798  0.1734
 8901TIP3    H148118   5.245   5.545  11.970 -1.1377 -1.1016 -0.8061
 8901TIP3    H248119   5.296   5.424  11.894  1.9462 -0.9324  0.8086
 8902TIP3   OH248120   0.209   4.427   2.654  0.0630 -0.5120 -0.0258
 8902TIP3    H148121   0.303   4.419   2.668  0.3188 -0.3939 -1.5550
 8902TIP3    H248122   0.173   4.344   2.684  0.6304 -0.4999  0.7012
 8903TIP3   OH248123   1.472   4.151   0.839 -0.1019  0.6502 -0.9974
 8903TIP3    H148124   1.546   4.131   0.782 -0.4517 -0.7961 -0.9753
 8903TIP3    H248125   1.396   4.145   0.782 -0.2562  1.8133 -0.9450
 8904TIP3   OH248126   3.754   3.971  17.045  0.2789 -0.5546 -0.3563
 8904TIP3    H148127   3.719   3.886  17.019 -1.3363 -0.0370  0.0058
 8904TIP3    H248128   3.684   4.011  17.097  0.8228  1.1799 -0.8893
 8905TIP3   OH248129   6.572   4.135   5.797 -0.4495  0.0916 -0.5292
 8905TIP3    H148130   6.486   4.142   5.840 -1.1466 -0.9572 -1.6838
 8905TIP3    H248131   6.566   4.195   5.722 -0.4469 -0.4915 -1.0085
 8906TIP3   OH248132   5.227   1.645   1.450  0.0598  0.4897  0.0784
 8906TIP3    H148133   5.226   1.554   1.420  0.2047  0.3650  0.4558
 8906TIP3    H248134   5.193   1.642   1.539  0.0296  0.8121  0.0810
 8907TIP3   OH248135   2.046   4.756   0.302 -0.3388  0.0298 -0.0648
 8907TIP3    H148136   1.951   4.766   0.309 -0.3213  1.8875 -1.6855
 8907TIP3    H248137   2.062   4.664   0.321 -2.1658  0.1781  2.8151
 8908TIP3   OH248138   2.675   0.636  12.588 -0.1757  0.1887  0.5326
 8908TIP3    H148139   2.674   0.720  12.635  0.1083  1.4194 -1.5316
 8908TIP3    H248140   2.700   0.572  12.654 -0.8564  1.6353  2.2973
 8909TIP3   OH248141   3.181   0.095   0.361  0.5776  0.4029 -1.0067
 8909TIP3    H148142   3.232   0.032   0.310 -0.3592  1.1555 -2.9514
 8909TIP3    H248143   3.091   0.065   0.353  0.4964 -0.1584  1.3052
 8910TIP3   OH248144   1.401   5.842   5.878 -0.2416 -0.1631  0.1938
 8910TIP3    H148145   1.331   5.867   5.817 -0.5945  2.0582  1.4296
 8910TIP3    H248146   1.482   5.858   5.830 -0.5371 -0.1111 -0.2911
 8911TIP3   OH248147   2.162   0.047  14.920 -0.3477  0.2303  0.0685
 8911TIP3    H148148   2.175   0.138  14.947 -1.5830  1.0800 -1.9321
 8911TIP3    H248149   2.093   0.052  14.853  0.0848 -2.0769 -0.6231
 8912TIP3   OH248150   1.260   4.928   3.009  0.0772 -0.8181  1.0366
 8912TIP3    H148151   1.249   5.021   3.031 -1.1625 -0.2114 -1.6417
 8912TIP3    H248152   1.235   4.881   3.088 -2.2867  1.1194  1.5652
 8913TIP3   OH248153   2.216   0.567  13.901 -0.3011 -0.3405 -0.1775
 8913TIP3    H148154   2.217   0.626  13.824 -1.8190 -1.8758 -1.4462
 8913TIP3    H248155   2.123   0.555  13.920 -0.1607 -3.6341 -1.0671
 8914TIP3   OH248156   3.821   4.073   6.426  0.0372  0.4219 -0.1125
 8914TIP3    H148157   3.801   4.010   6.358  0.7337  0.0257  0.0346
 8914TIP3    H248158   3.745   4.072   6.484 -0.4908  0.6543 -0.7994
 8915TIP3   OH248159   3.800   6.012  15.090 -0.0003  0.1196 -0.2774
 8915TIP3    H148160   3.753   6.074  15.145 -0.8844 -1.0216  0.3141
 8915TIP3    H248161   3.891   6.021  15.115  0.1173  2.1660 -1.2143
 8916TIP3   OH248162   2.384   5.209   5.155  0.1072 -0.0711  0.5582
 8916TIP3    H148163   2.362   5.289   5.204  0.0818  0.0863  0.2890
 8916TIP3    H248164   2.474   5.225   5.124 -0.5749  0.6848 -1.1575
 8917TIP3   OH248165   0.695   2.667   5.214 -0.1241 -0.4564 -0.4898
 8917TIP3    H148166   0.671   2.759   5.226  0.6159 -0.1321 -1.3572
 8917TIP3    H248167   0.697   2.656   5.119 -0.3176 -1.4038 -0.3886
 8918TIP3   OH248168   6.476   4.631   0.682 -0.0557 -0.3680  0.1290
 8918TIP3    H148169   6.457   4.660   0.771 -0.5664 -1.7525  0.5023
 8918TIP3    H248170   6.567   4.601   0.686  0.0948  0.0797  0.0465
 8919TIP3   OH248171   4.671   5.625  14.191 -0.4459 -0.1467 -0.6781
 8919TIP3    H148172   4.676   5.614  14.096 -1.0571  2.1015 -1.0224
 8919TIP3    H248173   4.584   5.662  14.207 -0.5687 -0.9863  0.8407
 8920TIP3   OH248174   2.561   1.234  14.873  0.5982 -0.5042  0.6555
 8920TIP3    H148175   2.519   1.221  14.958 -1.3648  0.1128 -0.1610
 8920TIP3    H248176   2.527   1.318  14.842  1.5942 -0.5206 -0.5694
 8921TIP3   OH248177   1.795   4.599   0.010  0.1635  0.4666  0.7567
 8921TIP3    H148178   1.826   4.688  -0.005  0.9373  0.1780  0.6115
 8921TIP3    H248179   1.875   4.546   0.012 -0.3618 -0.3980 -0.3152
 8922TIP3   OH248180   1.906   5.084  10.489 -0.5367 -0.0829 -0.3865
 8922TIP3    H148181   1.876   5.168  10.524 -0.4457 -0.0740 -0.3278
 8922TIP3    H248182   1.934   5.104  10.399 -0.6357 -0.0758 -0.4152
 8923TIP3   OH248183   0.656   1.621  16.174 -0.8180 -0.1430 -0.0077
 8923TIP3    H148184   0.640   1.569  16.095 -0.8586 -0.9945  0.5510
 8923TIP3    H248185   0.746   1.652  16.164 -0.3602 -1.3388  0.2120
 8924TIP3   OH248186   2.824   4.861  10.901  0.0877 -0.3291 -0.3330
 8924TIP3    H148187   2.791   4.858  10.811 -0.1913 -1.0362 -0.2119
 8924TIP3    H248188   2.781   4.936  10.940  1.5728  1.0965 -1.3106
 8925TIP3   OH248189   5.015   4.790   5.039 -0.4884 -0.1946  0.3934
 8925TIP3    H148190   5.011   4.868   4.984 -0.1531 -0.9342 -0.7147
 8925TIP3    H248191   4.945   4.802   5.103  0.4004  1.6321  1.1015
 8926TIP3   OH248192   4.292   1.972   4.310  0.0239  0.0383 -0.0638
 8926TIP3    H148193   4.299   2.063   4.280  0.6755  0.2321  0.6510
 8926TIP3    H248194   4.225   1.934   4.254 -1.2056  1.3100  0.4877
 8927TIP3   OH248195   4.596   1.343  17.093 -0.6554 -0.0493 -0.4238
 8927TIP3    H148196   4.619   1.253  17.069 -1.4560 -1.2385  2.7275
 8927TIP3    H248197   4.676   1.393  17.080  1.2861 -2.2465  1.9937
 8928TIP3   OH248198   4.377   6.013  13.855  0.3294 -0.0395 -0.2482
 8928TIP3    H148199   4.330   5.945  13.903 -0.5990  1.1803  0.6383
 8928TIP3    H248200   4.320   6.090  13.860  1.5223  0.9234 -0.8830
 8929TIP3   OH248201   5.925   3.513   0.703 -0.2097 -0.0062 -0.2643
 8929TIP3    H148202   5.920   3.448   0.633  0.2548 -0.2037 -0.1222
 8929TIP3    H248203   6.012   3.551   0.694 -0.2174  0.1001  0.0888
 8930TIP3   OH248204   3.729   0.024  11.168 -0.1275  0.0351 -0.7163
 8930TIP3    H148205   3.764  -0.065  11.180 -0.0553  0.1269 -0.1873
 8930TIP3    H248206   3.750   0.046  11.078 -0.5730 -0.6678 -1.0042
 8931TIP3   OH248207   5.171   5.124  10.694  0.3485  0.7126 -0.2368
 8931TIP3    H148208   5.145   5.192  10.632  0.5190  0.7554 -0.2622
 8931TIP3    H248209   5.266   5.121  10.688  0.3882  0.8992  0.2160
 8932TIP3   OH248210   5.378   6.034   5.119 -0.2202 -0.2418 -0.6001
 8932TIP3    H148211   5.289   6.041   5.153 -0.1928 -2.0997 -0.0608
 8932TIP3    H248212   5.376   5.959   5.060  0.7826  0.2773 -1.3369
 8933TIP3   OH248213   6.168   1.803  10.732 -0.4330 -0.0095 -0.3377
 8933TIP3    H148214   6.220   1.854  10.794  0.0396 -1.6098  0.6455
 8933TIP3    H248215   6.232   1.761  10.675 -0.7654 -0.0621 -0.6736
 8934TIP3   OH248216   5.437   0.273  14.848 -0.4748  0.3421 -0.4065
 8934TIP3    H148217   5.499   0.267  14.775 -0.1920  0.5129 -0.1859
 8934TIP3    H248218   5.409   0.364  14.848  2.5153  1.4532  2.0663
 8935TIP3   OH248219   2.472   1.973  13.094 -0.3496 -0.3373  0.8567
 8935TIP3    H148220   2.425   2.052  13.120  0.6979  0.3034  0.8809
 8935TIP3    H248221   2.490   1.985  13.001 -0.7002 -0.8281  0.7204
 8936TIP3   OH248222   5.637   0.946  15.620  0.1796  0.4137 -0.4593
 8936TIP3    H148223   5.559   0.904  15.658 -0.2304  1.3595 -0.2009
 8936TIP3    H248224   5.601   1.019  15.569  0.8658  0.4518 -0.8919
 8937TIP3   OH248225   2.430   1.641   5.330 -0.3297  0.5176  0.5084
 8937TIP3    H148226   2.397   1.725   5.299 -0.2680  0.3336 -0.0694
 8937TIP3    H248227   2.489   1.663   5.403  0.5237  1.0507 -0.3288
 8938TIP3   OH248228   6.723   5.280  13.724  0.1964 -0.0632 -0.5647
 8938TIP3    H148229   6.780   5.356  13.734  0.7511 -0.4428 -0.8063
 8938TIP3    H248230   6.782   5.205  13.728 -0.2854 -0.4614 -0.8401
 8939TIP3   OH248231   1.387   0.730   0.434 -0.5247 -0.1054  0.4388
 8939TIP3    H148232   1.337   0.668   0.487 -1.9021 -0.0898 -0.7679
 8939TIP3    H248233   1.329   0.805   0.424  0.7742  1.0410  1.1253
 8940TIP3   OH248234   4.270   5.016   0.384 -0.6125 -0.2550  0.8151
 8940TIP3    H148235   4.286   4.932   0.427  0.6624 -0.4769 -0.0415
 8940TIP3    H248236   4.294   5.081   0.450 -0.3280 -0.5662  1.0233
 8941TIP3   OH248237   5.501   4.505  13.843  0.2346  0.5459 -0.2564
 8941TIP3    H148238   5.421   4.539  13.803  1.3159  0.7425 -2.4285
 8941TIP3    H248239   5.558   4.582  13.853  0.2701  0.3688  1.0101
 8942TIP3   OH248240   0.910   5.221   0.399  0.3334 -0.0691  0.4495
 8942TIP3    H148241   0.891   5.152   0.463  0.3130 -1.3953 -0.9262
 8942TIP3    H248242   0.991   5.193   0.356  0.5790  1.0054  0.1735
 8943TIP3   OH248243   1.754   0.840  12.618 -0.7428 -0.0751 -0.1718
 8943TIP3    H148244   1.784   0.911  12.562  0.2332  0.3059  0.8084
 8943TIP3    H248245   1.699   0.882  12.684 -2.0547 -0.5479 -0.9087
 8944TIP3   OH248246   2.981   1.904   0.719 -0.9142 -0.7096 -0.0267
 8944TIP3    H148247   3.031   1.983   0.739 -2.6326  0.1498  1.1131
 8944TIP3    H248248   3.007   1.842   0.788 -0.6612 -0.6214 -0.0420
 8945TIP3   OH248249   1.409   4.124  14.717  0.1320  0.1118 -0.2500
 8945TIP3    H148250   1.412   4.056  14.784 -0.5026 -0.4772 -0.7976
 8945TIP3    H248251   1.331   4.175  14.738  0.1503  0.1632 -0.3068
 8946TIP3   OH248252   4.656   2.186  10.697  0.1303  0.3538  0.2813
 8946TIP3    H148253   4.747   2.200  10.670 -0.0060  2.9254  0.9237
 8946TIP3    H248254   4.661   2.157  10.788  0.3019 -0.3685  0.0519
 8947TIP3   OH248255   0.234   6.162  11.420 -0.2133  0.3453 -0.0316
 8947TIP3    H148256   0.329   6.166  11.406 -0.1906 -2.7388 -1.9112
 8947TIP3    H248257   0.196   6.197  11.339 -0.7859  2.3094  1.0209
 8948TIP3   OH248258   1.851   4.218   5.134 -0.0652  0.6315  0.8442
 8948TIP3    H148259   1.810   4.291   5.088  1.7881  0.7340 -0.7764
 8948TIP3    H248260   1.915   4.259   5.192  2.6246  0.4133 -1.6978
 8949TIP3   OH248261   5.087   4.191   4.866 -0.5366 -0.0459  0.6077
 8949TIP3    H148262   5.107   4.236   4.948 -2.6034 -1.5925  2.0353
 8949TIP3    H248263   5.165   4.139   4.847  0.2858  0.9722  1.1098
 8950TIP3   OH248264   0.243   3.626   3.446  0.4778 -0.1445  0.4209
 8950TIP3    H148265   0.196   3.651   3.367  0.9148 -1.0992 -0.1574
 8950TIP3    H248266   0.335   3.638   3.425  0.5612  3.1595  2.0389
 8951TIP3   OH248267   3.234   5.808   2.571  0.0374 -0.3732 -0.0373
 8951TIP3    H148268   3.222   5.876   2.505  1.2827 -0.1561 -0.0725
 8951TIP3    H248269   3.207   5.727   2.528  1.6440 -0.3698 -1.1526
 8952TIP3   OH248270   1.252   3.295   4.387  0.6273 -0.5410 -0.1075
 8952TIP3    H148271   1.261   3.382   4.349  0.3017 -0.7191 -0.6110
 8952TIP3    H248272   1.310   3.240   4.334  0.3110 -0.7570 -0.2324
 8953TIP3   OH248273   4.792   4.267   1.167 -0.4109  0.1348  0.9875
 8953TIP3    H148274   4.732   4.339   1.185 -0.3928 -0.0828  1.9721
 8953TIP3    H248275   4.800   4.266   1.072 -1.3458  0.6690  0.8876
 8954TIP3   OH248276   3.506   6.733   0.817  0.0683  0.0405 -0.1987
 8954TIP3    H148277   3.461   6.741   0.733  3.0360  1.1257 -1.8312
 8954TIP3    H248278   3.516   6.638   0.830 -0.3558 -0.1449 -1.1346
 8955TIP3   OH248279   2.489   0.788  14.857 -0.3987  0.5602 -0.0642
 8955TIP3    H148280   2.434   0.839  14.915 -0.9198  1.3851 -1.2520
 8955TIP3    H248281   2.492   0.838  14.776 -0.5541 -1.0677 -1.1165
 8956TIP3   OH248282   3.953   2.996  16.793  0.3394  0.1755 -0.6156
 8956TIP3    H148283   3.888   3.033  16.853  0.1135  0.7168 -1.1839
 8956TIP3    H248284   4.029   2.977  16.848  0.5654  1.7367 -0.3351
 8957TIP3   OH248285   1.340   5.587   6.454 -0.0121 -0.0582  0.2600
 8957TIP3    H148286   1.393   5.563   6.530 -0.5990 -0.8672  0.4323
 8957TIP3    H248287   1.404   5.605   6.385  0.5013 -0.1928  0.6907
 8958TIP3   OH248288   4.381   1.900   5.756  0.0289  0.5182  0.1014
 8958TIP3    H148289   4.442   1.903   5.830 -0.4459  1.3244  0.4668
 8958TIP3    H248290   4.381   1.989   5.721  1.1805 -0.1149 -1.6502
 8959TIP3   OH248291   1.032   2.490   4.616 -0.2413  0.0021  0.4721
 8959TIP3    H148292   0.974   2.418   4.595 -1.4074  0.5951  1.5084
 8959TIP3    H248293   0.974   2.564   4.633  0.9084  1.2103 -0.5644
 8960TIP3   OH248294   4.093   4.092   4.292  0.0603 -0.0472 -0.0783
 8960TIP3    H148295   4.184   4.074   4.265 -0.3057 -1.4988 -0.4358
 8960TIP3    H248296   4.042   4.077   4.213 -0.5866 -0.0842  0.3465
 8961TIP3   OH248297   5.169   0.593  17.096 -0.0332 -0.2462 -0.3616
 8961TIP3    H148298   5.229   0.584  17.170 -1.1738 -1.4043  0.4751
 8961TIP3    H248299   5.165   0.687  17.080  1.9685 -0.1382 -0.4512
 8962TIP3   OH248300   3.050   4.854   3.489  0.1097 -0.1842  0.4945
 8962TIP3    H148301   2.957   4.865   3.507 -0.1422 -1.9295  0.3867
 8962TIP3    H248302   3.066   4.907   3.411 -1.3255 -1.6539 -0.8652
 8963TIP3   OH248303   2.229   4.906  16.623 -0.5539  0.5495 -0.2302
 8963TIP3    H148304   2.200   4.943  16.540  0.0073 -0.6538 -0.9991
 8963TIP3    H248305   2.258   4.981  16.675  0.9539  1.1757 -1.8893
 8964TIP3   OH248306   0.005   2.562  12.112 -0.2437  0.0818 -0.4797
 8964TIP3    H148307   0.011   2.504  12.187 -1.5600  1.3313  0.6530
 8964TIP3    H248308  -0.045   2.512  12.047  2.1978 -1.5859 -1.1865
 8965TIP3   OH248309   0.803   3.919  11.084  0.1690  0.3007  0.2656
 8965TIP3    H148310   0.714   3.883  11.085 -0.6329  2.0993 -0.6565
 8965TIP3    H248311   0.846   3.881  11.160 -2.2459  1.4287  2.3169
 8966TIP3   OH248312   1.461   5.699  15.566 -0.2801  0.4773 -0.4133
 8966TIP3    H148313   1.505   5.707  15.482  0.4334 -0.7835 -0.1870
 8966TIP3    H248314   1.476   5.608  15.592 -0.5125  0.8395  1.0636
 8967TIP3   OH248315   2.891   5.119  15.595  0.3304  0.1037 -0.3708
 8967TIP3    H148316   2.923   5.078  15.515 -1.2535 -0.7787 -0.5918
 8967TIP3    H248317   2.798   5.096  15.598  0.0863  1.1715  1.0792
 8968TIP3   OH248318   1.165   1.208   5.409 -0.0946 -0.2667  0.0864
 8968TIP3    H148319   1.226   1.170   5.346  1.0483 -0.4039  1.2345
 8968TIP3    H248320   1.221   1.250   5.474 -1.2686  0.6261  0.5555
 8969TIP3   OH248321   3.170   5.913  11.856  0.8803 -0.0395 -0.0510
 8969TIP3    H148322   3.126   5.951  11.931  1.6555  0.3437  0.2112
 8969TIP3    H248323   3.255   5.884  11.889 -0.6779 -4.8525  0.5861
 8970TIP3   OH248324   1.582   3.786  15.332  1.1251  0.3056 -0.0003
 8970TIP3    H148325   1.544   3.705  15.365  0.4807  0.4270 -0.4184
 8970TIP3    H248326   1.673   3.784  15.361  1.7955 -1.6829 -1.9504
 8971TIP3   OH248327   5.744   5.212   2.287 -0.5901 -0.4612  0.2136
 8971TIP3    H148328   5.729   5.183   2.377 -1.5579 -1.8755 -0.3515
 8971TIP3    H248329   5.807   5.283   2.294  1.3419 -2.2297  1.7919
 8972TIP3   OH248330   4.461   0.924  16.841 -0.3028  0.3640 -0.2633
 8972TIP3    H148331   4.369   0.946  16.833 -0.2609  0.7807  0.3577
 8972TIP3    H248332   4.477   0.860  16.772 -1.5902 -1.4269  1.0197
 8973TIP3   OH248333   5.927   3.870  13.752 -0.0599  0.0356  0.2905
 8973TIP3    H148334   5.911   3.882  13.845  0.4005  0.9001  0.2649
 8973TIP3    H248335   5.996   3.932  13.730 -0.0251 -0.2863 -0.5921
 8974TIP3   OH248336   2.605   3.437  10.823  0.4705 -0.5159  0.0892
 8974TIP3    H148337   2.529   3.466  10.873  0.2524  0.3468 -0.7374
 8974TIP3    H248338   2.678   3.488  10.860 -0.0575  1.9204 -1.9985
 8975TIP3   OH248339   6.125   6.073  15.025 -0.5303 -0.1950  0.7443
 8975TIP3    H148340   6.161   6.014  15.092  0.0499  1.3212  1.8272
 8975TIP3    H248341   6.192   6.075  14.957 -1.3195 -2.1058 -0.1772
 8976TIP3   OH248342   4.933   3.117   2.181 -0.3090  0.5796  0.2270
 8976TIP3    H148343   4.860   3.058   2.160 -0.5904  1.6246 -2.0450
 8976TIP3    H248344   5.010   3.060   2.181 -0.7018 -0.0058 -0.9220
 8977TIP3   OH248345   5.148   2.981  16.616 -0.6618  0.2808  0.2151
 8977TIP3    H148346   5.188   2.900  16.648  0.3603  0.9953  0.8089
 8977TIP3    H248347   5.091   3.010  16.687  0.5565  1.1421  0.8845
 8978TIP3   OH248348   4.165   4.292  16.302 -0.3169 -0.5088 -0.3076
 8978TIP3    H148349   4.140   4.202  16.280 -0.1903 -0.5510 -0.2738
 8978TIP3    H248350   4.089   4.326  16.349 -0.7419 -0.3068 -1.1065
 8979TIP3   OH248351   4.003   6.164  13.331  0.2758  0.1645  0.3670
 8979TIP3    H148352   4.085   6.159  13.379 -0.2309 -1.0887  1.1501
 8979TIP3    H248353   3.967   6.249  13.353  0.2148 -0.2518  1.9794
 8980TIP3   OH248354   2.288   2.909   1.983 -0.3460 -0.5852 -0.4880
 8980TIP3    H148355   2.272   3.003   1.987  0.3548 -0.4150 -1.2581
 8980TIP3    H248356   2.384   2.901   1.981 -0.4061 -1.2823 -0.9950
 8981TIP3   OH248357   2.815   4.830  13.836  0.3373 -0.2773  0.0340
 8981TIP3    H148358   2.778   4.785  13.911 -0.1539 -0.6039 -0.3966
 8981TIP3    H248359   2.885   4.883  13.872  0.3337 -0.6975  0.6736
 8982TIP3   OH248360   4.733   1.435  11.685 -0.1110 -0.0273  0.5258
 8982TIP3    H148361   4.711   1.419  11.593 -0.4018 -1.2259  0.7942
 8982TIP3    H248362   4.805   1.375  11.703  1.9314  2.1868  0.3152
 8983TIP3   OH248363   6.574   4.905   3.004 -0.0345  0.8612 -0.4332
 8983TIP3    H148364   6.483   4.921   2.978 -0.4390  1.3643  1.1718
 8983TIP3    H248365   6.616   4.991   2.997  0.4794  0.5392 -1.6389
 8984TIP3   OH248366   2.154   0.050   5.344  0.1890  0.3405  0.5931
 8984TIP3    H148367   2.212   0.125   5.354 -0.3628  0.7994  0.4669
 8984TIP3    H248368   2.143   0.042   5.249 -1.5141  1.5246  0.6384
 8985TIP3   OH248369   5.797   5.533  15.135 -0.3832 -0.1262 -0.0677
 8985TIP3    H148370   5.723   5.572  15.087  0.3740  1.4148 -0.0296
 8985TIP3    H248371   5.769   5.535  15.227 -0.2469  0.6319 -0.0313
 8986TIP3   OH248372   5.536   3.756  16.281 -0.4254  0.1768 -0.6229
 8986TIP3    H148373   5.492   3.838  16.258 -1.0545  0.0491  0.1066
 8986TIP3    H248374   5.593   3.738  16.206 -2.0101  0.0435 -1.8487
 8987TIP3   OH248375   3.092   5.845  12.864  0.1682  0.0202  0.1233
 8987TIP3    H148376   3.032   5.821  12.934 -0.1661 -0.2988 -0.2647
 8987TIP3    H248377   3.118   5.761  12.825 -0.5456  0.2476 -0.8667
 8988TIP3   OH248378   2.877   6.606   0.187  0.0061 -0.1786  0.2757
 8988TIP3    H148379   2.791   6.562   0.188 -0.9790  1.5017 -1.9052
 8988TIP3    H248380   2.935   6.542   0.146 -0.7418 -0.5374 -0.2628
 8989TIP3   OH248381   6.288   4.274   5.527  0.3548 -0.3332  0.0065
 8989TIP3    H148382   6.218   4.326   5.566  0.4242 -1.8682  2.4214
 8989TIP3    H248383   6.369   4.318   5.554  0.3683 -0.1902 -0.2673
 8990TIP3   OH248384   6.644   3.132  12.071  0.0312 -0.1924 -0.1633
 8990TIP3    H148385   6.671   3.083  11.993 -0.4664 -2.8123  1.2188
 8990TIP3    H248386   6.640   3.067  12.141 -2.5147  1.4543  1.4048
 8991TIP3   OH248387   5.020   2.868   6.352 -0.2297  0.4721 -0.3694
 8991TIP3    H148388   5.102   2.866   6.403  0.2537 -0.2914 -1.1448
 8991TIP3    H248389   4.990   2.777   6.352  0.5310  0.1552 -2.5804
 8992TIP3   OH248390   2.076   3.076  16.439  0.1269  0.2239 -0.5603
 8992TIP3    H148391   2.026   3.113  16.366 -2.0171 -1.3480 -0.0079
 8992TIP3    H248392   2.089   2.984  16.414  0.6245  0.0284  0.3894
 8993TIP3   OH248393   4.462   2.939   3.039 -0.0050  0.3789  0.1101
 8993TIP3    H148394   4.423   2.993   2.970  0.3072  0.0041 -0.3634
 8993TIP3    H248395   4.519   2.878   2.993 -0.2506 -0.2731  0.6555
 8994TIP3   OH248396   2.910   2.147   0.066 -0.8973 -0.1048 -0.0383
 8994TIP3    H148397   2.944   2.119   0.151 -0.4760 -1.4969 -0.6493
 8994TIP3    H248398   2.945   2.235   0.054  0.6217 -0.6267  0.3724
 8995TIP3   OH248399   2.446   3.192   3.892 -0.8221 -0.0133 -0.1078
 8995TIP3    H148400   2.519   3.129   3.892 -0.1448  0.7564 -0.4840
 8995TIP3    H248401   2.368   3.137   3.885 -0.3621 -0.9359  1.5285
 8996TIP3   OH248402   3.410   6.401   5.453  0.7071 -0.0269 -0.2098
 8996TIP3    H148403   3.332   6.409   5.508  0.5526 -0.9028 -0.2887
 8996TIP3    H248404   3.410   6.480   5.399  0.0474  0.1241  0.0060
 8997TIP3   OH248405   1.292   3.648  16.663 -0.2217 -0.1749  0.2769
 8997TIP3    H148406   1.291   3.626  16.570  0.5422 -3.1210  0.8639
 8997TIP3    H248407   1.381   3.680  16.678 -0.5464  0.9492 -0.0965
 8998TIP3   OH248408   6.244   2.916  12.208 -0.3379 -0.1829 -0.3318
 8998TIP3    H148409   6.169   2.871  12.170  0.0378 -1.0405 -0.0856
 8998TIP3    H248410   6.310   2.915  12.139  0.1533 -1.2603  0.1242
 8999TIP3   OH248411   0.779   4.355  12.698  0.1031 -0.2481  0.7290
 8999TIP3    H148412   0.847   4.413  12.732 -0.1034  0.7809 -0.5471
 8999TIP3    H248413   0.762   4.293  12.769  1.0064  0.6677  1.7689
 9000TIP3   OH248414   3.399   2.241  17.007 -0.2360 -0.8158  0.6039
 9000TIP3    H148415   3.336   2.306  17.039 -0.0706 -0.7991  0.9011
 9000TIP3    H248416   3.369   2.158  17.043 -1.3453 -1.1743 -1.0378
 9001TIP3   OH248417   6.369   0.581  16.250  0.0145 -0.4707  0.4136
 9001TIP3    H148418   6.301   0.514  16.245  0.8906 -1.5139  1.7585
 9001TIP3    H248419   6.418   0.571  16.169  0.0290 -1.3498  0.5192
 9002TIP3   OH248420   1.516   6.610  16.626  0.4585  0.6462 -0.0818
 9002TIP3    H148421   1.577   6.654  16.567 -1.1174  1.5528 -1.1323
 9002TIP3    H248422   1.473   6.682  16.673  0.7509 -0.0080  1.2180
 9003TIP3   OH248423   1.584   0.493   5.903 -0.3695 -0.2374 -0.2725
 9003TIP3    H148424   1.578   0.483   5.808  2.0934  0.5731 -0.5907
 9003TIP3    H248425   1.663   0.545   5.917 -0.6068 -0.4052  2.2538
 9004TIP3   OH248426   6.747   1.209   0.585  0.4523  0.0984  0.4792
 9004TIP3    H148427   6.684   1.199   0.656  0.3353 -0.0015  0.3639
 9004TIP3    H248428   6.813   1.269   0.619  1.5137 -1.5374  1.4512
 9005TIP3   OH248429   6.427   5.618  13.558  0.8236  0.4853  0.0129
 9005TIP3    H148430   6.465   5.695  13.599 -2.3985  1.8668  0.7059
 9005TIP3    H248431   6.358   5.653  13.501  1.6717 -1.7189 -2.5927
 9006TIP3   OH248432   2.830   1.440  15.497  0.6405  0.2526  0.1948
 9006TIP3    H148433   2.792   1.397  15.420  1.3114 -3.0191  1.5588
 9006TIP3    H248434   2.919   1.464  15.470 -0.1549  2.1950 -0.9886
 9007TIP3   OH248435   6.522   2.431  14.481  0.2709  0.0392  0.5218
 9007TIP3    H148436   6.430   2.445  14.504  0.5176 -0.0011  1.5616
 9007TIP3    H248437   6.526   2.339  14.454 -0.4841  0.6811 -2.0929
 9008TIP3   OH248438   1.537   5.167   2.561  0.1490  0.0434 -0.0256
 9008TIP3    H148439   1.574   5.233   2.502  0.0177  1.0070  0.9318
 9008TIP3    H248440   1.446   5.157   2.531  0.7497 -1.3166 -1.5173
 9009TIP3   OH248441   6.075   4.556   0.346  0.3138  0.5109 -0.2221
 9009TIP3    H148442   6.052   4.630   0.402  0.9271  0.1452  0.5492
 9009TIP3    H248443   6.017   4.485   0.376  1.8996 -0.2338  1.3044
 9010TIP3   OH248444   0.171   1.143   2.013 -0.0603 -0.1233 -0.6022
 9010TIP3    H148445   0.204   1.055   2.033 -1.4087 -0.5245 -0.0058
 9010TIP3    H248446   0.249   1.194   1.994  1.2084 -0.3682  3.1847
 9011TIP3   OH248447   2.409   2.512  16.469  0.2096  0.8767  0.3765
 9011TIP3    H148448   2.457   2.588  16.437  2.0676  0.0929  1.1333
 9011TIP3    H248449   2.460   2.482  16.545 -1.9990  0.5159  1.8069
 9012TIP3   OH248450   0.849   1.135   0.414  0.5227  0.0826  0.1391
 9012TIP3    H148451   0.899   1.211   0.383 -0.2231  0.2744 -0.6305
 9012TIP3    H248452   0.797   1.168   0.486 -0.7800  0.6529 -1.0193
 9013TIP3   OH248453   3.111   4.506   3.500  0.6292 -0.5821 -0.3712
 9013TIP3    H148454   3.074   4.590   3.473  0.5946 -0.6143 -0.4255
 9013TIP3    H248455   3.200   4.527   3.527  0.9662 -0.6711 -1.3443
 9014TIP3   OH248456   5.058   2.669   3.528  0.4456  0.1985  0.2912
 9014TIP3    H148457   5.088   2.589   3.571  0.1928  0.6873  1.4377
 9014TIP3    H248458   5.128   2.693   3.468  0.1164 -1.3750 -0.7449
 9015TIP3   OH248459   6.053   1.734   3.092  0.2092  0.0487 -0.2568
 9015TIP3    H148460   6.006   1.751   3.174 -0.2471  2.0366 -0.8956
 9015TIP3    H248461   6.114   1.663   3.115 -1.3180 -0.8627  1.2408
 9016TIP3   OH248462   5.065   5.572  16.823 -0.5583  0.1301  0.0261
 9016TIP3    H148463   5.067   5.593  16.730  3.8327 -0.2760 -0.1864
 9016TIP3    H248464   5.058   5.657  16.867  1.5476  0.7657 -0.7625
 9017TIP3   OH248465   6.759   3.409  17.075 -0.3504  0.0914 -0.1772
 9017TIP3    H148466   6.774   3.496  17.113 -0.0813  0.1583 -0.4340
 9017TIP3    H248467   6.826   3.400  17.007  2.3367 -1.9610  2.4746
 9018TIP3   OH248468   5.921   1.792   5.400 -0.0340  0.2567 -0.1025
 9018TIP3    H148469   5.941   1.783   5.493 -1.2163  2.2791  0.3941
 9018TIP3    H248470   5.936   1.704   5.364  1.8156 -0.2284  1.6939
 9019TIP3   OH248471   3.056   0.885   0.771  0.1243 -0.5904  0.5074
 9019TIP3    H148472   3.056   0.789   0.769  1.9476 -0.6323 -0.7558
 9019TIP3    H248473   3.145   0.909   0.744 -0.5024  1.4591  0.0808
 9020TIP3   OH248474   2.380   2.348  13.819 -0.1858 -0.3839  0.3321
 9020TIP3    H148475   2.326   2.426  13.805  1.4206  0.3335 -2.7628
 9020TIP3    H248476   2.463   2.382  13.853  0.7375 -0.5847 -1.5987
 9021TIP3   OH248477   4.268   0.011   0.486  0.1794 -0.1389 -0.2090
 9021TIP3    H148478   4.312  -0.070   0.462  1.6591  0.3085  0.8741
 9021TIP3    H248479   4.224  -0.009   0.569 -0.5624 -0.1978 -0.6079
 9022TIP3   OH248480   0.551   5.409  12.504  0.4022 -0.7323 -0.2398
 9022TIP3    H148481   0.633   5.361  12.492  0.3429 -0.9056  0.0382
 9022TIP3    H248482   0.569   5.496  12.468  0.8988 -0.5800  0.3594
 9023TIP3   OH248483   3.234   1.323  15.932 -0.0514  0.1919 -0.3717
 9023TIP3    H148484   3.313   1.309  15.881 -0.5475  0.4015 -1.2185
 9023TIP3    H248485   3.165   1.333  15.867 -0.3347  2.8294  0.2340
 9024TIP3   OH248486   3.741   4.813  14.875 -0.1565  0.0451  0.4449
 9024TIP3    H148487   3.713   4.898  14.840  0.2995 -0.0931 -0.2711
 9024TIP3    H248488   3.663   4.777  14.917 -0.3209  0.8701  0.8585
 9025TIP3   OH248489   3.036   4.205  16.083  0.2499  0.1792 -0.5984
 9025TIP3    H148490   3.058   4.194  16.176  1.8629  0.7178 -0.8931
 9025TIP3    H248491   3.118   4.191  16.037 -0.7989 -1.5445 -2.1084
 9026TIP3   OH248492   5.923   0.572   0.620 -0.2177  0.0995  0.5654
 9026TIP3    H148493   6.008   0.608   0.596  0.0321 -0.5980  0.3645
 9026TIP3    H248494   5.896   0.521   0.544 -1.4001  1.2973  0.1478
 9027TIP3   OH248495   5.132   6.550   3.536  0.5437 -0.0747 -0.1607
 9027TIP3    H148496   5.166   6.503   3.460 -0.6225 -1.3560  0.0583
 9027TIP3    H248497   5.210   6.580   3.583  1.2730  1.0376 -2.0113
 9028TIP3   OH248498   6.324   2.097   4.712  0.0697 -0.5082  0.0985
 9028TIP3    H148499   6.297   2.158   4.644  0.5740 -0.3447  0.0368
 9028TIP3    H248500   6.315   2.011   4.672  2.3167 -0.3463 -0.9445
 9029TIP3   OH248501   2.808   4.110  13.261 -0.2892  0.3111  0.3727
 9029TIP3    H148502   2.762   4.172  13.317  0.0818  0.6172  0.3485
 9029TIP3    H248503   2.746   4.038  13.247 -0.8241  0.7973  0.1908
 9030TIP3   OH248504   0.757   6.441  16.665  0.1441 -0.1284  0.2111
 9030TIP3    H148505   0.844   6.416  16.695  0.0241 -0.1311  0.5588
 9030TIP3    H248506   0.718   6.359  16.635  0.8404  0.1072 -1.4613
 9031TIP3   OH248507   3.415   2.011   3.055  0.0892  0.7438 -0.1996
 9031TIP3    H148508   3.349   2.040   2.992 -1.8881 -1.9989  0.4341
 9031TIP3    H248509   3.471   1.951   3.006  0.0584  0.5019  0.0554
 9032TIP3   OH248510   5.803   5.080  16.270  0.1541 -0.3565 -0.4815
 9032TIP3    H148511   5.857   5.035  16.335  0.5379  0.3418 -0.3046
 9032TIP3    H248512   5.861   5.089  16.194 -0.6108 -2.0786 -1.3210
 9033TIP3   OH248513   2.894   4.984   5.217  0.1673  0.5184 -0.0640
 9033TIP3    H148514   2.893   4.895   5.184 -1.1214  0.3916  0.2804
 9033TIP3    H248515   2.987   5.010   5.214  0.5468 -0.8117 -0.1801
 9034TIP3   OH248516   1.382   0.842  10.519  0.7903 -0.3058  0.1846
 9034TIP3    H148517   1.326   0.861  10.444 -0.4461 -0.4306  1.0644
 9034TIP3    H248518   1.335   0.876  10.595  1.4403 -1.2811  1.0539
 9035TIP3   OH248519   2.669   1.495  14.478 -0.2960  0.6185 -0.0608
 9035TIP3    H148520   2.653   1.519  14.569  0.1025  0.4962  0.0434
 9035TIP3    H248521   2.710   1.573  14.440 -0.8411  0.8210 -0.2475
 9036TIP3   OH248522   6.081   1.208   1.609  0.1226  0.2549 -0.1171
 9036TIP3    H148523   6.027   1.278   1.571  0.0283  0.0236 -0.4157
 9036TIP3    H248524   6.118   1.246   1.688 -0.2170  0.5258 -0.0875
 9037TIP3   OH248525   2.748   6.564  13.715  0.3238 -0.1474 -0.2161
 9037TIP3    H148526   2.766   6.550  13.622  0.2398 -0.8338 -0.1306
 9037TIP3    H248527   2.830   6.597  13.750 -0.0022  1.3553 -0.7783
 9038TIP3   OH248528   3.071   5.101   2.404  0.6288 -0.2535  0.0480
 9038TIP3    H148529   3.140   5.088   2.469  0.6366 -0.1411  0.0625
 9038TIP3    H248530   3.069   5.019   2.353  1.9906  0.4013 -1.1119
 9039TIP3   OH248531   3.219   4.680   4.324 -0.2230  0.2748  0.4931
 9039TIP3    H148532   3.300   4.631   4.315 -0.5370 -0.4585  1.4392
 9039TIP3    H248533   3.239   4.767   4.290  0.5484 -0.2956 -0.5601
 9040TIP3   OH248534   3.233   5.472  10.665  0.1030  0.1531  0.2313
 9040TIP3    H148535   3.261   5.526  10.739  0.4534 -0.4650  0.5621
 9040TIP3    H248536   3.238   5.382  10.698  4.6231 -0.6388 -1.7376
 9041TIP3   OH248537   2.854   1.832   0.502 -0.3846  0.0406 -0.1268
 9041TIP3    H148538   2.897   1.860   0.583  0.9255 -0.9538 -0.4568
 9041TIP3    H248539   2.832   1.740   0.517  0.0564 -0.2101 -0.9798
 9042TIP3   OH248540   3.547   4.828   5.655  0.3643  0.1552 -0.1705
 9042TIP3    H148541   3.640   4.840   5.676  0.7014  1.2613 -2.0564
 9042TIP3    H248542   3.527   4.740   5.687  2.6630 -0.9795 -1.5928
 9043TIP3   OH248543   5.005   5.339   2.828 -0.0440 -0.0340  0.4943
 9043TIP3    H148544   4.913   5.330   2.853  0.4312 -1.6563  1.8619
 9043TIP3    H248545   5.026   5.431   2.846 -1.4010  0.3757  0.0886
 9044TIP3   OH248546   0.957   4.097   5.988  0.5553  0.2203 -0.4819
 9044TIP3    H148547   0.875   4.065   6.025  0.9878 -1.3151 -0.7844
 9044TIP3    H248548   0.953   4.192   5.999 -0.7491  0.0728  0.5323
 9045TIP3   OH248549   2.583   0.238  10.581  0.0014  0.1415  0.4691
 9045TIP3    H148550   2.641   0.164  10.561 -0.4047 -0.4145  1.2770
 9045TIP3    H248551   2.634   0.315  10.558  0.9102 -0.3494  0.7562
 9046TIP3   OH248552   2.622   5.226  14.454  0.3438  0.3034  0.1204
 9046TIP3    H148553   2.531   5.194  14.456  0.8030 -1.0495  1.3992
 9046TIP3    H248554   2.663   5.184  14.530  1.7791  1.7165  0.1662
 9047TIP3   OH248555   1.816   6.068  17.048  0.2484  0.1571 -0.3076
 9047TIP3    H148556   1.773   5.982  17.045 -1.6051  1.0162  0.1056
 9047TIP3    H248557   1.863   6.068  17.131 -0.6838 -0.0545  0.2402
 9048TIP3   OH248558   4.700   3.375   1.110 -0.6394  0.4651 -0.0636
 9048TIP3    H148559   4.648   3.304   1.149 -0.4056  1.6948  2.7097
 9048TIP3    H248560   4.680   3.370   1.017 -0.9642 -2.9668  0.0400
 9049TIP3   OH248561   2.660   1.873  10.865 -0.0333  0.5447 -0.5700
 9049TIP3    H148562   2.693   1.946  10.918 -1.3086  0.2848  0.6398
 9049TIP3    H248563   2.709   1.880  10.783  0.9612  1.8422  0.0803
 9050TIP3   OH248564   2.399   0.793   1.475 -0.0777  0.3885 -0.0773
 9050TIP3    H148565   2.470   0.817   1.415  1.5776 -1.5806  0.9773
 9050TIP3    H248566   2.330   0.760   1.417  1.4699 -1.4570 -0.9842
 9051TIP3   OH248567   2.637   0.584   2.627  0.6258 -0.2507  0.8400
 9051TIP3    H148568   2.574   0.632   2.681 -0.7005  0.9274 -1.5494
 9051TIP3    H248569   2.594   0.501   2.609  1.3370 -0.9000  2.0324
 9052TIP3   OH248570   6.370   2.012   0.696  0.1374  0.4274 -0.2054
 9052TIP3    H148571   6.291   2.044   0.741  0.7333  1.8890 -0.1249
 9052TIP3    H248572   6.391   1.930   0.740 -0.7722  0.5301  0.4500
 9053TIP3   OH248573   3.277   5.020  14.963 -0.7080 -0.3864 -0.1956
 9053TIP3    H148574   3.198   5.050  14.918  0.6928  0.0348 -2.5397
 9053TIP3    H248575   3.328   4.976  14.896  1.8446  0.8904  0.7630
 9054TIP3   OH248576   0.610   5.262   1.093  0.0982  0.7234  0.5712
 9054TIP3    H148577   0.688   5.211   1.068  0.4054  0.6938  1.5430
 9054TIP3    H248578   0.551   5.198   1.132  0.5485  1.0972  1.9393
 9055TIP3   OH248579   0.783   1.913   0.356 -0.1252  0.4898 -0.4570
 9055TIP3    H148580   0.874   1.944   0.357 -0.3116  1.0797  1.1070
 9055TIP3    H248581   0.749   1.943   0.272  0.6479  1.7487 -0.3488
 9056TIP3   OH248582   3.686   0.593   4.116  0.5095  0.2068 -0.0332
 9056TIP3    H148583   3.722   0.591   4.205  1.5899  0.5362 -0.4471
 9056TIP3    H248584   3.643   0.508   4.107 -1.3248  0.9113  1.4627
 9057TIP3   OH248585   4.924   4.874   0.109 -0.0630  0.1294  0.2875
 9057TIP3    H148586   4.952   4.955   0.065  1.0322  0.6687  1.8810
 9057TIP3    H248587   4.882   4.823   0.040  0.1609  1.6056 -1.0080
 9058TIP3   OH248588   4.167   1.091  12.859 -0.0421 -0.4430  0.9346
 9058TIP3    H148589   4.137   1.034  12.930 -0.3194 -0.6003  0.6928
 9058TIP3    H248590   4.117   1.172  12.871 -1.3618 -1.0769 -0.0897
 9059TIP3   OH248591   2.228   2.212   2.403  0.3041  0.5443 -0.2222
 9059TIP3    H148592   2.202   2.127   2.439  0.0947  1.7318  2.7342
 9059TIP3    H248593   2.155   2.270   2.424  1.1578  1.8240 -0.6429
 9060TIP3   OH248594   2.254   6.445   0.982 -0.4173 -0.5749 -0.0324
 9060TIP3    H148595   2.254   6.409   1.071 -0.7253 -0.1698  0.1361
 9060TIP3    H248596   2.240   6.369   0.925 -1.4579 -0.6861  0.3420
 9061TIP3   OH248597   4.709   2.891   1.035  0.0276  0.1177 -0.3396
 9061TIP3    H148598   4.755   2.916   1.115 -0.7867  0.0180  0.1746
 9061TIP3    H248599   4.778   2.863   0.976  0.5162 -1.8984  1.0811
 9062TIP3   OH248600   6.447   4.674   5.888 -0.3019 -0.2587 -0.1218
 9062TIP3    H148601   6.474   4.583   5.871  0.2455 -0.0205 -0.5486
 9062TIP3    H248602   6.475   4.691   5.978 -0.5509 -0.5645  0.0153
 9063TIP3   OH248603   0.714   2.925   5.595 -0.7877 -0.3106 -0.2154
 9063TIP3    H148604   0.714   3.001   5.653  0.5648 -0.4708  0.0239
 9063TIP3    H248605   0.663   2.859   5.641 -1.3163  0.1883 -0.0774
 9064TIP3   OH248606   2.296   5.272  11.916 -0.2199 -0.3367 -0.2693
 9064TIP3    H148607   2.247   5.287  11.835 -0.3962 -0.3083 -0.1579
 9064TIP3    H248608   2.348   5.193  11.898 -1.0539 -0.9574 -0.0481
 9065TIP3   OH248609   6.246   3.831  12.356 -0.2251  0.7722  0.3155
 9065TIP3    H148610   6.331   3.822  12.313 -0.9057 -1.9386 -0.6717
 9065TIP3    H248611   6.266   3.868  12.442  2.1253 -0.7430  0.5083
 9066TIP3   OH248612   0.906   6.535  16.353  0.2049 -0.5111  0.0898
 9066TIP3    H148613   0.918   6.482  16.431  1.9584  1.1534  1.0361
 9066TIP3    H248614   0.973   6.603  16.359 -1.3059  1.2534 -1.5303
 9067TIP3   OH248615   4.099   2.928   5.112 -0.3995 -0.2896  0.7111
 9067TIP3    H148616   4.080   3.022   5.111  2.7008  0.4664 -0.6659
 9067TIP3    H248617   4.072   2.899   5.200  0.1099  2.2695  1.8150
 9068TIP3   OH248618   0.396   5.296   5.540 -0.2126  0.2246 -0.1669
 9068TIP3    H148619   0.431   5.363   5.599 -0.7036  0.7675 -0.4874
 9068TIP3    H248620   0.332   5.249   5.593  0.5689 -0.4011  0.2460
 9069TIP3   OH248621   5.902   1.394  16.130  0.3731 -0.0282 -0.1355
 9069TIP3    H148622   5.967   1.339  16.085 -0.4917 -1.2522  0.0560
 9069TIP3    H248623   5.951   1.432  16.203  0.6242 -1.9027  0.7332
 9070TIP3   OH248624   5.765   2.402  15.786  0.0148 -0.1800 -0.2085
 9070TIP3    H148625   5.849   2.448  15.799 -0.7139  1.0208  0.4319
 9070TIP3    H248626   5.780   2.346  15.710  1.9315 -1.2787  0.8930
 9071TIP3   OH248627   1.914   1.545   2.836 -0.2766 -0.2657 -0.4216
 9071TIP3    H148628   1.898   1.521   2.927  0.2337  0.2767 -0.1816
 9071TIP3    H248629   1.843   1.503   2.787  0.0957 -1.5294  0.0821
 9072TIP3   OH248630   6.511   0.232  12.959  0.0077 -0.3953 -0.7641
 9072TIP3    H148631   6.421   0.264  12.954  0.6078  1.7390  0.6160
 9072TIP3    H248632   6.565   0.310  12.947  1.6564 -1.4412 -0.4792
 9073TIP3   OH248633   3.424   3.996  13.606  0.9335  0.1857 -0.3788
 9073TIP3    H148634   3.484   3.945  13.552 -0.1027 -0.0805 -1.3324
 9073TIP3    H248635   3.386   4.060  13.545  0.1880  0.2867  0.1780
 9074TIP3   OH248636   5.413   4.825   0.268 -0.7206  0.9194 -0.2964
 9074TIP3    H148637   5.457   4.908   0.285  1.9786 -0.2666 -1.0022
 9074TIP3    H248638   5.399   4.787   0.355  0.6691  0.8644 -0.0772
 9075TIP3   OH248639   2.999   0.944   5.217 -0.1220  0.4706 -0.2111
 9075TIP3    H148640   3.007   0.994   5.136 -0.1211 -0.8152 -1.0216
 9075TIP3    H248641   2.944   0.999   5.273 -1.7318  0.5488 -1.7822
 9076TIP3   OH248642   4.442   1.645  13.133 -0.4043  0.0522  0.2926
 9076TIP3    H148643   4.433   1.737  13.157 -1.9023  0.8440 -2.7136
 9076TIP3    H248644   4.454   1.647  13.038  2.3857 -2.7841  0.4237
 9077TIP3   OH248645   2.621   5.334   4.590 -0.4820 -0.4525 -0.7893
 9077TIP3    H148646   2.645   5.280   4.515  0.1419 -0.1282 -0.8253
 9077TIP3    H248647   2.649   5.283   4.666  0.6405  0.0554 -0.8379
 9078TIP3   OH248648   6.452   3.378   3.970  0.3042 -0.1476  0.4573
 9078TIP3    H148649   6.487   3.464   3.945 -0.0616  0.0615  0.6588
 9078TIP3    H248650   6.506   3.315   3.921  0.2094  0.2220 -0.1253
 9079TIP3   OH248651   3.513   1.052  17.098 -0.4619  0.6334  0.0240
 9079TIP3    H148652   3.470   0.986  17.152 -3.0725 -0.3421 -2.9736
 9079TIP3    H248653   3.606   1.030  17.103 -1.0195 -1.8249  1.0096
 9080TIP3   OH248654   6.187   3.239  14.828  0.1738  0.5406 -0.1689
 9080TIP3    H148655   6.224   3.175  14.889  0.1793  0.6993 -0.0049
 9080TIP3    H248656   6.103   3.263  14.866  0.4100  1.0366  0.0591
 9081TIP3   OH248657   1.146   4.029  10.842 -0.2449  0.1472 -0.2493
 9081TIP3    H148658   1.051   4.018  10.843 -0.2801  0.4800  0.7802
 9081TIP3    H248659   1.163   4.096  10.908  0.8522 -1.0518  0.7271
 9082TIP3   OH248660   0.974   3.120  11.544 -0.1817  0.0950  0.3439
 9082TIP3    H148661   0.949   3.035  11.510  4.5919 -2.4259  2.0908
 9082TIP3    H248662   1.019   3.164  11.471 -0.7407  0.1884  0.0521
 9083TIP3   OH248663   4.595   4.408  13.126  0.2062 -0.5428  0.0433
 9083TIP3    H148664   4.525   4.382  13.185  0.3567 -0.6980  0.1555
 9083TIP3    H248665   4.676   4.390  13.175  0.3188  0.3276  0.2090
 9084TIP3   OH248666   4.109   3.062   3.093  0.0092  0.2046 -0.1635
 9084TIP3    H148667   4.155   3.112   3.160 -0.3802  1.3529 -0.7321
 9084TIP3    H248668   4.018   3.090   3.102 -0.7235 -2.3113  1.2086
 9085TIP3   OH248669   4.901   5.633  14.958 -0.1393 -0.5211 -0.0131
 9085TIP3    H148670   4.968   5.587  15.009 -0.0591 -0.0970  0.2643
 9085TIP3    H248671   4.951   5.696  14.906 -0.2559 -0.7043 -0.3522
 9086TIP3   OH248672   3.814   6.475  14.066  0.4803  0.0931 -0.2048
 9086TIP3    H148673   3.862   6.445  13.988  2.5025 -0.4977  1.1833
 9086TIP3    H248674   3.838   6.567  14.075 -0.7300  0.5038 -0.9217
 9087TIP3   OH248675   0.054   5.227   2.769  0.7538 -0.1802 -0.8382
 9087TIP3    H148676   0.049   5.320   2.748 -0.0530 -0.7254 -3.4231
 9087TIP3    H248677   0.118   5.192   2.706  2.3446 -1.1381  1.2009
 9088TIP3   OH248678   5.199   4.059  17.050 -0.3434  0.1451 -0.0179
 9088TIP3    H148679   5.254   3.981  17.058 -0.5033  0.0346  0.0047
 9088TIP3    H248680   5.118   4.028  17.009  0.0605  0.5139 -1.1461
 9089TIP3   OH248681   4.583   5.957   1.705  0.3509 -0.1988 -0.6258
 9089TIP3    H148682   4.603   5.887   1.643  0.1729 -0.4607 -0.3873
 9089TIP3    H248683   4.488   5.968   1.699  0.2577 -0.6248  0.0297
 9090TIP3   OH248684   6.104   4.744   2.888  0.2147  0.0801  0.5939
 9090TIP3    H148685   6.120   4.804   2.815  2.9427 -1.0208  0.1801
 9090TIP3    H248686   6.175   4.680   2.883 -0.7489 -1.3121  2.9538
 9091TIP3   OH248687   3.395   4.583   5.596  0.0929 -0.3764 -0.0744
 9091TIP3    H148688   3.391   4.488   5.611 -1.2322 -0.3710 -0.2689
 9091TIP3    H248689   3.357   4.621   5.675  0.8823  0.0291  0.1265
 9092TIP3   OH248690   4.136   3.534   0.024  0.4368  0.3877  0.1330
 9092TIP3    H148691   4.218   3.493  -0.005  0.6146  0.2142  0.8641
 9092TIP3    H248692   4.068   3.474  -0.007  0.5953  0.4130 -0.2770
 9093TIP3   OH248693   6.550   3.842   2.947 -0.0932  0.0055  0.3085
 9093TIP3    H148694   6.476   3.859   3.004  0.8398  1.8756  1.0457
 9093TIP3    H248695   6.624   3.829   3.007  0.3555 -0.9734 -0.4257
 9094TIP3   OH248696   1.136   2.787   4.033  0.0687  0.5211  0.0374
 9094TIP3    H148697   1.077   2.832   4.093 -2.7160  0.5374 -2.4815
 9094TIP3    H248698   1.219   2.833   4.041 -1.1961  2.7128  1.3282
 9095TIP3   OH248699   6.201   4.334   2.996  0.4040 -0.2092  0.0848
 9095TIP3    H148700   6.238   4.409   2.949 -0.1156  0.4261  0.6949
 9095TIP3    H248701   6.141   4.294   2.933 -1.4176  1.4978  0.6583
 9096TIP3   OH248702   1.235   5.323  12.596 -0.2337 -0.2287  0.2006
 9096TIP3    H148703   1.320   5.294  12.629  0.5854  1.0432 -0.6846
 9096TIP3    H248704   1.238   5.306  12.502  0.0121  1.9725 -0.2325
 9097TIP3   OH248705   0.001   1.643   1.617  0.1834 -0.2663  0.0020
 9097TIP3    H148706   0.086   1.601   1.623  0.9907  1.3284  0.3738
 9097TIP3    H248707   0.017   1.733   1.646 -0.7713  1.2477 -3.6453
 9098TIP3   OH248708   6.089   0.517   3.604  0.1709 -0.7601  0.6873
 9098TIP3    H148709   6.086   0.586   3.670 -2.3431  0.7046 -0.8085
 9098TIP3    H248710   6.001   0.481   3.603  0.5797 -1.8154 -0.8011
 9099TIP3   OH248711   6.331   5.806  16.830  0.2246  0.0296  0.2594
 9099TIP3    H148712   6.386   5.871  16.873  1.4919 -0.3154 -0.7640
 9099TIP3    H248713   6.327   5.733  16.892  0.8468  0.1075  0.3971
 9100TIP3   OH248714   2.597   4.649  16.797  0.1591 -0.3160 -0.4774
 9100TIP3    H148715   2.528   4.715  16.793 -0.2772 -0.8138 -1.5481
 9100TIP3    H248716   2.597   4.609  16.710 -0.1078 -2.2261  0.3418
 9101TIP3   OH248717   2.644   5.616  15.944  0.0361  0.2761 -0.2370
 9101TIP3    H148718   2.708   5.556  15.904 -0.1734 -0.8010  0.9881
 9101TIP3    H248719   2.589   5.645  15.871  0.9905  0.0609 -1.0672
 9102TIP3   OH248720   2.393   6.618  13.554  0.5277 -0.3271 -0.1528
 9102TIP3    H148721   2.310   6.649  13.516  1.1899 -0.1044 -1.4935
 9102TIP3    H248722   2.458   6.681  13.523  1.3142 -0.9251  0.2433
 9103TIP3   OH248723   5.260   5.322  15.774 -0.1591 -0.4088 -0.3651
 9103TIP3    H148724   5.231   5.231  15.783  0.3437 -0.4703  0.8229
 9103TIP3    H248725   5.282   5.349  15.863 -0.3808  0.9148 -0.6909
 9104TIP3   OH248726   2.220   4.738   3.650 -0.3679  0.0996 -0.8822
 9104TIP3    H148727   2.228   4.833   3.642 -0.6622  0.1062 -1.1353
 9104TIP3    H248728   2.177   4.725   3.734 -0.9204  0.2278 -1.1339
 9105TIP3   OH248729   4.178   2.455  11.333 -0.3032  0.7041 -0.4259
 9105TIP3    H148730   4.139   2.441  11.247  0.1691  1.8099 -0.8385
 9105TIP3    H248731   4.161   2.374  11.381  0.0588 -0.2117 -1.8002
 9106TIP3   OH248732   4.682   5.016   1.732  0.3216 -0.3884 -0.2294
 9106TIP3    H148733   4.614   4.994   1.797  1.0447  0.0582  0.7100
 9106TIP3    H248734   4.649   4.981   1.650 -0.9349 -0.4084  0.2573
 9107TIP3   OH248735   6.702   0.032   1.926  0.0314  0.1149 -0.0471
 9107TIP3    H148736   6.672  -0.054   1.896 -1.6072  0.5125  0.3396
 9107TIP3    H248737   6.785   0.014   1.971  0.1368 -1.1375 -0.6918
 9108TIP3   OH248738   0.159   4.334   5.296 -0.3577 -0.3174  0.3188
 9108TIP3    H148739   0.205   4.250   5.297 -0.2468 -0.2661  1.5401
 9108TIP3    H248740   0.204   4.386   5.363 -0.4644  0.7021 -0.3762
 9109TIP3   OH248741   5.871   5.319  16.723 -0.1130  0.4323  0.8803
 9109TIP3    H148742   5.788   5.272  16.711  0.0879  0.4126 -0.6877
 9109TIP3    H248743   5.938   5.255  16.697  0.3469  0.6988  1.3987
 9110TIP3   OH248744   5.847   3.846  13.463  0.1162 -0.0631  0.3913
 9110TIP3    H148745   5.816   3.934  13.484 -1.0028  0.1376 -1.7845
 9110TIP3    H248746   5.910   3.826  13.532  1.6931  3.1102  0.0527
 9111TIP3   OH248747   2.121   1.252   3.880  0.1218 -0.1885 -0.1441
 9111TIP3    H148748   2.035   1.235   3.920 -0.4913  2.6665 -0.0392
 9111TIP3    H248749   2.101   1.267   3.788  0.8849 -1.8167 -0.6137
 9112TIP3   OH248750   3.385   1.712  15.606  0.2277  0.5536  0.1706
 9112TIP3    H148751   3.354   1.630  15.644 -0.5574  0.5667 -0.3998
 9112TIP3    H248752   3.476   1.696  15.584 -0.0078 -0.2826 -0.2331
 9113TIP3   OH248753   5.506   3.859   4.931 -0.5178 -0.4802 -0.1325
 9113TIP3    H148754   5.431   3.812   4.966 -0.0798  0.1209  1.7449
 9113TIP3    H248755   5.531   3.920   5.001  0.1233  1.1625 -1.7095
 9114TIP3   OH248756   2.412   1.854   1.285 -0.6380  0.2787  0.1892
 9114TIP3    H148757   2.473   1.816   1.349 -1.7623 -2.1296 -0.0687
 9114TIP3    H248758   2.326   1.847   1.327 -1.0854  1.0855 -0.5653
 9115TIP3   OH248759   3.802   1.528   3.323 -0.0192  0.1254  0.2226
 9115TIP3    H148760   3.748   1.451   3.303 -0.5377  0.3162  0.8373
 9115TIP3    H248761   3.863   1.497   3.390 -1.3689  0.6681  1.7586
 9116TIP3   OH248762   0.212   4.779   3.860 -0.6421 -0.4364  0.2658
 9116TIP3    H148763   0.265   4.824   3.795  0.1782 -0.7677  0.6929
 9116TIP3    H248764   0.208   4.839   3.934 -0.2179 -0.7262  0.5271
 9117TIP3   OH248765   6.041   5.415  13.873 -0.2631 -0.1276  0.4058
 9117TIP3    H148766   6.115   5.472  13.852 -0.4808  0.3274  0.8752
 9117TIP3    H248767   6.033   5.420  13.968 -1.2690  0.2770  0.3047
 9118TIP3   OH248768   3.841   1.834   3.540  0.6824  0.3609  0.3295
 9118TIP3    H148769   3.799   1.777   3.605  1.2389 -0.7153 -0.2345
 9118TIP3    H248770   3.781   1.908   3.531 -0.4128 -0.4645  0.5616
 9119TIP3   OH248771   3.548   5.096   5.644 -0.1658  0.0377 -0.6540
 9119TIP3    H148772   3.462   5.138   5.643 -1.1192 -1.4205  2.8046
 9119TIP3    H248773   3.529   5.002   5.641  1.3628 -0.3030 -0.6060
 9120TIP3   OH248774   5.946   3.768  12.347 -0.4340  0.2785 -0.2020
 9120TIP3    H148775   6.036   3.800  12.361  0.5149 -1.5086 -1.6887
 9120TIP3    H248776   5.890   3.841  12.373  1.3840  0.9695  2.1420
 9121TIP3   OH248777   1.147   3.213   5.101 -0.1167 -0.5562  0.2966
 9121TIP3    H148778   1.235   3.231   5.068 -0.4954  0.9914  0.0689
 9121TIP3    H248779   1.102   3.171   5.027 -0.1877  0.5671 -0.3115
 9122TIP3   OH248780   1.300   2.429  13.721 -0.4315  0.1090  0.2674
 9122TIP3    H148781   1.291   2.376  13.801  0.2633  0.6546  0.7187
 9122TIP3    H248782   1.268   2.372  13.651 -1.1157 -0.3554  0.9436
 9123TIP3   OH248783   6.750   0.151  14.658 -0.0759  0.3917  0.2281
 9123TIP3    H148784   6.684   0.094  14.698 -0.7990 -1.1550 -2.8042
 9123TIP3    H248785   6.833   0.121  14.695 -0.5407 -2.0859 -0.5045
 9124TIP3   OH248786   3.695   4.517   5.266  0.3732  0.1359  0.0987
 9124TIP3    H148787   3.609   4.511   5.227  0.3418  0.5765  0.1003
 9124TIP3    H248788   3.730   4.427   5.262 -0.2574 -0.1349  0.5041
 9125TIP3   OH248789   6.638   5.801   1.082 -0.2249  0.2879 -0.1552
 9125TIP3    H148790   6.716   5.761   1.119 -0.9028 -0.1382  0.8872
 9125TIP3    H248791   6.624   5.757   0.998  0.1192 -0.3060  0.0977
 9126TIP3   OH248792   3.751   3.879  13.789 -0.2854  0.4397 -0.0303
 9126TIP3    H148793   3.749   3.959  13.736 -0.4852 -0.2589 -1.1239
 9126TIP3    H248794   3.661   3.870  13.821 -0.1849  0.8244  0.3660
 9127TIP3   OH248795   6.413   5.902  13.138  0.9818 -0.2973 -0.0265
 9127TIP3    H148796   6.383   5.811  13.140  0.7720 -0.2623 -1.0292
 9127TIP3    H248797   6.484   5.905  13.202 -0.8020 -0.5019  2.0670
 9128TIP3   OH248798   3.095   0.726   1.304 -0.3633 -0.7942 -0.2738
 9128TIP3    H148799   3.072   0.672   1.379  1.7325 -0.7792  0.4539
 9128TIP3    H248800   3.149   0.796   1.340 -1.3769  0.6882 -1.4782
 9129TIP3   OH248801   0.186   1.920  13.094 -0.8201  0.5136  0.0799
 9129TIP3    H148802   0.239   1.975  13.036  1.6122  0.4762  2.0990
 9129TIP3    H248803   0.231   1.836  13.094 -2.3011 -0.2949  0.0022
 9130TIP3   OH248804   3.520   0.599   5.161  0.3085  0.0963 -0.1382
 9130TIP3    H148805   3.480   0.656   5.226 -0.6611 -0.2895 -0.3864
 9130TIP3    H248806   3.450   0.580   5.098  0.8007 -0.8032 -0.4397
 9131TIP3   OH248807   1.108   3.372   2.547  0.5914 -0.1688  0.2195
 9131TIP3    H148808   1.078   3.284   2.528 -3.7109  0.7516  1.6473
 9131TIP3    H248809   1.052   3.429   2.494  3.5170  1.8329 -0.9963
 9132TIP3   OH248810   6.020   0.427  13.458 -0.6131 -0.4085 -0.0880
 9132TIP3    H148811   6.065   0.386  13.532 -1.0651  1.0450  1.0461
 9132TIP3    H248812   6.082   0.491  13.424 -0.5166 -0.8687 -0.7947
 9133TIP3   OH248813   5.019   2.120  14.632  0.3856 -0.6811 -0.3647
 9133TIP3    H148814   5.024   2.216  14.625 -2.2698 -0.5038 -0.7382
 9133TIP3    H248815   4.929   2.103  14.660  0.5049 -3.1179 -1.3043
 9134TIP3   OH248816   6.039   3.019  10.937  0.7158  0.0466  0.1597
 9134TIP3    H148817   5.953   3.051  10.961 -0.9186 -1.8863 -2.4924
 9134TIP3    H248818   6.070   3.080  10.870 -0.7158 -1.5962 -2.1446
 9135TIP3   OH248819   3.693   3.148  11.207 -0.1639 -0.4911  0.3483
 9135TIP3    H148820   3.715   3.224  11.154 -0.1715 -0.5721  0.2274
 9135TIP3    H248821   3.778   3.109  11.229 -0.1161  0.0347  1.1280
 9136TIP3   OH248822   6.203   0.306   0.740 -0.5257  0.2497 -0.6888
 9136TIP3    H148823   6.200   0.384   0.684  1.3507 -0.2748 -1.5934
 9136TIP3    H248824   6.115   0.269   0.735 -1.5091  2.3797 -0.0959
 9137TIP3   OH248825   1.283   5.554   1.311  0.2844 -0.0047  0.2072
 9137TIP3    H148826   1.297   5.460   1.323  0.8242 -0.0178 -0.4620
 9137TIP3    H248827   1.372   5.591   1.309  0.2388  0.1271 -2.5808
 9138TIP3   OH248828   2.683   0.177  14.935 -0.0244 -0.1752  0.0251
 9138TIP3    H148829   2.744   0.203  14.866 -0.8292  0.6328 -0.4054
 9138TIP3    H248830   2.597   0.178  14.892 -0.2917 -1.9970  0.4228
 9139TIP3   OH248831   4.155   3.608   1.086  0.7741 -0.1562  0.2510
 9139TIP3    H148832   4.182   3.575   1.172 -0.1501 -0.7348  0.3274
 9139TIP3    H248833   4.143   3.530   1.033 -0.3577  0.1079  0.1053
 9140TIP3   OH248834   3.063   5.227  14.156 -0.4094 -0.1386  0.4237
 9140TIP3    H148835   2.987   5.270  14.196  0.1481  0.8625  0.4386
 9140TIP3    H248836   3.076   5.272  14.073 -1.5341 -2.1842 -0.9745
 9141TIP3   OH248837   4.136   0.800  15.711 -0.4718 -0.4848  0.5140
 9141TIP3    H148838   4.191   0.811  15.634  0.2030 -0.1364  1.0316
 9141TIP3    H248839   4.126   0.705  15.720 -1.2456 -0.5019 -0.4731
 9142TIP3   OH248840   3.370   0.261   3.593 -0.1235 -0.3642  1.1479
 9142TIP3    H148841   3.312   0.312   3.537 -1.1186 -1.2477  1.3578
 9142TIP3    H248842   3.438   0.323   3.620 -0.7343  0.5719  0.5741
 9143TIP3   OH248843   0.458   5.964   4.277 -0.0825  0.1088  0.2291
 9143TIP3    H148844   0.381   6.007   4.241 -0.2530  1.9019  2.4867
 9143TIP3    H248845   0.432   5.873   4.290 -1.8509  0.6822  0.9760
 9144TIP3   OH248846   0.566   6.612  14.037 -0.2389 -0.2377 -0.5500
 9144TIP3    H148847   0.581   6.610  13.943  0.0589  1.1653 -0.5582
 9144TIP3    H248848   0.602   6.696  14.065 -1.3451 -0.1383  0.6475
 9145TIP3   OH248849   1.704   4.845   2.293  0.2441 -0.4224  0.4342
 9145TIP3    H148850   1.665   4.861   2.378  0.6226 -0.9924  0.7248
 9145TIP3    H248851   1.764   4.918   2.279 -1.7119  1.0981 -0.5317
 9146TIP3   OH248852   1.379   2.297   3.839 -0.5358  0.4533  0.0784
 9146TIP3    H148853   1.451   2.342   3.883 -0.4331  1.0137 -0.6519
 9146TIP3    H248854   1.315   2.365   3.821 -1.0336  0.0450  0.2657
 9147TIP3   OH248855   1.924   1.365   3.687  0.2907 -0.1359 -0.4001
 9147TIP3    H148856   1.970   1.350   3.604  0.9953  2.4971 -0.5841
 9147TIP3    H248857   1.869   1.288   3.698 -1.1577  0.1399 -4.1882
 9148TIP3   OH248858   3.188   2.997  11.473 -0.2507 -0.6913 -0.2307
 9148TIP3    H148859   3.217   3.041  11.553 -1.4139 -2.0747  1.0242
 9148TIP3    H248860   3.218   3.053  11.402 -0.7434  1.5495  1.2262
 9149TIP3   OH248861   5.859   5.524   3.825  0.3111 -0.3966  0.2724
 9149TIP3    H148862   5.942   5.568   3.843 -0.6770  1.5817  0.2447
 9149TIP3    H248863   5.827   5.497   3.911 -0.1092  0.9779  0.5819
 9150TIP3   OH248864   3.835   2.082   0.452  0.2413  0.0785  0.6737
 9150TIP3    H148865   3.756   2.046   0.493  0.1466  0.5431  0.9013
 9150TIP3    H248866   3.854   2.022   0.379 -0.2647 -0.0824  0.6742
 9151TIP3   OH248867   1.055   3.546   1.365  0.7805  0.4555 -0.1187
 9151TIP3    H148868   1.044   3.556   1.271 -0.4516 -0.6051 -0.1172
 9151TIP3    H248869   0.970   3.516   1.396  1.6688 -1.0325  1.0474
 9152TIP3   OH248870   5.878   4.025   0.253 -0.2995  0.6039 -0.2378
 9152TIP3    H148871   5.842   4.058   0.336  1.4011  1.7406  0.0887
 9152TIP3    H248872   5.819   3.954   0.228  0.7338 -1.8193  3.4275
 9153TIP3   OH248873   5.943   2.216  10.556  0.2519  0.0007 -0.2543
 9153TIP3    H148874   5.990   2.149  10.606 -0.1373 -0.7537 -0.8916
 9153TIP3    H248875   5.901   2.169  10.484 -0.3522  0.8692 -0.4937
 9154TIP3   OH248876   0.368   6.198   5.166  1.0733  0.1513 -0.1601
 9154TIP3    H148877   0.414   6.173   5.086 -0.6527 -0.4921 -0.9880
 9154TIP3    H248878   0.421   6.160   5.236  1.4099 -1.2432 -1.1170
 9155TIP3   OH248879   4.004   4.454   3.365 -0.6181  1.1028  0.5461
 9155TIP3    H148880   4.069   4.523   3.354  1.4178 -0.6458  0.8158
 9155TIP3    H248881   3.958   4.477   3.446  0.1979  1.9954  0.7709
 9156TIP3   OH248882   2.592   5.727  16.376 -0.2573 -0.9847  0.2960
 9156TIP3    H148883   2.552   5.691  16.296  0.6449 -1.7221  0.1671
 9156TIP3    H248884   2.605   5.819  16.356 -3.5811 -0.2295  1.0101
 9157TIP3   OH248885   2.842   3.488  14.322  0.2587 -0.0225  0.0477
 9157TIP3    H148886   2.815   3.519  14.235 -1.1078  1.8309  1.0600
 9157TIP3    H248887   2.769   3.433  14.351  0.2851  0.1112  0.3704
 9158TIP3   OH248888   4.376   4.932  11.414  0.3158 -0.4914  0.3024
 9158TIP3    H148889   4.386   4.978  11.497 -1.1692 -0.1750  0.3264
 9158TIP3    H248890   4.287   4.896  11.416 -0.3729  0.8910 -1.7954
 9159TIP3   OH248891   6.249   5.008  14.951  0.0539  0.3342  0.2361
 9159TIP3    H148892   6.186   5.017  14.879  0.1147  1.8002  0.3396
 9159TIP3    H248893   6.333   4.992  14.906 -0.3630 -1.7250  0.1030
 9160TIP3   OH248894   4.065   2.875  14.673  0.0430  0.0815  0.4818
 9160TIP3    H148895   4.022   2.835  14.749  1.4920 -1.2993  0.6167
 9160TIP3    H248896   4.082   2.802  14.614  1.8802  0.6172  0.2883
 9161TIP3   OH248897   0.866   0.409   4.306 -0.0325  0.6509  0.3742
 9161TIP3    H148898   0.914   0.386   4.386 -0.8046 -0.9684  0.4149
 9161TIP3    H248899   0.899   0.347   4.241 -1.9267 -0.4495  0.3742
 9162TIP3   OH248900   4.313   6.724  13.703  0.1473 -0.2508 -0.3204
 9162TIP3    H148901   4.349   6.656  13.646 -1.6522 -0.9429 -0.6953
 9162TIP3    H248902   4.312   6.685  13.790  0.7730 -0.0272 -0.2064
 9163TIP3   OH248903   0.377   5.822  11.129 -0.5614  0.4381 -0.2840
 9163TIP3    H148904   0.449   5.800  11.071  0.8573 -2.4403  2.2716
 9163TIP3    H248905   0.322   5.743  11.130 -2.8193  1.9177 -0.7859
 9164TIP3   OH248906   0.286   2.258   5.000  0.1169 -0.3540  0.7012
 9164TIP3    H148907   0.378   2.249   4.975 -0.1820  0.4506 -0.7945
 9164TIP3    H248908   0.256   2.335   4.952 -1.4795 -0.9370  0.7300
 9165TIP3   OH248909   1.042   6.087   0.854 -0.0827 -0.0122 -0.1892
 9165TIP3    H148910   1.035   6.009   0.798 -2.4081  2.3225 -3.5334
 9165TIP3    H248911   0.979   6.071   0.924  0.1030 -1.4841 -0.3136
 9166TIP3   OH248912   5.944   2.530   6.712 -0.2137  0.0518 -0.2914
 9166TIP3    H148913   6.019   2.584   6.686 -0.3617  1.4523  1.8911
 9166TIP3    H248914   5.877   2.594   6.736 -0.3386 -1.0114  2.6098
 9167TIP3   OH248915   2.126   2.089   3.106 -0.2068 -0.0475 -0.8038
 9167TIP3    H148916   2.180   2.019   3.143 -0.7041  1.1307  2.4651
 9167TIP3    H248917   2.042   2.048   3.087  0.1698 -0.7791 -0.8946
 9168TIP3   OH248918   2.455   1.479  15.612  0.1061 -0.6873  0.5028
 9168TIP3    H148919   2.446   1.563  15.568 -1.0944 -0.5013  1.0869
 9168TIP3    H248920   2.473   1.500  15.703 -0.4682 -1.0467  0.7086
 9169TIP3   OH248921   1.704   4.265   2.013 -0.5376  0.0211  0.4292
 9169TIP3    H148922   1.782   4.219   1.982 -0.3485 -0.0160  0.9470
 9169TIP3    H248923   1.635   4.198   2.014 -0.3208 -0.1998  0.9510
 9170TIP3   OH248924   4.042   5.667  14.007 -0.5934 -0.0920  0.4034
 9170TIP3    H148925   4.056   5.579  14.042 -0.0348  0.7660  2.5287
 9170TIP3    H248926   3.990   5.654  13.928 -1.1056 -2.2646  1.0315
 9171TIP3   OH248927   3.231   0.093  11.076 -0.0467  0.1647  0.1311
 9171TIP3    H148928   3.314   0.062  11.111 -1.1717 -0.0964  2.7982
 9171TIP3    H248929   3.166   0.031  11.109 -1.1796 -0.9718 -3.6941
 9172TIP3   OH248930   3.381   1.496  11.596 -0.3160 -0.0641  0.8155
 9172TIP3    H148931   3.433   1.507  11.676 -1.4138 -2.5794  1.9573
 9172TIP3    H248932   3.336   1.580  11.586  2.0243  1.3232  1.1398
 9173TIP3   OH248933   1.013   3.871   4.140 -0.3862  0.2941 -0.6090
 9173TIP3    H148934   1.036   3.841   4.227 -1.3470 -0.4903 -0.6048
 9173TIP3    H248935   1.090   3.920   4.109  0.1150  0.2143  0.4952
 9174TIP3   OH248936   0.636   4.456   3.510 -0.1557  0.4768  0.4596
 9174TIP3    H148937   0.541   4.461   3.501 -0.2962 -2.4550 -0.8356
 9174TIP3    H248938   0.650   4.391   3.579  0.8649 -0.1319 -0.2942
 9175TIP3   OH248939   1.385   6.001  12.201 -0.1909 -0.0061 -0.0086
 9175TIP3    H148940   1.292   6.018  12.187  0.7134  3.5452 -3.4886
 9175TIP3    H248941   1.406   5.930  12.140 -0.6361 -1.2825  1.2654
 9176TIP3   OH248942   4.006   3.007   0.369  0.5343 -0.0859  0.0085
 9176TIP3    H148943   4.031   3.099   0.359  0.3534  0.0350  0.6433
 9176TIP3    H248944   4.048   2.963   0.295  3.2126  0.0006  1.3772
 9177TIP3   OH248945   3.617   3.608  12.692 -0.2188 -0.2506  0.3599
 9177TIP3    H148946   3.539   3.647  12.652 -1.1405 -1.4676  0.9278
 9177TIP3    H248947   3.590   3.520  12.718  1.6343 -1.0722 -0.3087
 9178TIP3   OH248948   6.715   0.869  15.577 -0.1124 -0.4746 -0.5845
 9178TIP3    H148949   6.709   0.943  15.637 -0.4016 -0.8555 -0.1316
 9178TIP3    H248950   6.786   0.815  15.614  0.0040 -0.4938 -0.8342
 9179TIP3   OH248951   6.527   4.489   5.338 -0.0840 -0.0673  0.0576
 9179TIP3    H148952   6.459   4.451   5.282 -1.6541  0.5954  1.4387
 9179TIP3    H248953   6.580   4.543   5.279 -1.5221  0.3985 -0.8369
 9180TIP3   OH248954   1.644   1.213   3.660 -0.4750  0.2615 -0.3284
 9180TIP3    H148955   1.609   1.213   3.570 -1.8765 -1.2737  0.1445
 9180TIP3    H248956   1.704   1.139   3.661  0.4067  0.9687 -0.2797
 9181TIP3   OH248957   2.499   6.548  11.894 -0.6041  0.1873  0.3433
 9181TIP3    H148958   2.533   6.484  11.956  1.3728  0.2674 -0.5762
 9181TIP3    H248959   2.483   6.627  11.946  0.8969  0.2111  0.8032
 9182TIP3   OH248960   6.421   4.763   1.392 -0.0184 -0.4590  0.1521
 9182TIP3    H148961   6.328   4.742   1.393 -0.3674  1.0194  0.2557
 9182TIP3    H248962   6.452   4.727   1.309 -0.9234 -0.0307 -0.3907
 9183TIP3   OH248963   4.951   2.195   1.139  1.0979 -0.1076 -0.9545
 9183TIP3    H148964   4.890   2.240   1.197  2.0297 -1.1310  0.8843
 9183TIP3    H248965   4.945   2.244   1.056  0.4169  1.9764  0.2426
 9184TIP3   OH248966   3.359   3.221  12.647  1.0073  0.3388 -0.0929
 9184TIP3    H148967   3.307   3.279  12.591  2.0086 -0.7087 -2.2631
 9184TIP3    H248968   3.322   3.230  12.734  0.5840  3.5696 -0.5020
 9185TIP3   OH248969   5.522   5.588  12.925 -0.5886 -0.0188  0.9590
 9185TIP3    H148970   5.455   5.630  12.871 -0.1326  0.7966  1.0287
 9185TIP3    H248971   5.476   5.515  12.966 -0.6543 -1.5007 -1.5213
 9186TIP3   OH248972   2.461   5.203  14.751  0.4766 -0.4177  0.7357
 9186TIP3    H148973   2.402   5.193  14.677  0.9289 -2.7289  0.6167
 9186TIP3    H248974   2.476   5.297  14.757 -0.1847 -0.1009 -1.5969
 9187TIP3   OH248975   5.579   0.146   1.717  0.0596  0.1566 -0.5032
 9187TIP3    H148976   5.501   0.194   1.746  0.0643 -0.4255  0.5117
 9187TIP3    H248977   5.653   0.198   1.751  0.0606 -0.9015  1.2557
 9188TIP3   OH248978   2.453   2.078  12.830  0.6773  0.0216  0.2792
 9188TIP3    H148979   2.493   2.140  12.769  0.0480 -1.9282 -2.2408
 9188TIP3    H248980   2.380   2.126  12.869  2.2379  1.9184  1.0228
 9189TIP3   OH248981   0.073   6.770  14.081 -0.1096 -0.2240  0.0823
 9189TIP3    H148982   0.034   6.813  14.156 -0.1518 -2.4479  1.4297
 9189TIP3    H248983   0.131   6.704  14.118 -0.9742 -2.1794 -1.7526
 9190TIP3   OH248984   1.065   5.584   6.770 -0.6496  0.6305 -0.7032
 9190TIP3    H148985   1.085   5.664   6.721  0.2326  0.5445 -0.5000
 9190TIP3    H248986   1.150   5.554   6.802 -1.2343  0.8111  1.0990
 9191TIP3   OH248987   5.012   5.521  12.576  0.7204  0.4695 -0.0313
 9191TIP3    H148988   4.940   5.569  12.535 -0.0459 -2.6817 -2.8721
 9191TIP3    H248989   5.091   5.560  12.540  0.4507  2.6771  1.5825
 9192TIP3   OH248990   2.024   2.959   0.030  0.5421  0.4877 -0.0462
 9192TIP3    H148991   1.950   2.902   0.052  0.1352  1.5917  1.6120
 9192TIP3    H248992   2.017   2.971  -0.064 -0.6877 -0.3953 -0.1005
 9193TIP3   OH248993   6.389   4.381  13.398 -0.1161  0.2876 -0.2518
 9193TIP3    H148994   6.398   4.444  13.470 -1.3844  1.4305 -1.0540
 9193TIP3    H248995   6.464   4.398  13.342  1.0149 -0.7720  0.8942
 9194TIP3   OH248996   3.723   3.231  15.691 -0.0670  0.0424  0.6829
 9194TIP3    H148997   3.671   3.309  15.670  0.7089 -0.1020 -2.2670
 9194TIP3    H248998   3.708   3.216  15.784  0.4602  4.2448  1.6380
 9195TIP3   OH248999   6.019   6.597  15.108  0.0190  0.0132 -0.2433
 9195TIP3    H149000   6.002   6.504  15.098 -1.2359  0.2658 -0.6033
 9195TIP3    H249001   6.060   6.623  15.025  1.2995 -0.3914  0.2327
 9196TIP3   OH249002   2.831   3.995   1.060 -0.8650 -0.1981  0.0660
 9196TIP3    H149003   2.827   4.090   1.050 -1.7658 -0.3279 -0.9083
 9196TIP3    H249004   2.863   3.963   0.976  0.4766 -0.7087  0.7346
 9197TIP3   OH249005   3.349   3.287  15.193  0.5084  0.5000 -0.0162
 9197TIP3    H149006   3.432   3.309  15.235  1.5335 -0.2982 -1.5379
 9197TIP3    H249007   3.310   3.221  15.252  1.7919 -0.4164 -0.1458
 9198TIP3   OH249008   4.949   1.303  11.793  0.1158 -0.2295 -0.4340
 9198TIP3    H149009   4.914   1.259  11.870  0.8926 -1.0625 -0.5543
 9198TIP3    H249010   5.008   1.370  11.828 -2.7957  2.4105 -0.1319
 9199TIP3   OH249011   5.122   4.315   1.024 -0.5576 -0.3234 -0.0361
 9199TIP3    H149012   5.153   4.394   0.978  0.9525  0.1014  1.5951
 9199TIP3    H249013   5.126   4.339   1.117 -0.9718 -2.0218  0.4441
 9200TIP3   OH249014   5.390   0.322  11.201  0.1395 -0.3861 -0.4518
 9200TIP3    H149015   5.354   0.295  11.116 -0.4797 -2.4681  0.4103
 9200TIP3    H249016   5.482   0.343  11.182  0.0688 -1.0297 -1.6072
 9201TIP3   OH249017   5.150   3.034   5.446  0.3451 -0.1576 -0.3647
 9201TIP3    H149018   5.171   2.945   5.474 -0.8430  0.2517  2.1219
 9201TIP3    H249019   5.070   3.024   5.394 -0.3436 -0.4547  0.7392
 9202TIP3   OH249020   1.070   5.957  14.890 -0.1960  0.1581  0.0824
 9202TIP3    H149021   1.074   5.872  14.847 -1.6216  0.0380  0.1527
 9202TIP3    H249022   0.990   5.997  14.859 -0.4785  0.7143  1.4309
 9203TIP3   OH249023   0.718   6.386   0.265 -0.1092  0.8743 -0.2553
 9203TIP3    H149024   0.628   6.356   0.273 -0.3257  1.5330 -0.2114
 9203TIP3    H249025   0.759   6.323   0.206 -0.6321  0.6583 -0.3906
 9204TIP3   OH249026   4.869   5.957   2.618  0.3281 -0.0388 -0.0124
 9204TIP3    H149027   4.893   6.016   2.546 -0.0161  0.1407  0.0166
 9204TIP3    H249028   4.922   5.987   2.692 -0.6181  0.9316  0.2969
 9205TIP3   OH249029   0.321   0.719  13.494 -0.0291 -0.3428 -0.3869
 9205TIP3    H149030   0.259   0.778  13.451 -0.1364  0.2707  0.5688
 9205TIP3    H249031   0.272   0.637  13.506  0.6356 -1.2663 -3.1992
 9206TIP3   OH249032   0.402   3.273   1.700 -0.4277 -0.1718 -0.0294
 9206TIP3    H149033   0.407   3.183   1.732  0.1946  0.3916  1.5672
 9206TIP3    H249034   0.488   3.310   1.719 -1.1575  1.2096  0.7792
 9207TIP3   OH249035   3.632   1.324  12.948  0.1678 -0.2114  0.1111
 9207TIP3    H149036   3.629   1.418  12.931  1.3541 -0.5467 -2.4285
 9207TIP3    H249037   3.542   1.294  12.934 -0.3307  0.5895  1.4739
 9208TIP3   OH249038   2.897   5.671   3.610  0.4045  0.7974 -0.0562
 9208TIP3    H149039   2.821   5.722   3.583 -0.0330  0.0985 -0.1809
 9208TIP3    H249040   2.878   5.648   3.701  0.9658  1.5110  0.2470
 9209TIP3   OH249041   0.767   3.899   4.422 -0.1802 -0.2091  0.1716
 9209TIP3    H149042   0.694   3.960   4.424  0.0874  0.0922  1.0980
 9209TIP3    H249043   0.842   3.951   4.395 -0.4890 -0.7561 -1.9520
 9210TIP3   OH249044   2.774   3.925  15.336 -0.0905 -0.9169 -0.4186
 9210TIP3    H149045   2.728   3.878  15.406  0.3515  0.4798  0.8814
 9210TIP3    H249046   2.838   3.980  15.383  0.5513 -0.2871 -1.9666
 9211TIP3   OH249047   4.280   1.218  12.156  0.5665  0.2310 -0.4546
 9211TIP3    H149048   4.196   1.211  12.201 -0.5208  0.7288 -2.3230
 9211TIP3    H249049   4.315   1.304  12.183  1.7985 -1.0346  2.3708
 9212TIP3   OH249050   0.928   2.167  12.727  0.6439  0.4205 -0.1614
 9212TIP3    H149051   0.942   2.073  12.720  1.2697  0.6172 -2.3494
 9212TIP3    H249052   0.901   2.194  12.639  1.5601  2.4547  0.1264
 9213TIP3   OH249053   3.877   2.132   2.605 -0.5134 -0.0613  0.3040
 9213TIP3    H149054   3.808   2.079   2.566 -0.9093 -0.3622  1.3667
 9213TIP3    H249055   3.913   2.183   2.532 -1.3573 -0.4417 -0.3964
 9214TIP3   OH249056   2.872   3.222   6.169  0.3437  0.6507 -0.2387
 9214TIP3    H149057   2.967   3.222   6.177  0.3769 -1.2734 -0.0831
 9214TIP3    H249058   2.840   3.197   6.256 -0.1628 -0.9331 -0.8357
 9215TIP3   OH249059   3.299   2.321  13.955  0.0406  0.3147 -0.1580
 9215TIP3    H149060   3.327   2.360  13.872 -0.5747  0.3087 -0.3671
 9215TIP3    H249061   3.341   2.375  14.022  0.1455  0.6140 -0.4648
 9216TIP3   OH249062   2.699   4.186  16.237  0.2731 -0.1272  0.1591
 9216TIP3    H149063   2.669   4.197  16.147 -2.3473 -0.3530  0.8953
 9216TIP3    H249064   2.785   4.226  16.240 -0.5045  1.8886 -1.9260
 9217TIP3   OH249065   1.773   0.707   1.925  0.0261  0.2595 -1.0100
 9217TIP3    H149066   1.772   0.612   1.936  0.3179  0.0243 -2.7742
 9217TIP3    H249067   1.683   0.729   1.899  0.0320  0.4222 -0.8929
 9218TIP3   OH249068   0.563   2.931  13.704 -0.0423 -0.4413  0.2716
 9218TIP3    H149069   0.483   2.899  13.746  0.1789 -0.4046  0.7219
 9218TIP3    H249070   0.634   2.899  13.760  0.1967  0.6150  0.5833
 9219TIP3   OH249071   5.491   2.763   2.132 -0.0436 -0.0084 -0.1754
 9219TIP3    H149072   5.504   2.813   2.213  0.3053  2.6366 -1.7397
 9219TIP3    H249073   5.533   2.679   2.148  2.0203  1.2832  1.6130
 9220TIP3   OH249074   0.842   0.255   5.401 -0.3624  0.8086  0.2163
 9220TIP3    H149075   0.807   0.271   5.313  0.2736  0.2179 -0.1505
 9220TIP3    H249076   0.800   0.174   5.429  0.8986 -0.0719 -0.3488
 9221TIP3   OH249077   3.737   2.232  15.583 -0.1436  0.5348  0.3669
 9221TIP3    H149078   3.819   2.269  15.615  0.1493 -1.4429  2.1605
 9221TIP3    H249079   3.715   2.165  15.648 -2.5483  0.1811 -0.7282
 9222TIP3   OH249080   3.253   3.507   2.476  1.1878 -0.6363  0.5582
 9222TIP3    H149081   3.311   3.495   2.551  1.1493 -2.3352  0.3705
 9222TIP3    H249082   3.244   3.419   2.439 -0.9642 -0.3182  0.1847
 9223TIP3   OH249083   6.490   1.409   4.973  0.5183 -0.5433 -0.3577
 9223TIP3    H149084   6.458   1.425   4.885 -0.1810 -0.0642 -0.0288
 9223TIP3    H249085   6.471   1.489   5.021  1.0848 -0.7150  0.1769
 9224TIP3   OH249086   4.582   5.965   5.387  0.1056  0.3315  0.5791
 9224TIP3    H149087   4.674   5.966   5.413  0.0265 -1.2955  1.0160
 9224TIP3    H249088   4.543   6.039   5.433  0.9225  0.2579  1.4096
 9225TIP3   OH249089   5.211   4.531   0.830 -0.0919 -0.2298 -0.1986
 9225TIP3    H149090   5.258   4.614   0.832 -1.9925  0.9289  2.5968
 9225TIP3    H249091   5.124   4.552   0.797 -1.3034 -0.5384  2.4958
 9226TIP3   OH249092   5.260   0.931  14.681  0.5630 -0.1631  0.4233
 9226TIP3    H149093   5.331   0.994  14.690  1.4960 -1.1461  0.2146
 9226TIP3    H249094   5.180   0.983  14.684  1.3459  1.1999 -1.3600
 9227TIP3   OH249095   1.527   5.245  14.409  0.5074 -0.2084 -0.3621
 9227TIP3    H149096   1.536   5.313  14.475  1.6532 -2.2394  1.6794
 9227TIP3    H249097   1.609   5.247  14.360  0.0559  0.6277 -1.1189
 9228TIP3   OH249098   3.026   6.572  12.378 -0.0198  0.4139  0.1557
 9228TIP3    H149099   3.075   6.494  12.404 -0.7269 -0.1688 -0.2100
 9228TIP3    H249100   3.017   6.564  12.283 -1.1797  0.2901  0.2692
 9229TIP3   OH249101   3.803   0.875  16.681 -0.3881  0.3265  0.2417
 9229TIP3    H149102   3.771   0.836  16.599  0.5366  0.2469 -0.0834
 9229TIP3    H249103   3.807   0.969  16.663 -2.7587  0.6539  1.0744
 9230TIP3   OH249104   2.547   5.187   1.169 -0.3587  0.3160  0.4574
 9230TIP3    H149105   2.460   5.171   1.132 -1.3367  2.2399  1.7750
 9230TIP3    H249106   2.603   5.202   1.092 -1.3187 -0.2509 -0.3832
 9231TIP3   OH249107   2.689   4.723   6.172  0.5524  0.0378 -0.1584
 9231TIP3    H149108   2.684   4.772   6.254  1.4105  1.5104 -0.9573
 9231TIP3    H249109   2.598   4.701   6.152  0.0112  2.1170 -0.2254
 9232TIP3   OH249110   2.113   4.014   3.293  0.1655 -0.0304  0.0301
 9232TIP3    H149111   2.126   4.012   3.387  0.3521  1.0747  0.0387
 9232TIP3    H249112   2.133   4.104   3.268 -3.2565  0.6749 -0.5777
 9233TIP3   OH249113   1.280   4.795   2.522  0.1297  0.3296 -0.1316
 9233TIP3    H149114   1.353   4.774   2.581 -0.5175  0.2785  0.6635
 9233TIP3    H249115   1.237   4.870   2.563 -0.0626  0.5876 -0.7835
 9234TIP3   OH249116   2.449   1.623   1.956  0.2072 -0.2023  0.1441
 9234TIP3    H149117   2.446   1.603   2.049 -0.8099 -2.8298 -0.3709
 9234TIP3    H249118   2.381   1.690   1.943  0.4869  0.3248  1.2769
 9235TIP3   OH249119   3.009   4.900  14.367 -0.4408  0.4542 -0.3305
 9235TIP3    H149120   3.086   4.924  14.419 -0.4247 -0.2051 -0.0308
 9235TIP3    H249121   3.045   4.851  14.293 -0.6085 -0.4578  0.1758
 9236TIP3   OH249122   2.698   4.906   6.660 -0.3880 -0.4121  0.3997
 9236TIP3    H149123   2.790   4.894   6.685 -0.5172 -0.2549  0.9591
 9236TIP3    H249124   2.649   4.856   6.725 -0.7297  0.0174  0.4743
 9237TIP3   OH249125   3.546   4.637   4.878 -0.0956  0.2785 -0.3782
 9237TIP3    H149126   3.606   4.706   4.905  0.0692 -0.2261  0.5854
 9237TIP3    H249127   3.537   4.649   4.784  2.1202 -0.1052 -0.6941
 9238TIP3   OH249128   1.343   2.561  14.213 -0.3274 -0.3779  0.3957
 9238TIP3    H149129   1.309   2.558  14.303 -0.5844  1.3254  0.3879
 9238TIP3    H249130   1.289   2.499  14.165 -2.3489  1.0226  0.7482
 9239TIP3   OH249131   0.524   6.328   3.850  0.4878  0.2002 -0.7285
 9239TIP3    H149132   0.614   6.359   3.853  1.0658 -1.4062 -0.0227
 9239TIP3    H249133   0.493   6.353   3.762  1.5717  0.8669 -0.9397
 9240TIP3   OH249134   6.586   2.473  11.915  0.4199  0.5582  0.9171
 9240TIP3    H149135   6.575   2.539  11.847 -0.0631  1.1756  1.5747
 9240TIP3    H249136   6.599   2.391  11.868 -1.5557  0.6887  0.0479
 9241TIP3   OH249137   0.429   0.052   1.180 -0.8139  0.3367  0.1284
 9241TIP3    H149138   0.404   0.050   1.272  0.1623  1.9260  0.4723
 9241TIP3    H249139   0.522   0.029   1.180 -1.1614 -1.2067 -0.6519
 9242TIP3   OH249140   3.711   2.203   2.811  0.5316 -0.1520  0.6832
 9242TIP3    H149141   3.742   2.147   2.882 -1.5821 -2.1418  0.1652
 9242TIP3    H249142   3.782   2.200   2.746  1.5785 -0.0242  1.7738
 9243TIP3   OH249143   0.741   6.694   1.084 -0.1625 -0.1597  0.1787
 9243TIP3    H149144   0.765   6.603   1.066  1.4751  0.5891 -1.8328
 9243TIP3    H249145   0.767   6.709   1.175  1.3982 -1.1702 -0.0644
 9244TIP3   OH249146   1.840   0.607   5.164  0.2900 -0.5827  0.2859
 9244TIP3    H149147   1.769   0.562   5.211 -0.7370 -0.9460 -1.5512
 9244TIP3    H249148   1.796   0.667   5.105  1.4176 -1.6033 -1.7054
 9245TIP3   OH249149   1.480   1.025   1.430  0.2135 -0.3236 -0.6259
 9245TIP3    H149150   1.503   1.054   1.518  0.0125 -0.5168 -0.5066
 9245TIP3    H249151   1.563   1.026   1.381  0.5015 -1.0842 -0.1837
 9246TIP3   OH249152   4.457   2.268   0.746  0.3352 -0.4468  0.4388
 9246TIP3    H149153   4.388   2.261   0.812 -0.2765 -2.0447 -0.3092
 9246TIP3    H249154   4.487   2.358   0.752 -2.8181  0.7702 -0.1800
 9247TIP3   OH249155   0.401   5.918  11.970  0.5617 -0.0917  0.0306
 9247TIP3    H149156   0.389   6.011  11.990 -0.2703  0.0618 -1.0887
 9247TIP3    H249157   0.482   5.915  11.918  0.4935  0.0359 -0.0844
 9248TIP3   OH249158   4.972   2.221  11.234  0.1347  0.3024  0.2262
 9248TIP3    H149159   4.973   2.157  11.164  1.1447 -0.6601  1.0764
 9248TIP3    H249160   4.885   2.261  11.229 -0.5501 -1.1820 -0.2855
 9249TIP3   OH249161   3.362   1.827  10.545  0.2124 -0.3715 -0.1426
 9249TIP3    H149162   3.320   1.804  10.629 -1.4138 -2.3384 -1.3910
 9249TIP3    H249163   3.321   1.769  10.482  3.3597 -0.8922 -1.8959
 9250TIP3   OH249164   1.289   6.740  11.184  0.1752 -0.0809 -0.3077
 9250TIP3    H149165   1.327   6.659  11.219 -1.6386 -0.8056  0.0963
 9250TIP3    H249166   1.328   6.809  11.237  1.4535 -0.6963 -0.3953
 9251TIP3   OH249167   4.277   6.091   5.913  0.1299  0.3799  0.2574
 9251TIP3    H149168   4.323   6.007   5.907  0.2632  0.3863  1.0026
 9251TIP3    H249169   4.185   6.069   5.898  0.1283  0.0461  0.7263
 9252TIP3   OH249170   6.521   6.130  11.598 -0.4396  0.3178 -0.2295
 9252TIP3    H149171   6.493   6.101  11.511 -0.6342 -0.3159  0.0370
 9252TIP3    H249172   6.493   6.221  11.603 -0.1043  0.4664 -0.9666
 9253TIP3   OH249173   1.102   5.225  10.774 -0.2921 -0.1538  0.5057
 9253TIP3    H149174   1.031   5.289  10.777 -1.8700 -1.8099  0.4602
 9253TIP3    H249175   1.061   5.145  10.740  2.2098 -0.4491 -2.3260
 9254TIP3   OH249176   3.117   6.212   3.004 -0.7709 -0.0104  0.6717
 9254TIP3    H149177   3.068   6.151   2.948  2.8180 -1.6140 -0.9955
 9254TIP3    H249178   3.139   6.285   2.946  0.0302  0.0066  0.9908
 9255TIP3   OH249179   4.281   3.516  10.860 -0.1779  0.3557 -0.1967
 9255TIP3    H149180   4.201   3.544  10.904 -0.2966 -2.2898  1.4234
 9255TIP3    H249181   4.255   3.442  10.805  0.8349  0.6847 -1.1746
 9256TIP3   OH249182   2.777   2.892  15.339 -0.1600  0.8824 -0.4747
 9256TIP3    H149183   2.749   2.980  15.363  0.5825  1.0406 -0.1429
 9256TIP3    H249184   2.705   2.856  15.288 -0.6627  1.5143 -0.2160
 9257TIP3   OH249185   2.091   2.617  11.409  0.5593  0.0834  0.3061
 9257TIP3    H149186   2.143   2.659  11.341 -0.8032  0.9564 -0.2288
 9257TIP3    H249187   2.144   2.626  11.488  1.4777  0.4195 -0.3221
 9258TIP3   OH249188   4.158   1.391  11.587 -0.3113 -0.5533 -0.9760
 9258TIP3    H149189   4.124   1.420  11.502 -0.6719  1.1521 -0.3016
 9258TIP3    H249190   4.251   1.414  11.585 -0.5302  0.4394 -0.5624
 9259TIP3   OH249191   0.868   1.278  11.097  0.1322 -0.8042 -0.2181
 9259TIP3    H149192   0.806   1.243  11.033 -1.1797  0.6966  0.1774
 9259TIP3    H249193   0.884   1.206  11.158 -0.5963 -1.4579 -0.7870
 9260TIP3   OH249194   5.790   6.136  15.377 -0.3516  0.2436  0.0631
 9260TIP3    H149195   5.720   6.191  15.412  0.7737  0.1395  2.6505
 9260TIP3    H249196   5.815   6.079  15.450  2.2971  0.1574 -0.8180
 9261TIP3   OH249197   1.177   1.050  11.810 -0.4892  0.4019  0.1513
 9261TIP3    H149198   1.187   0.968  11.763 -0.4865  0.1046  0.6572
 9261TIP3    H249199   1.208   1.117  11.749 -0.0534 -0.0201 -0.0976
 9262TIP3   OH249200   4.649   4.422  11.474 -0.3624  0.0243  0.1202
 9262TIP3    H149201   4.619   4.369  11.400  0.2880  0.1003 -0.2039
 9262TIP3    H249202   4.689   4.499  11.434  1.3480 -0.6282  0.4722
 9263TIP3   OH249203   3.658   1.732  13.473 -0.4609  0.1077  0.5754
 9263TIP3    H149204   3.711   1.794  13.524  4.2120 -1.3924 -1.8610
 9263TIP3    H249205   3.606   1.788  13.415  0.8999  1.7842  0.8797
 9264TIP3   OH249206   1.190   2.896  11.429  0.7018  0.6705 -0.3258
 9264TIP3    H149207   1.148   2.950  11.362 -0.0041 -0.0447 -0.4657
 9264TIP3    H249208   1.130   2.823  11.443  1.4028  0.1875  0.2376
 9265TIP3   OH249209   5.475   0.327   2.458 -0.6842 -0.1624  0.0897
 9265TIP3    H149210   5.514   0.286   2.381 -1.4414  0.5229 -0.6668
 9265TIP3    H249211   5.407   0.385   2.424 -1.1408  0.0395  1.2794
 9266TIP3   OH249212   0.263   6.593   6.753 -0.4511  0.1953 -0.0209
 9266TIP3    H149213   0.301   6.681   6.757  0.4994 -0.2424  1.0809
 9266TIP3    H249214   0.169   6.608   6.757 -0.2900  1.1073  2.8767
 9267TIP3   OH249215   0.524   0.636  14.094 -0.4732 -0.4006 -0.4853
 9267TIP3    H149216   0.554   0.545  14.096 -0.8699 -0.5189  0.8484
 9267TIP3    H249217   0.590   0.682  14.042  0.5083 -1.1773  0.0451
 9268TIP3   OH249218   3.069   3.838  10.796 -0.7680  0.0036 -0.2963
 9268TIP3    H149219   2.996   3.827  10.734 -0.0931  2.3229 -1.6110
 9268TIP3    H249220   3.147   3.823  10.744 -0.1064  3.6180 -0.5737
 9269TIP3   OH249221   3.726   0.426   1.873  0.5472  0.5480  0.2598
 9269TIP3    H149222   3.811   0.420   1.918  0.5089  0.9992  0.4001
 9269TIP3    H249223   3.685   0.340   1.887  0.9948  0.3152  0.1631
 9270TIP3   OH249224   5.821   5.275   4.887 -0.7411 -0.3257 -0.3435
 9270TIP3    H149225   5.870   5.348   4.925 -0.9474 -0.0220 -0.6516
 9270TIP3    H249226   5.732   5.284   4.922 -0.7375 -0.5067 -0.2836
 9271TIP3   OH249227   0.828   4.662  15.921 -0.4127  0.1995  0.1561
 9271TIP3    H149228   0.893   4.667  15.851  1.1129  0.3589  1.5339
 9271TIP3    H249229   0.744   4.651  15.875  0.4626  0.8582 -1.6985
 9272TIP3   OH249230   0.212   0.787  16.859  0.2610 -0.5628  0.2435
 9272TIP3    H149231   0.243   0.767  16.770  0.6387  3.1999 -0.6781
 9272TIP3    H249232   0.122   0.816  16.847  0.8471  1.6709  0.6855
 9273TIP3   OH249233   1.419   1.019  15.588  0.0381 -0.2624 -0.6127
 9273TIP3    H149234   1.449   1.109  15.596  0.3773 -0.3437 -0.9075
 9273TIP3    H249235   1.499   0.966  15.597 -0.2701 -0.5842  0.4270
 9274TIP3   OH249236   6.403   3.562   0.958  0.3621  0.0189 -0.1472
 9274TIP3    H149237   6.317   3.601   0.972  0.6810  0.9582 -0.6918
 9274TIP3    H249238   6.442   3.615   0.888  1.9351  0.5225  1.0495
 9275TIP3   OH249239   1.496   3.266   1.116  0.2822  0.3623  0.0228
 9275TIP3    H149240   1.413   3.273   1.164  0.7797  0.2120  0.9168
 9275TIP3    H249241   1.563   3.258   1.184  1.0062  0.1740 -0.6976
 9276TIP3   OH249242   4.640   4.927   5.942 -0.2014 -0.6737  0.1738
 9276TIP3    H149243   4.554   4.898   5.912  0.8722 -2.0970 -1.7779
 9276TIP3    H249244   4.644   4.898   6.033 -1.2706 -1.8552 -0.1186
 9277TIP3   OH249245   5.790   5.458   3.127  0.0852 -0.3110 -0.4238
 9277TIP3    H149246   5.791   5.501   3.042  0.0925 -0.7168 -0.6306
 9277TIP3    H249247   5.709   5.489   3.169 -0.3293 -0.7272 -0.9000
 9278TIP3   OH249248   4.533   2.631  16.030 -0.0318  0.3333 -0.2642
 9278TIP3    H149249   4.513   2.714  16.073  0.9305  0.7196 -0.5347
 9278TIP3    H249250   4.563   2.574  16.101 -0.4175  0.3059 -0.1196
 9279TIP3   OH249251   3.209   5.704   0.063 -0.5656  0.2192 -0.4162
 9279TIP3    H149252   3.188   5.735   0.151  2.5679 -2.3880  1.4997
 9279TIP3    H249253   3.183   5.612   0.063  2.8108 -0.8922 -0.6899
 9280TIP3   OH249254   2.986   5.304   4.218 -0.2041  0.0800  0.0517
 9280TIP3    H149255   3.023   5.381   4.175 -0.1186  1.4949  2.5220
 9280TIP3    H249256   2.925   5.339   4.283  1.1830 -1.7855  2.5412
 9281TIP3   OH249257   4.120   6.300   1.001 -0.4439  0.2783 -0.1786
 9281TIP3    H149258   4.056   6.368   1.026 -1.8159  0.6196 -4.0037
 9281TIP3    H249259   4.089   6.221   1.045 -2.2159  0.9511 -0.1309
 9282TIP3   OH249260   0.493   1.134  16.332 -0.5756  0.1598 -0.1053
 9282TIP3    H149261   0.559   1.201  16.347  0.8248 -0.7611 -1.8424
 9282TIP3    H249262   0.433   1.143  16.406  0.9441  1.6663  1.0208
 9283TIP3   OH249263   2.669   2.236   5.399 -0.4755 -0.3340  0.1998
 9283TIP3    H149264   2.756   2.221   5.363 -0.5136  1.0008 -0.5238
 9283TIP3    H249265   2.681   2.302   5.466 -1.1013  1.0125 -0.9515
 9284TIP3   OH249266   0.860   4.321  15.856  0.0825 -0.3194  0.9516
 9284TIP3    H149267   0.946   4.282  15.871  0.1909 -0.1478  0.7819
 9284TIP3    H249268   0.844   4.308  15.762 -0.6446 -1.5106  1.2178
 9285TIP3   OH249269   1.417   6.705  14.431 -0.9041  0.1128 -0.0683
 9285TIP3    H149270   1.419   6.658  14.348 -1.9264 -0.0410 -0.0158
 9285TIP3    H249271   1.490   6.668  14.481  0.4664  1.0296 -1.3091
 9286TIP3   OH249272   0.629   0.929  11.011  0.6046  0.4294  0.4684
 9286TIP3    H149273   0.612   0.931  10.917 -4.5272  0.8288  1.0957
 9286TIP3    H249274   0.660   0.840  11.028  0.8915  0.1081 -1.5125
 9287TIP3   OH249275   1.242   3.389  12.890 -0.1218 -0.2963  0.0881
 9287TIP3    H149276   1.322   3.430  12.924 -0.2346  0.0524 -0.0599
 9287TIP3    H249277   1.230   3.311  12.943  1.1448 -1.1602 -0.8348
 9288TIP3   OH249278   2.943   1.477  13.748  0.4419  0.0692  0.1651
 9288TIP3    H149279   3.025   1.484  13.700  1.0862 -0.6197  1.1119
 9288TIP3    H249280   2.954   1.398  13.802 -1.4193 -0.9055 -0.7782
 9289TIP3   OH249281   5.347   6.392  10.681 -0.2010  0.5272 -0.9306
 9289TIP3    H149282   5.344   6.441  10.764  2.4943  0.0061 -0.4152
 9289TIP3    H249283   5.369   6.458  10.615  0.8371  0.4803 -0.6595
 9290TIP3   OH249284   6.722   2.278  10.967  0.0116  0.0885 -0.1950
 9290TIP3    H149285   6.800   2.319  10.928 -0.0656 -0.0080 -0.4479
 9290TIP3    H249286   6.707   2.200  10.915  1.0185 -1.0809  1.1594
 9291TIP3   OH249287   4.077   3.417  11.993 -0.3636  0.1225 -0.3932
 9291TIP3    H149288   3.982   3.410  11.996 -0.2274 -2.0615 -0.2432
 9291TIP3    H249289   4.105   3.349  11.932  1.1018  1.0694 -0.8478
 9292TIP3   OH249290   5.995   1.159   5.984  0.3327  0.4687  0.2934
 9292TIP3    H149291   5.901   1.172   6.001  0.1178  0.6792 -0.9541
 9292TIP3    H249292   6.039   1.207   6.054 -0.4966  0.9197  0.5208
 9293TIP3   OH249293   3.011   5.601  13.050  0.1803  0.3335 -0.4261
 9293TIP3    H149294   3.049   5.513  13.044 -0.4834  0.0333 -0.2573
 9293TIP3    H249295   3.075   5.650  13.102  0.7860  0.0877 -0.9164
 9294TIP3   OH249296   1.752   1.580  11.994  0.3518  0.5296 -0.6910
 9294TIP3    H149297   1.800   1.600  11.914  0.8485 -0.4541 -0.6572
 9294TIP3    H249298   1.807   1.614  12.065  0.9435 -0.4420 -0.6636
 9295TIP3   OH249299   0.879   2.275   0.611 -0.3981  0.3726  0.0657
 9295TIP3    H149300   0.886   2.287   0.516 -0.5934 -0.0748 -0.0103
 9295TIP3    H249301   0.970   2.269   0.641 -0.3385  0.2942 -0.1270
 9296TIP3   OH249302   5.397   6.301  15.666 -0.1746  0.5007 -0.2211
 9296TIP3    H149303   5.306   6.329  15.651 -0.1806  0.2930 -0.6006
 9296TIP3    H249304   5.443   6.381  15.690 -0.5329  0.5459  0.3269
 9297TIP3   OH249305   3.304   2.988  16.182 -0.0005 -0.2411 -0.1442
 9297TIP3    H149306   3.372   3.055  16.178  0.0329 -0.2987 -3.6269
 9297TIP3    H249307   3.351   2.907  16.202  0.7966 -0.0674 -1.2571
 9298TIP3   OH249308   1.376   0.874  12.925 -0.3336 -0.4368  0.2183
 9298TIP3    H149309   1.346   0.874  13.016 -1.4300 -0.5651 -0.1275
 9298TIP3    H249310   1.470   0.857  12.931 -0.2719  0.1714  1.3595
 9299TIP3   OH249311   4.361   5.577  14.054  0.5912 -0.6754  0.1577
 9299TIP3    H149312   4.358   5.664  14.094 -0.5356 -0.9010  0.5763
 9299TIP3    H249313   4.300   5.582  13.981  0.3267 -1.1852  0.3402
 9300TIP3   OH249314   0.758   6.541  14.661 -0.6468 -0.3011 -0.3312
 9300TIP3    H149315   0.809   6.619  14.682 -1.0693 -0.0503 -0.2308
 9300TIP3    H249316   0.713   6.519  14.743  0.8970 -1.7524  0.2075
 9301TIP3   OH249317   4.239   0.848   5.396  0.5725  0.3020  0.7206
 9301TIP3    H149318   4.288   0.792   5.456  1.0609 -0.4790 -0.3525
 9301TIP3    H249319   4.148   0.839   5.423  0.9297  1.2183  2.3072
 9302TIP3   OH249320   3.684   3.832   0.299 -0.1896 -0.2488  0.1725
 9302TIP3    H149321   3.631   3.758   0.329  0.3136 -0.8517 -0.4042
 9302TIP3    H249322   3.720   3.804   0.215 -1.2998  1.2704 -0.8926
 9303TIP3   OH249323   2.117   5.747   5.425 -0.1999  0.1702 -0.2750
 9303TIP3    H149324   2.162   5.686   5.484 -0.4405 -0.3987 -0.6743
 9303TIP3    H249325   2.137   5.715   5.338 -0.6803  0.4195 -0.4805
 9304TIP3   OH249326   3.603   3.286  14.181 -0.0368 -0.5338 -0.4511
 9304TIP3    H149327   3.532   3.318  14.237  1.2587 -0.4117  1.1545
 9304TIP3    H249328   3.627   3.363  14.128 -1.3717 -0.6987 -1.3778
 9305TIP3   OH249329   1.484   1.467  15.310 -0.0920  0.0272 -0.3170
 9305TIP3    H149330   1.468   1.560  15.297  0.2426  0.2032  0.5036
 9305TIP3    H249331   1.445   1.425  15.233 -0.5149  0.8148 -0.5405
 9306TIP3   OH249332   2.065   2.570   3.704  0.0202  0.1252  0.3743
 9306TIP3    H149333   2.053   2.581   3.609  3.6233  1.5257 -0.0923
 9306TIP3    H249334   2.119   2.492   3.713 -2.0876 -1.2892  1.5566
 9307TIP3   OH249335   0.071   0.568  15.424 -0.0882  0.4975  0.3190
 9307TIP3    H149336   0.140   0.503  15.409 -0.7218 -0.4849  1.5061
 9307TIP3    H249337   0.084   0.597  15.514  1.1961  3.3029 -0.6326
 9308TIP3   OH249338   1.910   3.138  15.322  0.1918  0.0879  0.5393
 9308TIP3    H149339   1.910   3.209  15.387 -0.2756 -0.9546  1.7265
 9308TIP3    H249340   1.932   3.181  15.240 -0.4632  1.6898  1.1452
 9309TIP3   OH249341   4.102   2.083   1.094 -0.1747 -0.4005  0.1069
 9309TIP3    H149342   4.126   1.991   1.086 -1.2638 -0.5627 -1.9161
 9309TIP3    H249343   4.159   2.128   1.030  0.7972  0.4596  1.5133
 9310TIP3   OH249344   5.546   3.797   5.425 -0.0985  0.0102  0.2006
 9310TIP3    H149345   5.588   3.724   5.470 -1.0142 -1.0713 -0.6215
 9310TIP3    H249346   5.490   3.837   5.491 -0.8560 -1.0845  0.2446
 9311TIP3   OH249347   6.626   1.524   5.480  0.8367  0.4589 -0.0228
 9311TIP3    H149348   6.668   1.464   5.418 -1.2885 -3.2706  1.7735
 9311TIP3    H249349   6.541   1.544   5.440  1.3778  2.1561 -0.4292
 9312TIP3   OH249350   3.506   4.021  14.448  0.3415 -0.0106 -0.5286
 9312TIP3    H149351   3.509   4.042  14.355  1.2795 -0.4041 -0.5947
 9312TIP3    H249352   3.597   4.006  14.473  0.1692  0.7031  0.6038
 9313TIP3   OH249353   2.114   0.993  12.731 -0.0015  0.3293 -0.1383
 9313TIP3    H149354   2.130   1.001  12.637 -2.3505 -0.7184 -0.7076
 9313TIP3    H249355   2.039   1.050  12.748 -1.0235 -1.1491  0.6120
 9314TIP3   OH249356   4.448   2.731  12.894 -0.0765  0.0294  0.0719
 9314TIP3    H149357   4.476   2.793  12.961 -1.6627  1.4292 -0.5001
 9314TIP3    H249358   4.409   2.658  12.943  0.6407  0.0674  0.7108
 9315TIP3   OH249359   5.683   6.757  13.416  0.1011 -0.1229  0.1861
 9315TIP3    H149360   5.696   6.831  13.475 -0.8775 -1.7474  2.6019
 9315TIP3    H249361   5.588   6.751  13.406  0.2431 -0.0589 -1.3671
 9316TIP3   OH249362   0.288   4.495   5.483 -0.9033 -0.5938 -0.5037
 9316TIP3    H149363   0.313   4.582   5.515 -1.3186 -0.1466 -1.3549
 9316TIP3    H249364   0.224   4.463   5.546 -0.6817 -0.3242 -0.1394
 9317TIP3   OH249365   4.092   4.450  12.651  0.0037 -0.6176  0.1643
 9317TIP3    H149366   4.031   4.429  12.580 -1.6021 -0.5111  1.4678
 9317TIP3    H249367   4.050   4.417  12.730  0.9767  0.7260  1.2903
 9318TIP3   OH249368   0.694   2.351  14.990 -0.1019  0.5353 -0.3570
 9318TIP3    H149369   0.741   2.398  15.058  1.1071 -0.3203 -0.5550
 9318TIP3    H249370   0.762   2.325  14.927 -0.7825 -0.9201 -0.5521
 9319TIP3   OH249371   0.171   5.649  14.197 -0.1384 -1.0253  0.0493
 9319TIP3    H149372   0.120   5.614  14.124 -0.7019  0.2252 -0.1941
 9319TIP3    H249373   0.157   5.744  14.193 -3.1682 -1.0233  3.8833
 9320TIP3   OH249374   5.581   5.383   3.667 -0.1186  0.6158  0.1093
 9320TIP3    H149375   5.668   5.342   3.663  1.1578  3.1656 -1.1675
 9320TIP3    H249376   5.563   5.393   3.760  1.8502  1.6459  0.4324
 9321TIP3   OH249377   4.350   2.453  12.745 -0.5436  0.0189  0.5470
 9321TIP3    H149378   4.385   2.426  12.660 -1.2189  1.3104 -0.1702
 9321TIP3    H249379   4.327   2.371  12.788  1.8548 -0.7965  0.4204
 9322TIP3   OH249380   4.741   6.087   1.909  0.3490 -0.0126  0.3109
 9322TIP3    H149381   4.725   6.034   1.831 -2.1278  0.8064  0.1694
 9322TIP3    H249382   4.827   6.127   1.894  0.9249 -1.6250 -0.9242
 9323TIP3   OH249383   2.705   1.581  16.808  0.4495  0.2028  0.4014
 9323TIP3    H149384   2.787   1.531  16.813 -0.4720 -1.3538  0.4598
 9323TIP3    H249385   2.653   1.550  16.882 -0.2797  1.0508  0.2616
 9324TIP3   OH249386   4.612   3.412   4.291  0.3625  0.4020  0.6804
 9324TIP3    H149387   4.579   3.440   4.206 -0.8814  0.1914  1.0741
 9324TIP3    H249388   4.672   3.341   4.272 -0.2594  0.0488 -0.0008
 9325TIP3   OH249389   2.993   2.388  16.529 -0.0415 -0.4955  0.0914
 9325TIP3    H149390   2.916   2.445  16.521  1.1179  1.0338 -0.8937
 9325TIP3    H249391   2.991   2.359  16.620 -1.9712 -0.8229 -0.0016
 9326TIP3   OH249392   5.834   5.489  16.289  0.4157  0.0530 -0.3833
 9326TIP3    H149393   5.881   5.409  16.313  0.8862  0.3311 -0.3532
 9326TIP3    H249394   5.893   5.534  16.228  0.5854  0.8263  0.3257
 9327TIP3   OH249395   5.476   2.258  16.075  1.3441  0.1294 -0.3933
 9327TIP3    H149396   5.380   2.257  16.079  1.1435  1.3888 -2.8081
 9327TIP3    H249397   5.502   2.169  16.099 -0.6082 -0.9269 -1.9026
 9328TIP3   OH249398   4.916   6.053  12.082 -0.2304 -0.0640 -0.6408
 9328TIP3    H149399   4.888   5.962  12.096  0.7406 -0.3564 -0.5125
 9328TIP3    H249400   4.949   6.081  12.168  0.3457  0.0938 -0.9092
 9329TIP3   OH249401   0.536   5.188   3.045  0.4517 -0.4268  0.4431
 9329TIP3    H149402   0.477   5.252   3.084  0.1735 -1.5740  2.0380
 9329TIP3    H249403   0.623   5.228   3.051  0.3801 -0.4287  2.0558
 9330TIP3   OH249404   5.547   6.435   4.814 -0.2176  0.8486  0.0335
 9330TIP3    H149405   5.639   6.443   4.838 -0.4006  0.3543  0.9612
 9330TIP3    H249406   5.522   6.347   4.843 -0.9659  0.9527 -0.2627
 9331TIP3   OH249407   1.701   0.317   4.721  0.3982  0.6103 -0.4196
 9331TIP3    H149408   1.695   0.222   4.736  2.0464  0.5531  0.1172
 9331TIP3    H249409   1.682   0.327   4.628 -1.7230 -0.0064 -0.0940
 9332TIP3   OH249410   0.766   5.894   2.885  0.0509  0.2738 -0.3408
 9332TIP3    H149411   0.769   5.989   2.876 -0.1479  0.0965 -3.2568
 9332TIP3    H249412   0.812   5.861   2.807 -1.0666 -2.0070 -0.1267
 9333TIP3   OH249413   4.533   4.037   5.001 -0.2743 -0.2369 -0.3025
 9333TIP3    H149414   4.485   3.961   4.966  0.0398 -0.6043  0.0627
 9333TIP3    H249415   4.621   4.004   5.017  0.0771  0.4086 -0.8571
 9334TIP3   OH249416   4.846   4.161  13.613 -0.2984  0.4699 -0.0366
 9334TIP3    H149417   4.760   4.202  13.624 -0.8892 -0.9990  1.2560
 9334TIP3    H249418   4.905   4.234  13.594 -1.6782  1.6131 -0.1503
 9335TIP3   OH249419   4.357   3.247   1.621 -0.4587 -0.6870 -0.2332
 9335TIP3    H149420   4.278   3.288   1.585 -0.7280 -0.8097  0.2077
 9335TIP3    H249421   4.361   3.162   1.577 -1.0064 -0.9986  0.3004
 9336TIP3   OH249422   4.320   0.174   5.552  0.2475  0.5578  0.2323
 9336TIP3    H149423   4.346   0.169   5.460  2.8342  0.1991  0.8927
 9336TIP3    H249424   4.225   0.180   5.550  0.0053 -1.9495 -2.3796
 9337TIP3   OH249425   4.243   1.244   3.483 -0.4548 -0.5399 -0.4933
 9337TIP3    H149426   4.279   1.322   3.525 -1.1363  0.4868 -1.7450
 9337TIP3    H249427   4.266   1.172   3.542 -0.6705  0.7213  1.1941
 9338TIP3   OH249428   6.033   1.546   5.120  0.1479 -0.4757  0.0223
 9338TIP3    H149429   6.098   1.616   5.125  1.2805 -1.4873 -0.1906
 9338TIP3    H249430   5.955   1.589   5.084  0.5693  0.8320  0.5954
 9339TIP3   OH249431   3.072   1.000   3.519 -0.1889  0.4462 -0.4610
 9339TIP3    H149432   3.139   0.944   3.561 -1.0239  2.1752  3.6253
 9339TIP3    H249433   3.058   0.959   3.434  4.5606 -1.1991 -0.7792
 9340TIP3   OH249434   5.746   6.221  11.372 -0.5389 -0.5876  0.0592
 9340TIP3    H149435   5.722   6.145  11.319 -0.4243  0.5838 -1.7612
 9340TIP3    H249436   5.685   6.218  11.446 -0.8696 -2.1520 -0.2208
 9341TIP3   OH249437   4.712   2.444   4.257 -0.0962 -0.4550 -0.7234
 9341TIP3    H149438   4.661   2.469   4.334  0.5575  1.4930 -0.8679
 9341TIP3    H249439   4.721   2.525   4.206 -0.1522 -1.5912 -2.6579
 9342TIP3   OH249440   0.964   6.509   1.314  0.2709 -0.2079 -0.2733
 9342TIP3    H149441   0.990   6.540   1.401  4.3419 -2.3635 -0.5062
 9342TIP3    H249442   0.996   6.576   1.254 -0.6488  0.2550 -0.2649
 9343TIP3   OH249443   5.114   1.511   4.471 -0.2983  0.4929 -0.0643
 9343TIP3    H149444   5.104   1.504   4.376  1.0649  1.3183 -0.2955
 9343TIP3    H249445   5.027   1.534   4.503 -0.5521  1.2087 -1.2255
 9344TIP3   OH249446   1.548   2.764   5.259  0.3378 -0.6469 -0.6640
 9344TIP3    H149447   1.577   2.722   5.340 -1.1040  4.6486  3.1357
 9344TIP3    H249448   1.618   2.826   5.238 -2.1135  3.1045  1.1049
 9345TIP3   OH249449   5.006   4.718  16.959  0.6839  0.1528 -0.0595
 9345TIP3    H149450   4.945   4.680  17.022  0.9388 -0.2590 -0.0548
 9345TIP3    H249451   4.953   4.778  16.907  0.6401  1.1393  1.0867
 9346TIP3   OH249452   3.420   5.414  13.469  0.2139  0.1577  0.1784
 9346TIP3    H149453   3.346   5.363  13.434 -0.2573 -0.8628  2.4715
 9346TIP3    H249454   3.385   5.502  13.479 -0.1691  0.0656 -0.2838
 9347TIP3   OH249455   3.562   2.166  11.351  0.1304  0.2195  0.0124
 9347TIP3    H149456   3.603   2.144  11.435  1.5177  0.0684 -0.6724
 9347TIP3    H249457   3.520   2.250  11.366 -0.5801 -0.3134  1.1537
 9348TIP3   OH249458   1.874   6.340  12.560  0.4126  0.4223 -0.7464
 9348TIP3    H149459   1.795   6.313  12.513 -0.5163  0.8710  0.4801
 9348TIP3    H249460   1.884   6.274  12.629  1.6140 -0.0950 -1.3773
 9349TIP3   OH249461   5.093   2.923  14.340  0.2986  0.2508  0.5548
 9349TIP3    H149462   5.004   2.918  14.376 -0.5187 -1.8500 -1.5295
 9349TIP3    H249463   5.146   2.870  14.400 -0.5539 -1.2308  0.0488
 9350TIP3   OH249464   4.640   0.752  13.783 -0.4179 -0.1695  0.1273
 9350TIP3    H149465   4.692   0.727  13.707  0.1207  2.0455 -0.2911
 9350TIP3    H249466   4.618   0.669  13.826 -0.5401 -1.4578 -2.2834
 9351TIP3   OH249467   1.862   0.915  15.114 -0.1467  0.2397 -0.0228
 9351TIP3    H149468   1.841   0.834  15.162 -3.0480  1.8603  1.8008
 9351TIP3    H249469   1.800   0.916  15.041  0.0350  0.7004 -0.1729
 9352TIP3   OH249470   4.649   0.785  13.290  0.0324  0.4594 -0.9029
 9352TIP3    H149471   4.709   0.765  13.218  0.8207  2.5911 -0.9356
 9352TIP3    H249472   4.705   0.826  13.357 -0.9135 -0.2241  0.3413
 9353TIP3   OH249473   2.429   1.602  15.840  0.4574 -0.0565  0.3214
 9353TIP3    H149474   2.377   1.673  15.802 -0.2421 -0.9446 -0.4136
 9353TIP3    H249475   2.382   1.577  15.920 -0.1623 -0.7347 -0.2457
 9354TIP3   OH249476   2.272   4.101  11.138 -0.5911  0.9416 -0.0031
 9354TIP3    H149477   2.211   4.058  11.078 -1.7294  1.4789  0.7192
 9354TIP3    H249478   2.244   4.072  11.225  1.0928  0.0976  0.2898
 9355TIP3   OH249479   2.814   3.408  16.626 -0.3257 -0.0758 -0.7271
 9355TIP3    H149480   2.864   3.342  16.578  0.3657  0.3496 -0.6039
 9355TIP3    H249481   2.735   3.361  16.654  0.3710 -0.9953 -0.2267
 9356TIP3   OH249482   1.065   1.479  15.845  0.5163  0.2117 -0.7157
 9356TIP3    H149483   1.041   1.513  15.759  1.7134 -0.5214 -1.3682
 9356TIP3    H249484   1.087   1.387  15.830  1.0058  0.1378  0.3228
 9357TIP3   OH249485   4.154   3.292  13.445  0.0407 -0.3460  0.3525
 9357TIP3    H149486   4.190   3.225  13.388  1.1667  0.7989 -0.3376
 9357TIP3    H249487   4.060   3.290  13.429  0.4199  0.9031 -2.7125
 9358TIP3   OH249488   1.655   2.701  16.858  0.2068 -0.6300 -0.6399
 9358TIP3    H149489   1.704   2.773  16.818 -1.2916  0.8712  0.1402
 9358TIP3    H249490   1.707   2.676  16.935 -0.0862  0.7590  0.0252
 9359TIP3   OH249491   4.174   3.773   4.469 -0.0940  0.7644 -0.2285
 9359TIP3    H149492   4.223   3.851   4.443 -0.9513  1.0047 -1.1864
 9359TIP3    H249493   4.176   3.717   4.391  0.6089 -0.2265  0.4880
 9360TIP3   OH249494   6.081   3.122  11.901  0.0959 -0.6429 -0.2944
 9360TIP3    H149495   6.123   3.183  11.841 -0.7080  0.6126  0.3756
 9360TIP3    H249496   6.151   3.096  11.962  0.7303 -1.3616 -1.2961
 9361TIP3   OH249497   5.971   1.418   6.449  0.8674 -0.1165 -0.4017
 9361TIP3    H149498   5.885   1.459   6.441 -0.0058 -1.7936 -0.1434
 9361TIP3    H249499   6.017   1.471   6.515 -0.6200 -0.2009  0.7636
 9362TIP3   OH249500   6.152   4.777   1.342  0.6038 -0.3039 -0.0371
 9362TIP3    H149501   6.110   4.696   1.315  2.1337 -0.5978 -1.7015
 9362TIP3    H249502   6.094   4.812   1.410 -0.3195 -2.5446  0.4234
 9363TIP3   OH249503   3.843   3.440   4.080 -0.9167 -0.6621  0.0727
 9363TIP3    H149504   3.876   3.509   4.138  1.2751 -1.0896 -0.5859
 9363TIP3    H249505   3.750   3.433   4.102 -0.8837  1.4993  1.1593
 9364TIP3   OH249506   4.033   6.567   5.410 -0.0836 -0.1905  1.0147
 9364TIP3    H149507   4.004   6.559   5.501 -2.4631  2.1230  0.5759
 9364TIP3    H249508   3.953   6.575   5.360  1.2047  1.6695 -0.9171
 9365TIP3   OH249509   1.558   0.164   4.029 -0.1320  0.4090  0.1841
 9365TIP3    H149510   1.486   0.199   3.977  1.3084  1.4134 -1.2202
 9365TIP3    H249511   1.571   0.076   3.995 -0.0273  0.6021 -0.2790
 9366TIP3   OH249512   5.639   4.691  12.545  0.1467 -0.0936 -0.1105
 9366TIP3    H149513   5.715   4.659  12.497  0.8619 -2.1628  2.1551
 9366TIP3    H249514   5.676   4.745  12.615 -0.6494  0.7423 -0.3268
 9367TIP3   OH249515   4.587   3.457   4.803 -0.0266 -0.2608 -0.4147
 9367TIP3    H149516   4.496   3.439   4.826  0.2931 -0.8171  0.5015
 9367TIP3    H249517   4.583   3.503   4.720 -1.1215 -0.7604 -0.6552
 9368TIP3   OH249518   2.100   2.771  14.390  0.5487  0.6226 -1.0617
 9368TIP3    H149519   2.031   2.705  14.392  2.7819 -1.8829 -1.5583
 9368TIP3    H249520   2.069   2.840  14.449 -0.7721 -2.0646  1.6500
 9369TIP3   OH249521   4.708   1.024  12.877 -0.0149  0.6459  0.1940
 9369TIP3    H149522   4.673   1.085  12.812  0.2805 -0.2688 -0.8564
 9369TIP3    H249523   4.631   0.975  12.908  0.1960 -1.4922 -2.2480
 9370TIP3   OH249524   0.960   0.447  16.388 -0.3583 -0.5002  0.1996
 9370TIP3    H149525   0.882   0.395  16.407 -0.6970 -0.0324  0.1296
 9370TIP3    H249526   0.946   0.529  16.437  1.0856 -1.2142  1.9333
 9371TIP3   OH249527   1.742   5.748   3.749  0.1582 -0.3906 -0.0832
 9371TIP3    H149528   1.771   5.740   3.840  2.2676 -0.9194 -0.7280
 9371TIP3    H249529   1.812   5.705   3.699 -1.0050 -0.1870 -1.9430
 9372TIP3   OH249530   6.093   3.188   1.703 -0.2005 -0.2093  0.2677
 9372TIP3    H149531   6.020   3.218   1.758 -2.6710 -0.4048 -2.6233
 9372TIP3    H249532   6.158   3.258   1.708 -1.1494  0.6109  1.9092
 9373TIP3   OH249533   2.589   5.917   0.026 -0.4810 -0.0845 -0.5751
 9373TIP3    H149534   2.528   5.991   0.025  0.1498  0.4535 -1.6536
 9373TIP3    H249535   2.676   5.958   0.025 -0.1216 -0.8388 -0.6397
 9374TIP3   OH249536   4.956   0.320  14.865  0.3755 -0.9102 -0.3867
 9374TIP3    H149537   5.005   0.346  14.943 -0.1587 -3.5353  0.9505
 9374TIP3    H249538   4.866   0.312  14.894 -0.2434  0.2288 -1.8816
 9375TIP3   OH249539   2.659   0.040  13.762  0.0692  0.1969 -0.0963
 9375TIP3    H149540   2.650   0.102  13.689  2.3698 -1.3456 -1.8103
 9375TIP3    H249541   2.664  -0.045  13.720  0.2987 -0.8680  1.9877
 9376TIP3   OH249542   5.405   4.036  16.764  0.9076 -0.0984  0.1334
 9376TIP3    H149543   5.377   4.007  16.677 -0.3804 -0.9082  0.7918
 9376TIP3    H249544   5.474   4.100  16.746  1.3713 -0.9807 -1.4583
 9377TIP3   OH249545   2.468   2.542  14.673 -0.2477  0.2446  0.2446
 9377TIP3    H149546   2.485   2.511  14.584 -2.0327 -0.0256 -0.0351
 9377TIP3    H249547   2.376   2.567  14.673 -0.7924 -1.4314  2.4869
 9378TIP3   OH249548   3.085   1.559   1.388 -0.3518 -0.0755  0.3018
 9378TIP3    H149549   3.149   1.595   1.327 -1.6662  0.9148 -0.5452
 9378TIP3    H249550   3.124   1.571   1.474  0.7970  0.0669 -0.2217
 9379TIP3   OH249551   2.703   1.552  15.026  0.2527  0.2664 -0.0795
 9379TIP3    H149552   2.790   1.549  15.066  0.0910  0.5066  0.2994
 9379TIP3    H249553   2.645   1.517  15.094  0.1641 -0.7789 -0.6653
 9380TIP3   OH249554   3.796   2.045  15.070  0.5018 -0.0116 -0.5030
 9380TIP3    H149555   3.874   2.046  15.015  0.9320  0.6697  0.1005
 9380TIP3    H249556   3.830   2.031  15.159 -0.1486 -0.7204 -0.3575
 9381TIP3   OH249557   0.339   5.505   0.204 -0.4140  0.0208 -0.2885
 9381TIP3    H149558   0.338   5.569   0.132 -0.0741 -0.2326 -0.5228
 9381TIP3    H249559   0.375   5.553   0.278 -2.2934  0.7696  0.1875
 9382TIP3   OH249560   4.384   0.491  16.702 -0.3148 -0.0919  0.3722
 9382TIP3    H149561   4.452   0.424  16.703  0.9796  1.1372  1.9573
 9382TIP3    H249562   4.364   0.505  16.795 -2.2362  0.0839 -0.0391
 9383TIP3   OH249563   4.588   2.295  10.973 -0.2206 -0.7176 -0.0261
 9383TIP3    H149564   4.497   2.318  10.989 -0.0169 -0.6660  1.1538
 9383TIP3    H249565   4.620   2.362  10.914  0.0155  1.3912  2.3449
 9384TIP3   OH249566   1.130   4.110   2.974 -0.4128 -0.4325  0.1751
 9384TIP3    H149567   1.056   4.070   3.019 -0.9240 -0.4010 -0.6241
 9384TIP3    H249568   1.140   4.059   2.894  0.5717 -0.5690  0.3718
 9385TIP3   OH249569   5.834   5.281   3.391 -0.8819  0.3153 -0.1999
 9385TIP3    H149570   5.838   5.312   3.482 -1.5370 -1.2673  0.3970
 9385TIP3    H249571   5.780   5.346   3.347 -1.1154  0.7521  0.6936
 9386TIP3   OH249572   1.660   2.147  13.755  0.5143  0.7212  0.1893
 9386TIP3    H149573   1.608   2.118  13.830  1.2416 -1.2833 -0.0063
 9386TIP3    H249574   1.749   2.118  13.774  0.7895  0.5221 -1.2415
 9387TIP3   OH249575   4.670   0.678  15.207  0.0703  0.0541  0.7706
 9387TIP3    H149576   4.726   0.637  15.141 -1.2207 -0.1848 -0.2138
 9387TIP3    H249577   4.587   0.630  15.201 -0.4147  0.7280  1.8372
 9388TIP3   OH249578   3.304   4.302   6.168  0.1927 -0.3150  0.1008
 9388TIP3    H149579   3.383   4.250   6.183  0.8481  0.2683 -1.1327
 9388TIP3    H249580   3.327   4.359   6.094 -0.3522  1.9859  1.5921
 9389TIP3   OH249581   6.170   4.244  16.031 -0.1879 -0.1817  0.2210
 9389TIP3    H149582   6.138   4.334  16.034 -2.3857 -0.8193 -1.1506
 9389TIP3    H249583   6.220   4.238  15.950  0.0722 -0.1625  0.3793
 9390TIP3   OH249584   2.703   4.930  12.916 -0.0601 -0.8010  0.5670
 9390TIP3    H149585   2.770   4.999  12.910  0.7414 -1.5861  0.2246
 9390TIP3    H249586   2.692   4.900  12.826 -0.6552 -0.8950  0.6678
 9391TIP3   OH249587   2.362   6.589   3.674 -0.1548  0.5370  0.0772
 9391TIP3    H149588   2.431   6.633   3.624  0.1508  0.8713  0.7776
 9391TIP3    H249589   2.399   6.580   3.762 -0.6354 -0.1536  0.2185
 9392TIP3   OH249590   3.917   4.895  16.767 -0.0262  0.6647 -0.0184
 9392TIP3    H149591   3.994   4.912  16.822  0.3233 -0.5869 -0.1095
 9392TIP3    H249592   3.848   4.949  16.806 -0.0155 -0.7847  2.1811
 9393TIP3   OH249593   6.485   6.537   0.269  0.0659  0.7589  0.0687
 9393TIP3    H149594   6.422   6.484   0.220 -0.0628 -0.3967  1.4050
 9393TIP3    H249595   6.457   6.627   0.256 -0.5397  0.4092 -1.1522
 9394TIP3   OH249596   6.630   5.141  16.052 -0.0205  0.3719  0.0851
 9394TIP3    H149597   6.593   5.203  16.114  1.0435 -0.3927  1.5364
 9394TIP3    H249598   6.656   5.195  15.977 -0.1012  1.5105  0.8552
 9395TIP3   OH249599   0.212   3.600   6.414 -0.6924  0.4899 -0.5943
 9395TIP3    H149600   0.272   3.652   6.468 -0.1741 -1.3963  0.7480
 9395TIP3    H249601   0.162   3.665   6.364  0.1967  2.2330  0.6811
 9396TIP3   OH249602   2.060   5.365   4.840  0.0898 -0.6995 -0.1231
 9396TIP3    H149603   1.986   5.308   4.818  0.1107  0.2419 -3.0288
 9396TIP3    H249604   2.137   5.310   4.827  0.0152 -1.0550  0.8200
 9397TIP3   OH249605   5.720   5.049   6.159  0.6720 -0.5881  0.1545
 9397TIP3    H149606   5.801   5.093   6.131  0.0673  0.7988  0.4890
 9397TIP3    H249607   5.687   5.103   6.231 -1.3303 -0.2233 -0.9489
 9398TIP3   OH249608   0.985   2.190  15.189 -0.4165 -0.1234  0.2038
 9398TIP3    H149609   1.011   2.118  15.246 -0.1620 -2.0969 -2.1920
 9398TIP3    H249610   1.065   2.212  15.140 -0.9157  0.5858 -0.3159
 9399TIP3   OH249611   0.822   0.816  10.732  0.0378 -0.2811 -0.8502
 9399TIP3    H149612   0.909   0.854  10.741 -0.2486 -0.1305  1.8993
 9399TIP3    H249613   0.762   0.890  10.733 -0.3784 -0.5534  2.3315
 9400TIP3   OH249614   3.019   4.471  16.009  0.0472 -0.3271 -0.8883
 9400TIP3    H149615   2.981   4.384  16.021 -2.0170  0.5187 -0.7756
 9400TIP3    H249616   3.098   4.456  15.956  0.5866 -2.3878  0.4107
 9401TIP3   OH249617   0.687   2.096  16.020 -0.4449 -0.1123  0.2805
 9401TIP3    H149618   0.608   2.141  15.990  0.3165  0.6757 -0.6139
 9401TIP3    H249619   0.667   2.003  16.012 -1.2063  0.0820 -0.1303
 9402TIP3   OH249620   4.891   3.081  13.561 -0.5969  0.1994 -0.2807
 9402TIP3    H149621   4.911   3.062  13.469  0.2306  0.7004 -0.2137
 9402TIP3    H249622   4.870   3.174  13.563  0.3501  0.4195  0.1789
 9403TIP3   OH249623   4.319   1.384  12.726 -0.0361 -0.1323  0.1604
 9403TIP3    H149624   4.304   1.347  12.813 -2.9348  0.5675  0.0474
 9403TIP3    H249625   4.358   1.470  12.743 -0.7258  0.0637  0.8065
 9404TIP3   OH249626   0.709   3.422  14.914  0.2297 -0.2902  0.1183
 9404TIP3    H149627   0.685   3.483  14.984  0.6820  1.2598 -1.0134
 9404TIP3    H249628   0.800   3.399  14.932 -0.5255 -2.3021  1.6792
 9405TIP3   OH249629   1.390   5.042  13.185 -0.1721  0.2111  0.0920
 9405TIP3    H149630   1.302   5.075  13.203 -0.7241 -0.2737 -1.4928
 9405TIP3    H249631   1.445   5.080  13.253 -1.4675  1.1756  0.6414
 9406TIP3   OH249632   0.538   3.868   5.664  0.3259  0.2020  0.3165
 9406TIP3    H149633   0.597   3.936   5.697 -1.2313  1.9686 -0.3035
 9406TIP3    H249634   0.452   3.910   5.665 -0.8216 -2.0518  0.5833
 9407TIP3   OH249635   3.256   0.305  13.976 -0.1753 -0.2915  0.4794
 9407TIP3    H149636   3.238   0.272  13.889  0.8476 -0.9553  0.5036
 9407TIP3    H249637   3.319   0.376  13.963 -1.1726  0.6437  0.5646
 9408TIP3   OH249638   2.086   2.075  13.243  0.0591 -0.2820  0.2848
 9408TIP3    H149639   2.009   2.020  13.231  0.1479  0.0164 -2.0713
 9408TIP3    H249640   2.058   2.162  13.215  0.8096  0.2043  0.9835
 9409TIP3   OH249641   3.346   0.799  16.798 -0.4815  0.6842 -0.0445
 9409TIP3    H149642   3.383   0.887  16.802 -1.8839  1.3030 -0.1085
 9409TIP3    H249643   3.378   0.763  16.715  0.8145  0.7759  0.3890
 9410TIP3   OH249644   4.517   4.981   0.645 -0.5856  0.1417  0.4819
 9410TIP3    H149645   4.456   4.915   0.678 -0.3682 -0.5056 -0.3737
 9410TIP3    H249646   4.559   5.016   0.723  1.0581 -2.4258  0.8725
 9411TIP3   OH249647   6.274   4.529   5.180 -0.0743 -0.2539 -0.5427
 9411TIP3    H149648   6.179   4.533   5.193 -0.0650 -2.6287  0.9929
 9411TIP3    H249649   6.294   4.602   5.122 -2.7024  0.8913 -0.1403
 9412TIP3   OH249650   6.719   1.760  16.156 -0.5505 -0.0845 -0.5167
 9412TIP3    H149651   6.645   1.753  16.216  1.5953 -1.3896  2.2311
 9412TIP3    H249652   6.754   1.848  16.169  0.9648 -0.9280  1.6747
 9413TIP3   OH249653   0.953   0.204  13.363  0.1810  0.2896 -0.2918
 9413TIP3    H149654   0.896   0.276  13.335  0.7966  1.5627  1.5189
 9413TIP3    H249655   0.921   0.181  13.450  1.2233 -0.3031 -0.0517
 9414TIP3   OH249656   6.235   6.716   4.126 -0.0832 -0.0621 -0.2924
 9414TIP3    H149657   6.215   6.758   4.042 -1.1311  0.3288  0.1268
 9414TIP3    H249658   6.160   6.659   4.143 -0.8500  1.3164  1.2638
 9415TIP3   OH249659   6.437   2.399   2.842 -0.0710  0.1191  0.0829
 9415TIP3    H149660   6.490   2.334   2.888 -1.3728 -0.1482  1.2783
 9415TIP3    H249661   6.355   2.403   2.891 -1.9366 -0.7952 -2.6771
 9416TIP3   OH249662   4.275   0.976  13.882  0.2979 -0.1133  0.0875
 9416TIP3    H149663   4.215   1.041  13.846  2.1587  1.0298 -1.1709
 9416TIP3    H249664   4.290   0.915  13.810  0.9676 -0.1179  0.2265
 9417TIP3   OH249665   0.815   5.989  14.792 -0.5780 -0.2539 -0.0743
 9417TIP3    H149666   0.778   5.921  14.849  0.3250 -0.1469  0.6644
 9417TIP3    H249667   0.799   5.957  14.703 -0.6004 -1.1976  0.2570
 9418TIP3   OH249668   0.953   2.869   0.379  0.5444 -0.1374  1.0483
 9418TIP3    H149669   0.903   2.859   0.298  1.7076 -1.4092  0.4443
 9418TIP3    H249670   0.910   2.942   0.425 -0.1260  0.6292 -0.7029
 9419TIP3   OH249671   6.040   0.564   4.878 -0.0023  0.5857  0.5369
 9419TIP3    H149672   5.987   0.643   4.895 -0.7678  0.1032  0.4436
 9419TIP3    H249673   5.995   0.495   4.927 -0.8154 -0.3282 -1.4055
 9420TIP3   OH249674   6.181   0.868  12.487 -0.0149  0.1116 -0.1993
 9420TIP3    H149675   6.246   0.933  12.460  1.2766 -1.3136 -0.7096
 9420TIP3    H249676   6.118   0.916  12.540 -0.6340  2.3370 -2.7245
 9421TIP3   OH249677   1.236   6.668   4.094 -0.5402  0.7085  0.2405
 9421TIP3    H149678   1.292   6.726   4.146  1.9997 -1.2208 -0.1877
 9421TIP3    H249679   1.252   6.693   4.004 -1.0058  0.6707  0.1452
 9422TIP3   OH249680   6.634   4.927  14.924  0.6710 -0.4559 -0.2706
 9422TIP3    H149681   6.715   4.932  14.874  1.6235  2.6961  1.3260
 9422TIP3    H249682   6.582   5.001  14.894 -0.3819 -0.7561  0.7234
 9423TIP3   OH249683   3.394   5.291   5.865 -0.0239  0.2078 -0.5561
 9423TIP3    H149684   3.309   5.321   5.831 -0.4616 -0.0628  0.2765
 9423TIP3    H249685   3.393   5.314   5.957  1.5408  1.7568 -0.8813
 9424TIP3   OH249686   2.060   4.262   5.322 -0.3470  0.1163  0.2393
 9424TIP3    H149687   2.103   4.317   5.388 -1.1168  0.8808  0.1197
 9424TIP3    H249688   2.131   4.210   5.284  0.1648 -0.0330  1.3758
 9425TIP3   OH249689   5.438   0.662  11.583 -0.4805 -0.5861  0.2431
 9425TIP3    H149690   5.475   0.580  11.551  0.3628  0.1447 -0.7076
 9425TIP3    H249691   5.430   0.717  11.506  1.4135  1.1477  1.1864
 9426TIP3   OH249692   5.025   4.750   4.341 -0.1719 -0.0459  0.1562
 9426TIP3    H149693   5.085   4.811   4.297 -0.1155  0.0155  0.3187
 9426TIP3    H249694   5.028   4.671   4.287 -0.3672  0.1495 -0.1497
 9427TIP3   OH249695   2.775   4.896   3.523 -0.1467 -0.1815  0.5937
 9427TIP3    H149696   2.745   4.984   3.498  0.9736  0.2710  0.7835
 9427TIP3    H249697   2.710   4.866   3.586 -0.8356  0.2966  0.1222
 9428TIP3   OH249698   6.760   6.780  12.156 -0.4054 -0.8270 -0.1945
 9428TIP3    H149699   6.855   6.784  12.149 -0.3443  0.9591  1.0086
 9428TIP3    H249700   6.743   6.701  12.209  0.4783 -0.4972  0.6036
 9429TIP3   OH249701   5.138   1.734   2.436  0.6141  0.8141  0.5636
 9429TIP3    H149702   5.059   1.746   2.490  0.0854  0.4633 -0.1186
 9429TIP3    H249703   5.180   1.656   2.472  0.1509  0.4589  0.3418
 9430TIP3   OH249704   1.585   2.442   6.275  0.1806 -0.0238 -0.0247
 9430TIP3    H149705   1.532   2.371   6.311 -0.5757 -0.8916 -2.6401
 9430TIP3    H249706   1.547   2.521   6.312  0.6267 -0.8568  2.4357
 9431TIP3   OH249707   1.611   5.982   2.945  0.0190  0.2710  0.0480
 9431TIP3    H149708   1.620   5.991   2.850 -0.2536 -0.0763 -0.0125
 9431TIP3    H249709   1.667   5.908   2.968  0.8624  0.9709  0.2992
 9432TIP3   OH249710   1.974   6.788   3.525 -0.6605 -0.2943 -0.1211
 9432TIP3    H149711   1.926   6.763   3.604 -1.5931 -0.0404 -0.5829
 9432TIP3    H249712   2.025   6.711   3.502 -0.4551 -0.3990  0.6777
 9433TIP3   OH249713   4.487   3.057   1.950  0.5911 -0.0281 -0.1181
 9433TIP3    H149714   4.420   3.097   1.895 -0.4249 -0.9325  0.4347
 9433TIP3    H249715   4.538   3.002   1.890  0.3009 -0.0100 -0.3829
 9434TIP3   OH249716   4.756   2.047  10.930 -0.4417 -0.1730  0.7662
 9434TIP3    H149717   4.850   2.065  10.935 -0.0971  1.1165 -4.1961
 9434TIP3    H249718   4.751   1.954  10.905 -0.3079  0.1519 -0.5355
 9435TIP3   OH249719   5.321   4.671  12.230  0.3413 -0.1322  0.2598
 9435TIP3    H149720   5.241   4.629  12.263 -1.4110  2.0545 -0.8779
 9435TIP3    H249721   5.387   4.654  12.297 -1.3723 -1.1072  1.7947
 9436TIP3   OH249722   5.745   2.559   4.632 -0.2732  0.3727 -0.2759
 9436TIP3    H149723   5.686   2.586   4.562 -0.9957  0.3624  0.3132
 9436TIP3    H249724   5.690   2.510   4.693  0.5819 -0.6366 -0.2763
 9437TIP3   OH249725   4.635   6.108   1.155  0.3714 -0.0691 -0.0711
 9437TIP3    H149726   4.611   6.178   1.215 -0.5472  0.3453 -0.8941
 9437TIP3    H249727   4.626   6.028   1.207 -1.8461  0.1432 -0.0173
 9438TIP3   OH249728   0.740   1.078  13.478  0.7379 -0.3446 -0.0471
 9438TIP3    H149729   0.781   1.162  13.498  1.1237 -0.7124  0.7499
 9438TIP3    H249730   0.652   1.084  13.516  0.7091 -0.2503 -0.1276
 9439TIP3   OH249731   0.179   5.454   5.035  0.3463  0.4698 -0.1794
 9439TIP3    H149732   0.153   5.400   5.110  1.1576 -1.4585 -1.2294
 9439TIP3    H249733   0.273   5.468   5.047  0.2608  1.1399 -0.2544
 9440TIP3   OH249734   5.674   2.681   0.989  0.0106 -0.4588  0.3488
 9440TIP3    H149735   5.593   2.722   1.020  1.2866  1.5993  1.1812
 9440TIP3    H249736   5.744   2.730   1.032  1.7312 -2.7911  0.4313
 9441TIP3   OH249737   6.491   0.665  16.815  1.0136 -0.1843  0.4598
 9441TIP3    H149738   6.455   0.750  16.844  0.1560 -0.5812  0.5854
 9441TIP3    H249739   6.544   0.687  16.739  2.2795  0.7166  1.5509
 9442TIP3   OH249740   2.346   6.188   4.485  0.4145 -0.1279 -0.2863
 9442TIP3    H149741   2.269   6.170   4.432  0.3064  1.4594 -0.7378
 9442TIP3    H249742   2.349   6.117   4.549 -1.1597 -0.4574 -0.5443
 9443TIP3   OH249743   1.794   3.572  12.795  0.2021  0.3622  0.1939
 9443TIP3    H149744   1.847   3.575  12.875  1.5879 -1.1696 -0.5936
 9443TIP3    H249745   1.802   3.481  12.764 -2.6651  0.1240 -0.1660
 9444TIP3   OH249746   6.394   1.339  15.259  0.4609  0.1840 -0.7476
 9444TIP3    H149747   6.382   1.353  15.353 -2.0912  1.5596 -1.1854
 9444TIP3    H249748   6.438   1.418  15.228  2.4428 -0.7888 -0.6094
 9445TIP3   OH249749   0.159   6.570   5.711 -0.7563 -0.1733 -0.1928
 9445TIP3    H149750   0.123   6.658   5.719 -0.5871 -0.0339 -0.8874
 9445TIP3    H249751   0.090   6.519   5.669 -0.4306 -0.0854 -0.8497
 9446TIP3   OH249752   0.584   1.615   4.613 -0.0517  0.1730  0.0031
 9446TIP3    H149753   0.565   1.708   4.622 -0.2783  0.0818  0.4890
 9446TIP3    H249754   0.560   1.577   4.698  0.0947 -0.3166 -0.1713
 9447TIP3   OH249755   6.296   4.938  13.234 -0.1510 -0.6264  0.1298
 9447TIP3    H149756   6.261   4.937  13.323 -1.1642 -0.4330 -0.2545
 9447TIP3    H249757   6.260   5.018  13.195 -0.3008 -1.0839 -0.6855
 9448TIP3   OH249758   0.147   6.342   2.954 -0.1213  0.3842 -0.1144
 9448TIP3    H149759   0.237   6.360   2.928  0.4988 -1.5070  0.5480
 9448TIP3    H249760   0.094   6.395   2.895  1.4093  1.5890 -0.4747
 9449TIP3   OH249761   4.560   6.768   5.549  0.2908  0.3525 -0.0155
 9449TIP3    H149762   4.505   6.837   5.513  0.4253  0.4659 -0.0052
 9449TIP3    H249763   4.574   6.707   5.477  0.1628  0.3315 -0.0216
 9450TIP3   OH249764   5.438   2.914  16.349  0.5934  0.5656  0.2972
 9450TIP3    H149765   5.368   2.980  16.344  0.1093  0.1751  1.5366
 9450TIP3    H249766   5.393   2.831  16.339  1.3408  0.3956 -2.4106
 9451TIP3   OH249767   4.145   6.317  12.977  0.3752 -0.3150  0.1812
 9451TIP3    H149768   4.096   6.255  13.031 -1.0678  0.8801  0.2952
 9451TIP3    H249769   4.102   6.314  12.891  0.2834  0.5075  0.1867
 9452TIP3   OH249770   5.349   6.685   2.905 -0.1852  0.0513  0.2718
 9452TIP3    H149771   5.368   6.739   2.982 -1.3924 -0.0622  0.6682
 9452TIP3    H249772   5.266   6.642   2.925 -0.0238 -0.7537 -0.6889
 9453TIP3   OH249773   5.341   5.127  14.675 -0.0501  0.0912  0.3376
 9453TIP3    H149774   5.427   5.089  14.695  1.1510  2.6014  0.2724
 9453TIP3    H249775   5.333   5.121  14.580  1.6293  2.7899 -0.0709
 9454TIP3   OH249776   3.718   3.667   1.856 -0.1985  0.7649  0.1592
 9454TIP3    H149777   3.634   3.629   1.883  0.6000 -0.5016  0.9602
 9454TIP3    H249778   3.718   3.660   1.761  0.0407 -1.6384  0.2697
 9455TIP3   OH249779   3.962   1.009  15.644 -0.0157 -0.1559  0.2317
 9455TIP3    H149780   4.031   1.034  15.582  0.8835 -1.5638  0.6324
 9455TIP3    H249781   3.989   0.924  15.677 -1.7250 -0.5266  0.7613
 9456TIP3   OH249782   4.574   2.711  10.983  0.1908  0.1070 -0.0931
 9456TIP3    H149783   4.612   2.630  10.948  0.6186 -0.2147  1.0825
 9456TIP3    H249784   4.514   2.683  11.052  0.7065  0.8041  0.6636
 9457TIP3   OH249785   5.544   4.998   4.080 -0.0921  0.5860  0.0456
 9457TIP3    H149786   5.493   5.032   4.153 -0.5756 -1.3503  0.6803
 9457TIP3    H249787   5.482   4.993   4.008 -0.1021  0.7066  0.0452
 9458TIP3   OH249788   5.907   5.334  14.797  0.4218 -0.0263 -0.2976
 9458TIP3    H149789   5.820   5.372  14.788 -0.8229 -2.1401  1.6507
 9458TIP3    H249790   5.960   5.404  14.835 -1.0339  0.6549  0.5914
 9459TIP3   OH249791   5.760   0.520   6.479 -0.4053 -0.4066 -0.6477
 9459TIP3    H149792   5.815   0.540   6.404  0.0729  1.4262  0.1441
 9459TIP3    H249793   5.801   0.443   6.519  0.5570 -0.1252 -1.0762
 9460TIP3   OH249794   4.445   4.427   0.940  0.4991 -0.3165  0.7702
 9460TIP3    H149795   4.417   4.509   0.978  1.2445  1.0038 -1.3487
 9460TIP3    H249796   4.494   4.452   0.862 -1.9543 -2.8007 -1.7970
 9461TIP3   OH249797   1.826   4.420   5.365 -0.0316  0.1942  0.6400
 9461TIP3    H149798   1.896   4.357   5.349 -1.5073 -1.2215 -0.6944
 9461TIP3    H249799   1.842   4.491   5.304 -1.7387 -1.9133 -2.5262
 9462TIP3   OH249800   1.088   3.731  15.313  0.4105  0.3594  0.3428
 9462TIP3    H149801   1.016   3.771  15.361  0.2928  0.3710  0.1582
 9462TIP3    H249802   1.066   3.638  15.312 -0.0180  0.4648 -0.4157
 9463TIP3   OH249803   6.345   1.087  11.063  0.6312 -0.0360  0.1891
 9463TIP3    H149804   6.362   1.111  10.972  0.9990  1.5090  0.6320
 9463TIP3    H249805   6.418   1.031  11.087  0.6857 -0.2118 -0.3813
 9464TIP3   OH249806   1.073   2.832  16.216  0.2490 -0.1979  0.0530
 9464TIP3    H149807   1.071   2.737  16.203  1.1765 -0.1283 -0.7682
 9464TIP3    H249808   0.984   2.855  16.241 -0.0048 -1.2787  0.1914
 9465TIP3   OH249809   3.504   3.976  12.731 -0.0263 -0.3262  0.2337
 9465TIP3    H149810   3.586   4.024  12.737  0.2289 -0.5620 -0.9643
 9465TIP3    H249811   3.484   3.975  12.637 -0.8267 -1.2241  0.3963
 9466TIP3   OH249812   6.731   2.590  14.548 -0.1958  0.0796  0.5700
 9466TIP3    H149813   6.665   2.537  14.503 -0.2764  0.4936  0.1864
 9466TIP3    H249814   6.804   2.595  14.487 -0.4334  0.9164  0.3303
 9467TIP3   OH249815   0.764   2.434   3.947 -0.6290 -0.4803  0.4516
 9467TIP3    H149816   0.710   2.512   3.952  0.0862 -0.0445  1.9825
 9467TIP3    H249817   0.790   2.416   4.037  0.3222 -1.7055 -0.0256
 9468TIP3   OH249818   1.495   5.230  12.679 -0.1278  0.4809 -0.3242
 9468TIP3    H149819   1.501   5.214  12.773 -2.2800  1.6663  0.0722
 9468TIP3    H249820   1.549   5.161  12.639 -0.5142 -1.0584  1.6822
 9469TIP3   OH249821   6.568   4.512   2.156  0.0820 -0.0299  0.3853
 9469TIP3    H149822   6.500   4.577   2.169  1.0937  0.9409  1.0049
 9469TIP3    H249823   6.522   4.434   2.126 -1.4700  0.1475  2.1370
 9470TIP3   OH249824   0.528   6.087   1.666  0.2288 -0.2640 -0.0298
 9470TIP3    H149825   0.532   6.071   1.571 -0.5270  1.8955 -0.4762
 9470TIP3    H249826   0.515   6.000   1.704  0.9691 -1.2359 -1.8603
 9471TIP3   OH249827   6.064   3.061  16.749 -0.1544 -0.0890  0.3848
 9471TIP3    H149828   6.144   3.097  16.710 -0.2261 -0.2112  0.1168
 9471TIP3    H249829   6.095   3.008  16.823 -0.0185  0.1777  0.5191
 9472TIP3   OH249830   1.329   3.951  13.247 -0.4263 -0.4969  0.4481
 9472TIP3    H149831   1.381   3.989  13.176  0.8711 -1.5620  0.7844
 9472TIP3    H249832   1.295   4.027  13.295  1.1939  0.2691  0.4605
 9473TIP3   OH249833   1.127   3.809  11.531  0.0846 -0.1148  0.0271
 9473TIP3    H149834   1.197   3.867  11.501  0.7161 -0.7049  0.3460
 9473TIP3    H249835   1.071   3.865  11.584 -0.3297  0.6351 -1.1455
 9474TIP3   OH249836   5.134   0.391   2.907  0.4294 -0.1269 -0.2885
 9474TIP3    H149837   5.153   0.485   2.909 -0.9665  0.3012  4.2784
 9474TIP3    H249838   5.042   0.386   2.880  0.7765 -0.3246 -1.4863
 9475TIP3   OH249839   0.328   4.101  13.753 -0.3994 -0.6807  0.2201
 9475TIP3    H149840   0.349   4.192  13.771 -2.1458 -0.2746  0.3745
 9475TIP3    H249841   0.234   4.101  13.732 -0.3201 -2.3574 -0.3396
 9476TIP3   OH249842   5.341   4.062  13.695 -0.0937  0.2604  0.1549
 9476TIP3    H149843   5.405   4.087  13.628 -0.3285  1.8988  0.5112
 9476TIP3    H249844   5.394   4.030  13.768  0.2986  1.0485  0.2255
 9477TIP3   OH249845   4.880   5.677   2.696  0.2996  0.2562  1.0084
 9477TIP3    H149846   4.849   5.766   2.710 -3.3088 -0.6573 -0.1632
 9477TIP3    H249847   4.824   5.623   2.751  0.6550 -1.4577 -0.2332
 9478TIP3   OH249848   1.464   5.487  12.784 -0.2821 -0.6610  0.1516
 9478TIP3    H149849   1.546   5.496  12.832 -0.3040  0.7062 -0.0188
 9478TIP3    H249850   1.481   5.418  12.720  0.8203 -0.2406 -0.0341
 9479TIP3   OH249851   1.520   1.942  12.793  0.2686 -0.1884 -0.0021
 9479TIP3    H149852   1.508   2.025  12.748  1.9978 -1.2890 -2.7411
 9479TIP3    H249853   1.441   1.931  12.846  0.4174  3.6085  1.3106
 9480TIP3   OH249854   5.164   4.691  11.091 -0.2273 -0.1414  0.3856
 9480TIP3    H149855   5.244   4.722  11.049  0.0316 -0.7224  0.4422
 9480TIP3    H249856   5.146   4.756  11.159  0.6611 -0.4547  0.9336
 9481TIP3   OH249857   0.643   1.141   4.481  0.1996  0.0937  0.0427
 9481TIP3    H149858   0.711   1.191   4.436 -1.6016  0.4805 -2.4927
 9481TIP3    H249859   0.635   1.182   4.567  1.8897  1.1797 -0.2793
 9482TIP3   OH249860   2.567   2.980   4.983 -0.4033 -0.6282 -0.3480
 9482TIP3    H149861   2.524   3.058   4.950  1.2604  0.8635  0.8181
 9482TIP3    H249862   2.504   2.941   5.044 -0.9220  0.3001 -0.2768
 9483TIP3   OH249863   1.248   4.963   3.906  0.1908  0.2400  0.0727
 9483TIP3    H149864   1.209   5.038   3.860 -2.5800 -1.6047 -0.8858
 9483TIP3    H249865   1.269   4.901   3.836  0.9262 -0.5315  0.9611
 9484TIP3   OH249866   1.513   1.195   2.731 -0.2543 -0.4350 -0.4816
 9484TIP3    H149867   1.480   1.191   2.641 -0.7582 -0.7771 -0.2860
 9484TIP3    H249868   1.498   1.108   2.766 -1.9991  0.2580  0.5953
 9485TIP3   OH249869   3.167   6.255  11.724 -0.2200 -0.4541 -0.4070
 9485TIP3    H149870   3.254   6.293  11.720 -0.0498 -0.9258 -2.8629
 9485TIP3    H249871   3.169   6.182  11.661 -2.1377 -0.9758  0.0565
 9486TIP3   OH249872   6.517   5.397   5.808  0.3000  0.7896 -0.4097
 9486TIP3    H149873   6.608   5.401   5.838  0.4618 -0.2424 -0.7408
 9486TIP3    H249874   6.465   5.394   5.889  0.5188  1.7903 -0.2138
 9487TIP3   OH249875   1.798   1.483  13.031 -0.1596  0.3971 -0.2092
 9487TIP3    H149876   1.725   1.447  12.981 -0.0509  0.5746 -0.4950
 9487TIP3    H249877   1.759   1.511  13.114 -0.3597  0.2147 -0.2420
 9488TIP3   OH249878   6.620   0.470  12.992 -0.0584 -0.0354  0.7749
 9488TIP3    H149879   6.650   0.550  12.950  1.4635  0.0189  1.8932
 9488TIP3    H249880   6.682   0.455  13.063 -1.0422 -1.5321  1.3707
 9489TIP3   OH249881   3.829   2.265  16.694  0.5179  0.7281 -0.5602
 9489TIP3    H149882   3.790   2.190  16.650  0.3638  0.8890 -0.7040
 9489TIP3    H249883   3.919   2.239  16.711  0.6526  0.7527 -1.1981
 9490TIP3   OH249884   3.389   0.144  11.915 -0.4291  0.5153  0.0007
 9490TIP3    H149885   3.429   0.185  11.838 -0.1753 -0.1484 -0.2366
 9490TIP3    H249886   3.384   0.051  11.891 -1.0375  0.4165  0.4963
 9491TIP3   OH249887   3.359   2.829   0.965 -0.0195 -0.0806  0.0375
 9491TIP3    H149888   3.441   2.791   0.998  0.5328  0.3386 -0.8082
 9491TIP3    H249889   3.364   2.817   0.870 -0.9671 -0.0887 -0.0190
 9492TIP3   OH249890   1.786   4.273  12.195 -0.7675 -0.1746 -0.6355
 9492TIP3    H149891   1.841   4.265  12.273 -1.6116 -0.8300 -0.0848
 9492TIP3    H249892   1.699   4.246  12.225 -1.2704  0.3143 -1.6218
 9493TIP3   OH249893   0.197   4.743   3.466  0.5361 -0.0855  0.3878
 9493TIP3    H149894   0.126   4.807   3.459  2.5528  2.2853  0.1745
 9493TIP3    H249895   0.190   4.708   3.555 -1.9553 -1.3488 -0.2191
 9494TIP3   OH249896   1.945   6.300   5.509 -0.2183 -0.4088  0.7413
 9494TIP3    H149897   2.024   6.323   5.558 -0.9530 -0.8466  2.1838
 9494TIP3    H249898   1.908   6.384   5.482  0.8009 -0.2020 -0.0927
 9495TIP3   OH249899   2.860   2.512   2.823  0.1566  0.3177  0.5065
 9495TIP3    H149900   2.914   2.560   2.760 -0.7412 -0.5173 -0.9449
 9495TIP3    H249901   2.774   2.506   2.782 -0.8677  0.9518  2.4379
 9496TIP3   OH249902   2.960   2.975  13.524  0.4839 -0.3316  0.0395
 9496TIP3    H149903   2.938   2.924  13.602 -0.4777  1.2709  0.8682
 9496TIP3    H249904   3.045   3.015  13.545  1.2027 -1.4947 -0.5805
 9497TIP3   OH249905   2.895   2.761  17.009  0.2714 -0.2318  0.3652
 9497TIP3    H149906   2.876   2.668  16.995  1.0423 -0.1103 -1.9145
 9497TIP3    H249907   2.839   2.806  16.945 -0.9214  0.9945  2.1897
 9498TIP3   OH249908   2.833   4.714   5.169 -0.0488 -0.0076 -0.1782
 9498TIP3    H149909   2.826   4.694   5.076 -1.5207  0.0485 -0.1001
 9498TIP3    H249910   2.876   4.636   5.207 -1.0974 -0.8356 -0.6423
 9499TIP3   OH249911   4.156   3.274  16.593 -0.7450 -0.4924  0.1344
 9499TIP3    H149912   4.250   3.257  16.582 -0.6387  0.6561 -1.0430
 9499TIP3    H249913   4.139   3.348  16.535 -2.2563 -0.2619  0.8406
 9500TIP3   OH249914   5.920   5.746  16.362 -0.9575 -0.3124  0.1462
 9500TIP3    H149915   5.897   5.777  16.450 -3.1329 -0.3006 -0.3784
 9500TIP3    H249916   5.870   5.665  16.352 -0.1651 -0.7003 -0.8258
 9501TIP3   OH249917   0.239   1.629   3.272  0.1590 -0.0190  0.1544
 9501TIP3    H149918   0.198   1.543   3.280 -1.5664  0.7666  0.0225
 9501TIP3    H249919   0.208   1.678   3.348  2.8655 -0.1356  1.4661
 9502TIP3   OH249920   5.943   4.384   0.543 -0.1897  0.0163  0.7384
 9502TIP3    H149921   6.024   4.368   0.591 -0.1373 -1.7094  0.1558
 9502TIP3    H249922   5.893   4.303   0.553 -2.2851  1.3607  1.8452
 9503TIP3   OH249923   0.278   1.125   1.041 -0.2894  0.4076  0.1744
 9503TIP3    H149924   0.242   1.063   1.104  0.6498 -1.1875 -0.8149
 9503TIP3    H249925   0.203   1.149   0.986 -0.4684 -0.5539 -0.0031
 9504TIP3   OH249926   5.941   5.431  12.497 -0.5520  0.0439 -0.3295
 9504TIP3    H149927   6.016   5.460  12.550 -0.2428 -1.9761  0.4161
 9504TIP3    H249928   5.879   5.504  12.502  0.9705  1.3959 -0.2217
 9505TIP3   OH249929   2.304   4.404   3.515  0.2918 -0.1859 -0.6166
 9505TIP3    H149930   2.228   4.428   3.568 -0.3437 -0.4484 -1.3886
 9505TIP3    H249931   2.379   4.439   3.563 -0.1231 -1.6346  1.2060
 9506TIP3   OH249932   5.751   0.440  15.179 -0.6031 -0.0100 -0.7069
 9506TIP3    H149933   5.839   0.404  15.176 -1.2204 -1.5799 -1.2239
 9506TIP3    H249934   5.759   0.528  15.143  0.9195  0.2800  0.2617
 9507TIP3   OH249935   3.348   0.630  14.708 -0.1772 -0.1068 -0.2480
 9507TIP3    H149936   3.296   0.609  14.630  1.8749 -1.6537 -1.2819
 9507TIP3    H249937   3.413   0.693  14.677  1.4336 -1.6507 -0.1693
 9508TIP3   OH249938   0.119   0.900  16.425  0.0947  0.4497  0.0343
 9508TIP3    H149939   0.153   0.824  16.378  0.2123 -0.1096  0.9797
 9508TIP3    H249940   0.023   0.892  16.419  0.0963 -0.2044  0.7744
 9509TIP3   OH249941   6.394   6.794   0.171 -0.2258  0.0559 -0.3151
 9509TIP3    H149942   6.330   6.862   0.195  0.0115  0.1937 -0.0700
 9509TIP3    H249943   6.368   6.767   0.083 -0.5225  0.2314 -0.2834
 9510TIP3   OH249944   3.208   5.437  15.994 -0.0122 -0.0436  0.0058
 9510TIP3    H149945   3.171   5.523  16.012 -0.3019 -0.0927 -0.3361
 9510TIP3    H249946   3.243   5.407  16.078 -1.6889 -0.4507  0.5841
 9511TIP3   OH249947   2.244   6.425   5.357 -0.2904  0.2889 -0.1428
 9511TIP3    H149948   2.152   6.443   5.335 -0.2059  0.2008 -0.5819
 9511TIP3    H249949   2.241   6.392   5.447 -0.7023  0.1805 -0.1928
 9512TIP3   OH249950   3.560   4.044   5.503 -0.7775 -0.8150  0.0178
 9512TIP3    H149951   3.538   3.964   5.455 -0.1170  0.7957 -3.1834
 9512TIP3    H249952   3.654   4.057   5.489 -1.0821  1.1211 -0.5693
 9513TIP3   OH249953   6.687   2.350   4.627 -0.3612 -0.7787 -0.0563
 9513TIP3    H149954   6.709   2.276   4.571  1.8995 -0.1770 -0.0958
 9513TIP3    H249955   6.659   2.311   4.709 -0.8822 -1.6584 -0.6297
 9514TIP3   OH249956   5.807   6.225   1.546 -0.6444 -0.4251  0.1426
 9514TIP3    H149957   5.726   6.267   1.572  0.5257  1.3202  1.2004
 9514TIP3    H249958   5.870   6.296   1.538  0.6002 -1.6193 -1.4835
 9515TIP3   OH249959   3.930   4.848   3.093 -0.8115 -0.1514 -0.4096
 9515TIP3    H149960   4.014   4.893   3.090  0.0509 -1.6442  0.2373
 9515TIP3    H249961   3.876   4.901   3.152  0.1580  0.0852  0.2934
 9516TIP3   OH249962   2.945   6.665  16.174  0.1512  0.8810  0.2880
 9516TIP3    H149963   2.927   6.581  16.132  1.7137  0.2170  0.8620
 9516TIP3    H249964   2.863   6.688  16.217 -0.2850 -0.4176  0.2101
 9517TIP3   OH249965   4.353   5.956   0.369 -0.4078 -0.1434 -0.3030
 9517TIP3    H149966   4.386   5.949   0.459 -2.1204 -1.6192  0.2772
 9517TIP3    H249967   4.322   6.046   0.362 -0.3130 -0.0305  0.6149
 9518TIP3   OH249968   6.533   2.331   6.147 -0.1593 -0.2585 -0.1442
 9518TIP3    H149969   6.589   2.269   6.100  0.6975  0.5579 -0.2351
 9518TIP3    H249970   6.593   2.378   6.205 -0.5357  1.3820 -1.0227
 9519TIP3   OH249971   2.467   6.554  13.821 -0.2485  0.1465  0.4060
 9519TIP3    H149972   2.424   6.597  13.747 -0.3548 -1.8548 -0.7698
 9519TIP3    H249973   2.547   6.517  13.783  0.2127 -0.0300  1.5352
 9520TIP3   OH249974   6.259   3.367   3.692  0.0326 -0.1239  0.1615
 9520TIP3    H149975   6.228   3.338   3.777 -3.0468 -0.3541 -0.9122
 9520TIP3    H249976   6.269   3.462   3.701 -1.4000  0.0160  0.5079
 9521TIP3   OH249977   6.692   6.730  13.883  0.0739 -0.2971 -0.2313
 9521TIP3    H149978   6.738   6.758  13.962  0.5371 -1.1640 -0.1843
 9521TIP3    H249979   6.667   6.812  13.840  0.5468  0.1852  0.3887
 9522TIP3   OH249980   5.314   4.589   1.342 -0.5994  0.2889  0.0972
 9522TIP3    H149981   5.344   4.662   1.288 -1.1664  1.2083  0.9877
 9522TIP3    H249982   5.391   4.564   1.394 -0.1621 -0.3452 -0.8171
 9523TIP3   OH249983   4.483   5.196  16.853 -0.3891 -0.2803 -0.5013
 9523TIP3    H149984   4.522   5.211  16.767 -0.3011 -0.6827 -0.5345
 9523TIP3    H249985   4.394   5.230  16.845  0.1593  1.3071 -0.2027
 9524TIP3   OH249986   4.572   1.008   3.419 -0.5475  0.1649  0.1755
 9524TIP3    H149987   4.560   1.065   3.495 -0.6275  1.6523 -0.9110
 9524TIP3    H249988   4.496   1.027   3.364  0.6177  0.7433 -1.2710
 9525TIP3   OH249989   1.811   4.768  13.083 -0.9674  0.8466 -0.1554
 9525TIP3    H149990   1.808   4.859  13.112 -0.4082  0.7412  0.2440
 9525TIP3    H249991   1.824   4.774  12.988  0.9016  1.1963  0.0857
 9526TIP3   OH249992   2.176   0.640  13.333  0.1753  0.2773  0.3077
 9526TIP3    H149993   2.269   0.633  13.309  0.6901  3.7819  0.6560
 9526TIP3    H249994   2.132   0.663  13.251 -0.0119  0.6386  0.5047
 9527TIP3   OH249995   3.809   0.107  14.318  0.4949 -0.0594  0.2407
 9527TIP3    H149996   3.838   0.138  14.404  1.7099 -0.9034  0.1626
 9527TIP3    H249997   3.807   0.011  14.326  2.6960 -0.3133 -1.2447
 9528TIP3   OH249998   5.086   1.055   4.797 -0.4964 -0.0260  0.3276
 9528TIP3    H149999   5.172   1.072   4.759 -0.1811 -0.3808  0.8649
 9528TIP3    H250000   5.026   1.060   4.724 -0.0377  0.3873 -0.0304
 9529TIP3   OH250001   0.816   1.482   0.503  0.1771 -0.3178  0.1544
 9529TIP3    H150002   0.739   1.492   0.447  0.7513  0.6793 -0.4819
 9529TIP3    H250003   0.812   1.556   0.563  0.8644  0.0068 -0.1818
 9530TIP3   OH250004   2.875   5.151  12.820 -0.1275 -0.2540  0.6646
 9530TIP3    H150005   2.821   5.225  12.848  0.8037  0.4824  0.5581
 9530TIP3    H250006   2.940   5.189  12.761 -0.4570 -1.3746 -0.4594
 9531TIP3   OH250007   2.506   4.321  12.372 -0.3579  0.4231  0.0791
 9531TIP3    H150008   2.585   4.364  12.403  0.1798 -0.5043  0.0284
 9531TIP3    H250009   2.434   4.372  12.410  0.2649 -0.0338  1.9249
 9532TIP3   OH250010   5.653   3.953   0.063  0.4179  0.3775 -0.0809
 9532TIP3    H150011   5.644   3.858   0.060 -1.1424  0.4884 -0.0632
 9532TIP3    H250012   5.714   3.974  -0.007 -0.0169 -0.5711 -0.7706
 9533TIP3   OH250013   1.583   6.460   2.780  0.5636 -0.1203  0.0476
 9533TIP3    H150014   1.614   6.377   2.818  1.2426  1.0020  2.0976
 9533TIP3    H250015   1.662   6.513   2.771  0.0228  0.6177 -0.4187
 9534TIP3   OH250016   1.040   0.737   6.484  0.0761 -0.0115  0.0957
 9534TIP3    H150017   1.117   0.784   6.515 -0.0754 -0.2389  0.8415
 9534TIP3    H250018   0.989   0.721   6.563 -0.7005  0.0700 -0.3808
 9535TIP3   OH250019   3.290   1.821  14.447 -0.0701 -0.5881  0.2328
 9535TIP3    H150020   3.293   1.858  14.359  0.0356 -1.1693 -0.0121
 9535TIP3    H250021   3.370   1.854  14.489  0.2386 -0.8812 -0.1209
 9536TIP3   OH250022   0.940   0.417  14.493 -0.1970 -0.3709 -0.0094
 9536TIP3    H150023   0.847   0.414  14.469  0.5079  0.2184 -3.1668
 9536TIP3    H250024   0.939   0.443  14.586 -3.1460  0.4120 -0.1419
 9537TIP3   OH250025   4.138   5.012   5.088  0.0868  0.3408  0.4105
 9537TIP3    H150026   4.073   5.042   5.025  2.5382  1.9696 -1.5451
 9537TIP3    H250027   4.119   5.061   5.167 -3.3541 -2.0881  1.3388
 9538TIP3   OH250028   6.193   4.385   3.507 -0.1046  0.4260  0.0258
 9538TIP3    H150029   6.256   4.408   3.575  0.5182  0.9519 -0.7190
 9538TIP3    H250030   6.124   4.338   3.554  1.5186 -1.4685  0.6649
 9539TIP3   OH250031   4.081   3.630  12.200  0.3018  0.1885 -0.1754
 9539TIP3    H150032   4.038   3.702  12.153 -0.8992  0.8480  1.8327
 9539TIP3    H250033   4.069   3.554  12.143  0.9014  1.3722 -1.9830
 9540TIP3   OH250034   3.025   6.436  16.815  0.4525 -0.3862  0.0571
 9540TIP3    H150035   3.008   6.386  16.895 -0.8095  0.5406  0.4037
 9540TIP3    H250036   3.039   6.526  16.846 -1.5506  0.2883 -0.8432
 9541TIP3   OH250037   3.919   0.010  14.953 -0.4256 -0.5866  0.3893
 9541TIP3    H150038   4.000  -0.040  14.944 -0.4887 -0.5226 -0.5719
 9541TIP3    H250039   3.914   0.063  14.874  0.4861  2.2155  2.0345
 9542TIP3   OH250040   6.439   6.007  13.846 -0.2486 -0.4213  0.6493
 9542TIP3    H150041   6.507   6.059  13.888 -0.5094  1.3364 -0.9769
 9542TIP3    H250042   6.484   5.963  13.774 -0.9688  1.9375 -1.4019
 9543TIP3   OH250043   3.638   6.692   3.117  0.3753 -0.8473 -0.2331
 9543TIP3    H150044   3.614   6.608   3.078 -1.2558 -0.1795 -0.7713
 9543TIP3    H250045   3.616   6.757   3.051 -0.5209  0.1597  0.9946
 9544TIP3   OH250046   0.760   6.552  13.514 -0.0035 -0.4272 -0.8796
 9544TIP3    H150047   0.760   6.565  13.609  0.5540 -0.7269 -0.8342
 9544TIP3    H250048   0.793   6.463  13.502  0.3381 -0.2396 -1.3750
 9545TIP3   OH250049   0.088   3.075   5.217 -0.3274 -0.5093  0.3961
 9545TIP3    H150050   0.138   3.134   5.272 -1.9017 -0.0818  1.4296
 9545TIP3    H250051   0.001   3.114   5.211 -1.1159 -2.1719  0.2265
 9546TIP3   OH250052   3.595   6.103   2.052  0.7935  0.1188  0.2772
 9546TIP3    H150053   3.676   6.154   2.041  0.2784  0.9250  0.1893
 9546TIP3    H250054   3.613   6.021   2.007  0.9131  1.0043 -1.3732
 9547TIP3   OH250055   0.995   5.757   5.888 -0.1072 -0.0209  0.0956
 9547TIP3    H150056   0.922   5.722   5.939 -0.9433 -0.5702 -1.4212
 9547TIP3    H250057   1.064   5.773   5.953 -0.7598 -1.6314  1.2512
 9548TIP3   OH250058   4.273   2.296  12.209  0.0946  0.3089  0.4401
 9548TIP3    H150059   4.330   2.370  12.187 -1.4055  1.5783  0.6393
 9548TIP3    H250060   4.209   2.292  12.137  1.0264 -1.7921 -0.3527
 9549TIP3   OH250061   6.784   3.875  15.611  0.8356  0.5992  0.1337
 9549TIP3    H150062   6.764   3.963  15.581  0.1507  0.9433  1.5100
 9549TIP3    H250063   6.742   3.869  15.697  2.0733 -0.5752  0.6967
 9550TIP3   OH250064   2.714   3.178   5.907 -0.5003 -0.3397 -0.1063
 9550TIP3    H150065   2.784   3.176   5.973  0.8351 -1.1285 -1.4933
 9550TIP3    H250066   2.756   3.213   5.829 -1.5039 -1.3913 -1.1423
 9551TIP3   OH250067   0.475   4.786   6.198  0.0355 -0.0563 -0.5313
 9551TIP3    H150068   0.504   4.870   6.163 -0.9729  0.6671  0.2929
 9551TIP3    H250069   0.480   4.726   6.123  1.0693  0.6412 -1.0549
 9552TIP3   OH250070   1.543   3.432   3.108  0.3667 -0.2541  0.3588
 9552TIP3    H150071   1.525   3.367   3.176 -0.1893 -0.5740 -0.0845
 9552TIP3    H250072   1.638   3.435   3.101  0.4218 -0.2840  1.0857
 9553TIP3   OH250073   5.751   0.587  15.515  0.2695  0.3938  0.0190
 9553TIP3    H150074   5.725   0.653  15.451  1.0973  1.0757  0.3589
 9553TIP3    H250075   5.846   0.577  15.502  0.0453 -1.3334 -0.5709
 9554TIP3   OH250076   0.401   6.727   0.251 -0.2990  0.2479 -0.4506
 9554TIP3    H150077   0.436   6.761   0.333  0.6043 -1.1838 -0.1966
 9554TIP3    H250078   0.342   6.656   0.277 -1.5658  1.0788 -0.9812
 9555TIP3   OH250079   3.005   1.946  15.755 -0.6421  0.2068  0.0191
 9555TIP3    H150080   3.046   1.898  15.827  2.1005  0.8292 -0.9711
 9555TIP3    H250081   2.954   1.881  15.708  3.5641 -2.2299 -1.7619
 9556TIP3   OH250082   1.844   2.010   1.427  0.0157  0.4700  0.3903
 9556TIP3    H150083   1.881   2.023   1.339 -1.2608  0.0680 -0.2221
 9556TIP3    H250084   1.758   2.051   1.424 -0.3869 -0.2729  1.1934
 9557TIP3   OH250085   1.556   0.714   3.836  0.2607 -0.0088  0.4314
 9557TIP3    H150086   1.644   0.686   3.861  0.5535  0.1287 -0.4132
 9557TIP3    H250087   1.567   0.757   3.752 -0.6481 -0.1729  0.2102
 9558TIP3   OH250088   5.800   0.816  13.227  0.4487 -0.7733 -0.2452
 9558TIP3    H150089   5.793   0.911  13.239  0.2664 -0.6275 -1.4413
 9558TIP3    H250090   5.817   0.782  13.315 -0.0300  0.3130  0.2799
 9559TIP3   OH250091   4.400   3.423  14.215 -0.0569  0.5877  0.4015
 9559TIP3    H150092   4.346   3.354  14.252  0.7002 -0.0581  0.3411
 9559TIP3    H250093   4.453   3.379  14.148 -0.1484  1.3878 -0.2169
 9560TIP3   OH250094   6.124   4.502  16.506  0.4128 -0.3487 -0.6524
 9560TIP3    H150095   6.055   4.568  16.518  0.1385 -0.5391 -1.1705
 9560TIP3    H250096   6.088   4.423  16.546  1.3585  0.1728  1.3866
 9561TIP3   OH250097   5.743   5.796  12.789 -0.2554  0.0425  0.1700
 9561TIP3    H150098   5.650   5.782  12.807  0.0389 -0.9574  0.9046
 9561TIP3    H250099   5.789   5.743  12.852  0.8218 -0.7365 -1.2154
 9562TIP3   OH250100   2.360   0.149   2.942  0.0914  0.4994 -0.4667
 9562TIP3    H150101   2.270   0.138   2.913  0.1878 -0.7172 -0.3972
 9562TIP3    H250102   2.405   0.187   2.867 -0.6086  1.8258 -0.2461
 9563TIP3   OH250103   1.923   4.616   2.952  0.1110  0.4869 -0.1006
 9563TIP3    H150104   1.959   4.632   3.039  1.0548  0.1913 -0.4308
 9563TIP3    H250105   1.828   4.621   2.965  0.1763 -0.8513  1.2208
 9564TIP3   OH250106   4.758   4.689  15.510  0.2898 -0.2705 -0.2863
 9564TIP3    H150107   4.691   4.749  15.477  2.0181  1.7546 -0.3447
 9564TIP3    H250108   4.750   4.610  15.456 -2.3740 -0.3425  0.1096
 9565TIP3   OH250109   5.600   3.581   3.526 -0.2686  0.0123 -0.0559
 9565TIP3    H150110   5.525   3.625   3.486 -0.4562  0.4589  0.7676
 9565TIP3    H250111   5.676   3.615   3.480 -0.5503 -0.2921 -0.7593
 9566TIP3   OH250112   5.980   2.522   1.487 -0.2149  0.0676 -0.5125
 9566TIP3    H150113   6.004   2.615   1.490 -0.4084  0.2310 -2.5309
 9566TIP3    H250114   5.983   2.494   1.578 -1.0885  2.2892  0.2808
 9567TIP3   OH250115   6.072   2.026   3.480 -0.0041  0.3757  0.0033
 9567TIP3    H150116   6.147   2.004   3.534 -0.0328 -2.2199 -0.8982
 9567TIP3    H250117   5.997   2.018   3.538  0.3069  2.9575  0.9012
 9568TIP3   OH250118   3.403   2.603   2.629 -0.6558 -0.0573 -0.0265
 9568TIP3    H150119   3.357   2.678   2.592  0.2707  0.0796 -0.9459
 9568TIP3    H250120   3.440   2.558   2.554 -0.3812 -0.8912  0.5955
 9569TIP3   OH250121   6.234   5.731   0.949  0.4216  0.2630  0.2129
 9569TIP3    H150122   6.249   5.644   0.987 -1.8911 -0.6999 -0.9193
 9569TIP3    H250123   6.268   5.724   0.859  2.4806  1.3763  0.8279
 9570TIP3   OH250124   0.777   5.503  15.785  0.1285 -0.2898  0.4520
 9570TIP3    H150125   0.792   5.528  15.694 -1.5752 -0.8344 -0.0073
 9570TIP3    H250126   0.845   5.437  15.803  0.6113 -0.0219 -0.3477
 9571TIP3   OH250127   4.111   0.813   4.969 -0.1124  0.1248 -1.1434
 9571TIP3    H150128   4.141   0.788   4.882  0.0302 -0.0962 -1.0307
 9571TIP3    H250129   4.190   0.843   5.014 -0.2373  0.5445 -1.1945
 9572TIP3   OH250130   2.237   4.513  15.945  0.0293 -0.0280 -0.4171
 9572TIP3    H150131   2.215   4.485  16.034  0.3295 -1.1751 -0.6783
 9572TIP3    H250132   2.303   4.581  15.957 -1.7712  1.6825  0.2869
 9573TIP3   OH250133   4.672   0.691  16.968 -0.1504  0.2686  0.6678
 9573TIP3    H150134   4.695   0.629  16.898 -1.3493 -1.2701  1.5601
 9573TIP3    H250135   4.703   0.776  16.936  0.2119 -0.5394 -1.2906
 9574TIP3   OH250136   5.407   0.853   4.050 -0.4524  0.6984  0.4703
 9574TIP3    H150137   5.380   0.885   3.964 -0.1245  0.4337  0.2663
 9574TIP3    H250138   5.488   0.804   4.033 -0.5156  0.4408  0.8925
 9575TIP3   OH250139   1.570   5.044   0.919  0.6752  0.3603 -0.2283
 9575TIP3    H150140   1.522   4.983   0.864  0.1299  0.7350 -0.1735
 9575TIP3    H250141   1.647   5.069   0.866  0.3301  0.4627 -0.6873
 9576TIP3   OH250142   1.470   6.020  16.320  0.5506 -0.2971  0.5026
 9576TIP3    H150143   1.516   6.094  16.279 -0.2121  0.7014  1.3798
 9576TIP3    H250144   1.540   5.966  16.355  1.1201  0.9594  1.4065
 9577TIP3   OH250145   1.759   0.099  13.170  0.5153 -0.0778  0.2695
 9577TIP3    H150146   1.721   0.168  13.117 -0.8849 -1.1236 -0.1636
 9577TIP3    H250147   1.796   0.144  13.246  2.1851  1.3955 -1.3398
 9578TIP3   OH250148   2.916   5.990  14.198  0.1917 -0.3992  0.3886
 9578TIP3    H150149   2.827   6.011  14.170  0.4815 -0.8453 -0.9331
 9578TIP3    H250150   2.950   5.932  14.130  2.2605  1.4907 -0.2972
 9579TIP3   OH250151   3.756   4.257  13.943 -0.0261  0.4324 -0.0843
 9579TIP3    H150152   3.721   4.172  13.917 -0.5377 -0.3870  2.9460
 9579TIP3    H250153   3.682   4.304  13.980  1.2847 -0.3993  4.1957
 9580TIP3   OH250154   1.912   3.192  16.227 -0.0676 -0.6438  0.5020
 9580TIP3    H150155   1.864   3.124  16.180  0.1163 -1.8718  2.0064
 9580TIP3    H250156   1.944   3.251  16.159 -1.1932 -1.4398 -0.7506
 9581TIP3   OH250157   3.571   6.418  16.318 -0.1575  0.0273 -0.5953
 9581TIP3    H150158   3.521   6.336  16.317  1.8320 -1.2666 -2.0541
 9581TIP3    H250159   3.533   6.470  16.247 -2.0430  0.8703  0.9210
 9582TIP3   OH250160   6.238   5.890  15.174 -0.1397 -0.5183 -0.2866
 9582TIP3    H150161   6.327   5.917  15.197 -0.6071  0.5772  0.2637
 9582TIP3    H250162   6.200   5.858  15.256 -0.6175  0.0404 -0.2887
 9583TIP3   OH250163   4.083   1.611  15.616  0.1265 -0.5939  0.1492
 9583TIP3    H150164   4.157   1.592  15.674 -0.1003 -0.8073  0.3724
 9583TIP3    H250165   4.123   1.649  15.538  0.2891  1.8523  1.3338
 9584TIP3   OH250166   6.318   4.148  11.191  0.2243  0.0003 -0.6148
 9584TIP3    H150167   6.363   4.208  11.251  0.4315 -1.0653  0.3441
 9584TIP3    H250168   6.283   4.204  11.122 -0.6364  1.3714  0.8668
 9585TIP3   OH250169   1.718   4.610  15.310  0.0557 -0.4630  0.4016
 9585TIP3    H150170   1.704   4.631  15.403 -0.0506 -0.1023  0.3033
 9585TIP3    H250171   1.688   4.520  15.301 -1.2036 -0.0598  0.4202
 9586TIP3   OH250172   5.931   1.847  12.884 -0.4324  0.5831  0.4797
 9586TIP3    H150173   5.968   1.758  12.888  1.3814  1.3235  1.5871
 9586TIP3    H250174   5.947   1.875  12.794  1.0628  0.5679  0.7045
 9587TIP3   OH250175   2.175   4.422   5.930 -0.2523  0.3371  0.0733
 9587TIP3    H150176   2.252   4.459   5.887 -0.9458  1.1018 -0.5488
 9587TIP3    H250177   2.165   4.472   6.010  0.1290 -0.0396  0.3612
 9588TIP3   OH250178   3.381   5.524   3.342  0.1890  0.2543 -0.0358
 9588TIP3    H150179   3.323   5.594   3.373 -1.8250 -1.3463  0.0230
 9588TIP3    H250180   3.378   5.458   3.411 -2.5581 -2.3701 -2.3629
 9589TIP3   OH250181   4.508   3.050  14.496  0.6478 -0.1934  0.4183
 9589TIP3    H150182   4.535   3.094  14.416 -0.2169 -0.2329  0.0959
 9589TIP3    H250183   4.444   2.985  14.467 -1.1259  1.0627  1.3350
 9590TIP3   OH250184   4.306   3.948  12.602 -0.2506  0.4989 -0.4237
 9590TIP3    H150185   4.252   3.874  12.575 -0.1580 -0.2197  1.2201
 9590TIP3    H250186   4.393   3.927  12.568 -0.1432 -0.3544  0.3295
 9591TIP3   OH250187   6.545   3.648   1.628  0.2043  0.9630  0.0141
 9591TIP3    H150188   6.553   3.558   1.661  0.2698  0.6802 -0.7498
 9591TIP3    H250189   6.618   3.657   1.567 -0.7158  1.0064 -1.0912
 9592TIP3   OH250190   6.462   0.260  13.865  0.0513 -0.3033  0.3559
 9592TIP3    H150191   6.494   0.281  13.777 -0.4143 -0.2844  0.1887
 9592TIP3    H250192   6.523   0.305  13.924  1.2723 -1.5421  0.0884
 9593TIP3   OH250193   0.926   2.119  16.372  0.8044 -0.1984  0.1877
 9593TIP3    H150194   0.983   2.105  16.296  1.2749  1.0840  0.2784
 9593TIP3    H250195   0.851   2.168  16.337 -0.1442 -1.6057  0.1286
 9594TIP3   OH250196   4.983   0.003  13.726 -0.2950  0.0877 -0.3308
 9594TIP3    H150197   4.948  -0.076  13.767 -0.4482  0.9241  1.2318
 9594TIP3    H250198   5.068  -0.024  13.690 -0.5321 -0.8719 -0.2045
 9595TIP3   OH250199   5.158   5.041   1.404 -0.5333 -0.1780  0.1448
 9595TIP3    H150200   5.114   5.061   1.322  0.2181  0.7856 -0.0337
 9595TIP3    H250201   5.117   4.960   1.434 -0.6483 -0.6815 -1.3078
 9596TIP3   OH250202   2.139   6.278  13.715  0.0447  0.2844 -0.6561
 9596TIP3    H150203   2.074   6.337  13.675  0.9356  1.5726 -0.2808
 9596TIP3    H250204   2.172   6.327  13.790 -0.0457 -1.2190  0.3971
 9597TIP3   OH250205   1.792   2.575   0.288  0.5054  0.3557  0.9206
 9597TIP3    H150206   1.836   2.603   0.369  1.1708 -0.2668  0.7823
 9597TIP3    H250207   1.708   2.539   0.318  2.2855 -3.5861  1.8602
 9598TIP3   OH250208   5.511   4.245   3.654 -0.2628 -0.3562  0.2606
 9598TIP3    H150209   5.475   4.182   3.592 -0.0240  0.0934 -0.3439
 9598TIP3    H250210   5.437   4.267   3.711  0.0295 -2.3823  1.5374
 9599TIP3   OH250211   1.976   4.249  15.439  0.2330  0.5531 -0.0659
 9599TIP3    H150212   2.046   4.218  15.496 -1.0286 -0.9251  0.7443
 9599TIP3    H250213   1.977   4.188  15.365  1.0830  1.7459 -1.0745
 9600TIP3   OH250214   0.310   4.812  11.702  0.2117 -0.1860  0.0275
 9600TIP3    H150215   0.389   4.862  11.679  1.4124 -1.1547  1.7960
 9600TIP3    H250216   0.324   4.726  11.662 -1.4090  0.4701 -2.1924
 9601TIP3   OH250217   6.351   1.520  14.952  0.1470 -0.3403  0.2593
 9601TIP3    H150218   6.342   1.469  14.871 -1.0836  1.1334 -0.5775
 9601TIP3    H250219   6.439   1.555  14.948  0.7897 -1.8304  0.5397
 9602TIP3   OH250220   1.566   3.163  12.997 -0.7438  0.1647 -0.8479
 9602TIP3    H150221   1.585   3.149  12.904  0.4223  0.1712 -0.6321
 9602TIP3    H250222   1.644   3.132  13.042 -0.5837  1.6998  0.0156
 9603TIP3   OH250223   0.175   3.752   1.353  0.0658 -0.2422  0.4088
 9603TIP3    H150224   0.146   3.785   1.268 -0.4435 -0.8819  0.3248
 9603TIP3    H250225   0.174   3.829   1.410 -1.3196 -0.1417  0.2744
 9604TIP3   OH250226   2.188   2.771   2.193  0.6508 -0.3095  0.4179
 9604TIP3    H150227   2.226   2.815   2.118  0.3741  0.5264  0.7549
 9604TIP3    H250228   2.094   2.770   2.176  0.6340 -0.5925  0.5098
 9605TIP3   OH250229   4.047   4.087  14.323  0.0674  0.2587 -0.4187
 9605TIP3    H150230   4.086   4.161  14.369  0.2528  0.8319 -1.4577
 9605TIP3    H250231   4.021   4.026  14.392 -1.4817  1.9525  0.5579
 9606TIP3   OH250232   2.114   0.457   4.865 -0.1041  0.0303 -0.1188
 9606TIP3    H150233   2.023   0.486   4.859 -0.5189 -1.3927 -1.6499
 9606TIP3    H250234   2.127   0.403   4.787  1.8285 -0.4481  0.4680
 9607TIP3   OH250235   5.092   4.116   6.289 -0.2881 -0.2439  0.1716
 9607TIP3    H150236   5.024   4.083   6.230  1.6457 -1.0119 -1.7485
 9607TIP3    H250237   5.067   4.207   6.306 -1.4679 -0.3388 -0.9509
 9608TIP3   OH250238   5.502   4.744  15.462  0.0641  0.2643  0.1281
 9608TIP3    H150239   5.504   4.813  15.527  1.9522 -1.8471  2.5291
 9608TIP3    H250240   5.413   4.710  15.466  0.0096  0.5028  1.2691
 9609TIP3   OH250241   0.807   2.508   0.377  0.1417 -0.3254  0.3392
 9609TIP3    H150242   0.852   2.538   0.456 -1.2991  0.0970  1.0264
 9609TIP3    H250243   0.851   2.426   0.354  2.7841  1.1561 -0.3698
 9610TIP3   OH250244   0.442   6.130  12.596  0.1386 -1.0540 -0.3230
 9610TIP3    H150245   0.462   6.135  12.502  0.8840 -0.1205 -0.1326
 9610TIP3    H250246   0.348   6.112  12.599 -0.8181  2.7410 -1.3403
 9611TIP3   OH250247   6.614   5.504   5.180 -0.1835  0.3939  0.3758
 9611TIP3    H150248   6.703   5.498   5.215  0.0759  0.7948 -0.2012
 9611TIP3    H250249   6.592   5.413   5.157 -0.1172  0.2190  0.9811
 9612TIP3   OH250250   4.912   6.241   6.130 -0.2418  0.3160 -0.2708
 9612TIP3    H150251   4.974   6.303   6.168 -0.3587  0.1803  0.1517
 9612TIP3    H250252   4.956   6.156   6.136 -0.5437  0.1858  0.2245
 9613TIP3   OH250253   0.140   3.425  10.424  0.0370  0.2175  0.1844
 9613TIP3    H150254   0.220   3.396  10.468 -0.2723 -2.0067 -0.6033
 9613TIP3    H250255   0.137   3.375  10.343 -2.3742 -0.1263  0.4014
 9614TIP3   OH250256   5.109   4.769  10.251  0.0174 -0.0272  0.2932
 9614TIP3    H150257   5.171   4.828  10.210 -0.8410  0.2526 -0.6474
 9614TIP3    H250258   5.147   4.750  10.337  0.6312  1.3524  0.3517
 9615TIP3   OH250259   1.933   0.378   4.395 -0.9497 -0.1302 -0.0854
 9615TIP3    H150260   1.908   0.457   4.441 -1.1388  0.9309 -1.9025
 9615TIP3    H250261   1.850   0.342   4.361 -0.5374  2.0955 -4.0834
 9616TIP3   OH250262   3.560   2.276   1.229 -0.1345 -0.0567 -0.3237
 9616TIP3    H150263   3.650   2.299   1.209 -0.0502 -0.7342 -0.7304
 9616TIP3    H250264   3.558   2.180   1.227 -0.8245 -0.0513 -0.1627
 9617TIP3   OH250265   2.002   4.141   3.553 -0.0122  0.5809 -0.1809
 9617TIP3    H150266   1.907   4.155   3.544 -0.0661  0.1877 -0.2318
 9617TIP3    H250267   2.016   4.137   3.648  0.0215  1.0890 -0.1623
 9618TIP3   OH250268   6.556   0.239   6.430  0.1509 -0.2016  0.1320
 9618TIP3    H150269   6.631   0.294   6.409 -0.6668  0.7655 -0.3647
 9618TIP3    H250270   6.481   0.286   6.394 -1.0536  0.2326  2.9332
 9619TIP3   OH250271   0.278   5.061   5.945 -0.0023  0.6708 -0.1570
 9619TIP3    H150272   0.265   4.982   5.892  1.2779  0.0697  0.3583
 9619TIP3    H250273   0.367   5.051   5.981  0.8647  3.1451 -1.3808
 9620TIP3   OH250274   4.222   3.227   3.283 -0.3231 -0.4712  0.4385
 9620TIP3    H150275   4.171   3.264   3.355 -3.0279 -0.2374 -1.4751
 9620TIP3    H250276   4.252   3.303   3.233  1.8483 -0.6142  1.4146
 9621TIP3   OH250277   4.048   3.132  16.020  0.2255 -0.6383  0.5208
 9621TIP3    H150278   4.028   3.041  15.997 -1.2606  0.1926 -1.8682
 9621TIP3    H250279   4.097   3.166  15.945  0.6860  0.5734  1.3276
 9622TIP3   OH250280   6.452   0.078  14.780 -0.3527 -0.7723  0.2830
 9622TIP3    H150281   6.400   0.016  14.728 -0.0320 -0.4255 -0.4600
 9622TIP3    H250282   6.387   0.125  14.832 -1.0590  0.9921 -2.0195
 9623TIP3   OH250283   0.464   3.973  11.040 -0.3971  0.6309 -0.0382
 9623TIP3    H150284   0.468   3.878  11.039  0.5561  0.6758 -0.8827
 9623TIP3    H250285   0.422   3.997  10.958 -0.7722  0.9410  0.2375
 9624TIP3   OH250286   6.721   4.971   0.234 -0.3077 -0.3800  0.5868
 9624TIP3    H150287   6.649   5.006   0.286  0.3224 -0.0654  1.2760
 9624TIP3    H250288   6.694   4.983   0.143 -1.1134 -0.2624  0.8350
 9625TIP3   OH250289   3.767   4.175  13.258  0.2052  0.1689 -0.0299
 9625TIP3    H150290   3.702   4.106  13.241  0.1880  0.1198  0.2327
 9625TIP3    H250291   3.753   4.238  13.187 -0.7577  0.6146  0.5291
 9626TIP3   OH250292   2.562   2.602   4.083 -0.0012 -0.2803 -0.6741
 9626TIP3    H150293   2.489   2.611   4.144  0.2338  0.1458 -0.4461
 9626TIP3    H250294   2.629   2.554   4.133 -0.3836 -1.2938 -1.1184
 9627TIP3   OH250295   0.324   3.938  13.979  0.5333  0.1886 -0.5445
 9627TIP3    H150296   0.245   3.979  14.012  1.6706  1.4263  0.7984
 9627TIP3    H250297   0.325   3.958  13.885 -0.4291  0.6650 -0.4649
 9628TIP3   OH250298   0.135   0.661   0.434  0.2356 -0.1750  0.1044
 9628TIP3    H150299   0.188   0.655   0.355 -0.5063  3.6218 -0.8958
 9628TIP3    H250300   0.185   0.717   0.493 -0.9858  0.4506  0.6035
 9629TIP3   OH250301   4.068   6.429  16.479  0.2859 -0.3364 -0.7046
 9629TIP3    H150302   4.145   6.486  16.475 -0.4743  0.7803 -0.0067
 9629TIP3    H250303   4.041   6.432  16.570 -1.6182  0.7345 -1.2528
 9630TIP3   OH250304   6.045   5.520  16.531 -0.5783 -0.6317 -0.2577
 9630TIP3    H150305   6.051   5.464  16.453  0.2673 -0.8881 -0.0264
 9630TIP3    H250306   5.952   5.538  16.541 -0.5384  1.8428 -3.0322
 9631TIP3   OH250307   2.140   4.225  15.067  0.4409 -0.0566  0.7506
 9631TIP3    H150308   2.051   4.228  15.033  0.1340 -1.7533  1.2845
 9631TIP3    H250309   2.178   4.147  15.027  1.4237  0.2160  1.1245
 9632TIP3   OH250310   3.482   1.366   5.455 -0.2254 -0.4413  0.1583
 9632TIP3    H150311   3.499   1.438   5.516 -1.7481 -0.8167  1.0968
 9632TIP3    H250312   3.558   1.309   5.464  0.1922  0.1892  0.7152
 9633TIP3   OH250313   5.722   3.448  12.037 -0.0238  0.2703 -0.4671
 9633TIP3    H150314   5.752   3.379  11.978 -1.5922  0.8132 -1.9842
 9633TIP3    H250315   5.789   3.516  12.030  0.8371 -0.5130 -0.0238
 9634TIP3   OH250316   5.784   1.491  11.925 -0.2567 -0.2144  0.0796
 9634TIP3    H150317   5.876   1.488  11.952 -1.0806 -0.8748  3.2383
 9634TIP3    H250318   5.779   1.433  11.850  1.7011 -1.0876  0.5623
 9635TIP3   OH250319   5.814   3.132  16.686  0.0441  0.0054  0.0097
 9635TIP3    H150320   5.880   3.090  16.742 -1.2589  1.5176  2.9154
 9635TIP3    H250321   5.842   3.223  16.680  0.3273 -0.1801 -2.2147
 9636TIP3   OH250322   2.280   1.549  16.060  0.1781 -0.5530  0.2131
 9636TIP3    H150323   2.279   1.489  16.134 -0.2861  0.9162  1.4646
 9636TIP3    H250324   2.266   1.636  16.099  1.2158  0.4369 -1.4552
 9637TIP3   OH250325   0.547   1.168   2.413  0.3241 -0.2795  0.0251
 9637TIP3    H150326   0.614   1.221   2.370  1.4310 -1.1966  0.5479
 9637TIP3    H250327   0.571   1.078   2.392 -1.4004 -0.6159 -0.6851
 9638TIP3   OH250328   5.531   2.983  16.618 -0.3583 -0.0098 -0.0375
 9638TIP3    H150329   5.490   2.998  16.533 -1.6690  1.9505  0.8511
 9638TIP3    H250330   5.563   3.069  16.645  2.5902 -1.0835  0.2610
 9639TIP3   OH250331   2.111   5.178   5.509  0.2125  0.3904 -0.2571
 9639TIP3    H150332   2.175   5.248   5.499  1.1574 -0.4814 -0.4897
 9639TIP3    H250333   2.140   5.130   5.587  0.3105 -0.4798 -0.8208
 9640TIP3   OH250334   0.720   1.589  11.140 -0.1111 -0.0827 -0.1435
 9640TIP3    H150335   0.665   1.561  11.066 -0.8874 -0.1018  0.4325
 9640TIP3    H250336   0.690   1.537  11.214 -0.8993  1.5096  0.7210
 9641TIP3   OH250337   5.767   4.241  14.043 -0.0841 -0.6464 -0.1723
 9641TIP3    H150338   5.860   4.253  14.061  0.1725 -0.7222 -1.3563
 9641TIP3    H250339   5.759   4.254  13.948 -1.6726  1.7595  0.1993
 9642TIP3   OH250340   3.126   6.547   3.304 -0.0918 -0.2668 -0.4537
 9642TIP3    H150341   3.213   6.574   3.275 -0.2088  0.2195 -0.3632
 9642TIP3    H250342   3.141   6.465   3.352  0.3801  0.0594 -0.0244
 9643TIP3   OH250343   4.415   2.425   1.995 -0.3485  1.0389 -0.0597
 9643TIP3    H150344   4.464   2.496   2.036 -0.3361  1.3670 -0.6320
 9643TIP3    H250345   4.412   2.448   1.902  0.9354 -0.4662 -0.5114
 9644TIP3   OH250346   1.355   2.154   3.403 -0.2703  0.1484  0.3828
 9644TIP3    H150347   1.288   2.112   3.350  0.7353 -0.8786 -0.1214
 9644TIP3    H250348   1.354   2.106   3.486  0.2347 -0.2688  0.1538
 9645TIP3   OH250349   4.048   5.668   5.930 -0.0425 -0.8915 -0.2935
 9645TIP3    H150350   4.074   5.685   5.839 -0.3715 -1.5371 -0.5120
 9645TIP3    H250351   4.123   5.697   5.982 -0.2894  0.5526 -0.6855
 9646TIP3   OH250352   4.043   4.633   1.510 -0.1007  0.1214 -0.0885
 9646TIP3    H150353   4.137   4.635   1.525  0.0484  0.0206 -0.9605
 9646TIP3    H250354   4.004   4.643   1.597  0.7116  0.0872  0.2822
 9647TIP3   OH250355   3.100   4.260  15.791 -0.1766 -0.9055 -0.4921
 9647TIP3    H150356   3.005   4.267  15.794 -0.1458 -0.9261  0.8890
 9647TIP3    H250357   3.119   4.169  15.813  0.2188 -0.4104  1.3997
 9648TIP3   OH250358   6.680   2.144  15.755 -0.5204  0.4120 -0.0546
 9648TIP3    H150359   6.666   2.238  15.764 -0.8563  0.2982  0.6640
 9648TIP3    H250360   6.768   2.129  15.790 -0.9262  0.2953  0.9240
 9649TIP3   OH250361   4.997   5.318   1.391 -0.1028  0.2180  0.1777
 9649TIP3    H150362   5.026   5.285   1.477 -0.7179  0.3776  0.4501
 9649TIP3    H250363   4.956   5.402   1.410 -1.8492 -0.5379 -0.0183
 9650TIP3   OH250364   6.258   2.059  11.509  0.4101 -0.3324  0.4258
 9650TIP3    H150365   6.267   1.979  11.458  0.9105 -0.5351  0.8164
 9650TIP3    H250366   6.255   2.029  11.600 -0.1961  0.0396  0.5317
 9651TIP3   OH250367   4.077   0.357   2.369 -0.3010  0.4539 -0.2493
 9651TIP3    H150368   4.153   0.315   2.409  0.4691  3.2454  1.5113
 9651TIP3    H250369   4.109   0.390   2.285 -0.8607 -2.0831 -1.5570
 9652TIP3   OH250370   2.571   3.611  12.682  0.1766  0.0724  0.5149
 9652TIP3    H150371   2.551   3.573  12.767  2.5674  0.1755  1.2066
 9652TIP3    H250372   2.569   3.706  12.697  1.1234  0.0865  0.6289
 9653TIP3   OH250373   5.693   3.074   5.555  0.1927  0.2363 -1.2269
 9653TIP3    H150374   5.771   3.026   5.582 -0.1016 -1.3051 -2.8689
 9653TIP3    H250375   5.647   3.013   5.497 -3.2207  0.3264  1.0730
 9654TIP3   OH250376   5.553   6.219  11.577 -0.0691  0.3477  0.6438
 9654TIP3    H150377   5.550   6.133  11.619 -0.6972  0.3923  0.6917
 9654TIP3    H250378   5.591   6.276  11.643  0.4758  0.0890  0.5666
 9655TIP3   OH250379   0.252   4.882  14.945  0.4244  0.4316  0.3848
 9655TIP3    H150380   0.197   4.887  14.867  0.6177 -1.1270  0.1064
 9655TIP3    H250381   0.269   4.973  14.969 -0.1208  0.9373 -1.0426
 9656TIP3   OH250382   1.923   6.631  15.224  0.4943  0.1480  0.9944
 9656TIP3    H150383   1.896   6.705  15.278  1.0695  0.7616  0.4490
 9656TIP3    H250384   1.841   6.588  15.200  0.1932  0.2304  1.8292
 9657TIP3   OH250385   5.716   4.294  13.774  0.2965  0.0125  0.3573
 9657TIP3    H150386   5.633   4.341  13.765 -0.6578 -0.9991  2.9681
 9657TIP3    H250387   5.783   4.360  13.753 -1.0441  1.9081  1.6716
 9658TIP3   OH250388   5.285   4.798  16.064  0.1398 -0.2348 -0.2943
 9658TIP3    H150389   5.226   4.844  16.124 -1.0236 -0.9334 -0.8587
 9658TIP3    H250390   5.292   4.710  16.101  0.3286 -0.3344 -0.5676
 9659TIP3   OH250391   1.625   3.564   0.450 -0.2407 -0.5263 -0.3832
 9659TIP3    H150392   1.680   3.569   0.528 -1.2737 -1.7464  0.4620
 9659TIP3    H250393   1.682   3.528   0.383  0.6569  0.5074 -0.2029
 9660TIP3   OH250394   2.499   4.027   1.526 -0.7563  0.3664 -0.5777
 9660TIP3    H150395   2.481   4.120   1.539 -0.6292  0.2033  0.8929
 9660TIP3    H250396   2.495   4.015   1.431 -0.0589  2.0062 -0.8435
 9661TIP3   OH250397   6.249   1.214  16.491 -0.7872 -0.0025  0.1249
 9661TIP3    H150398   6.280   1.223  16.401  0.6157 -0.0630  0.5647
 9661TIP3    H250399   6.171   1.268  16.496 -0.5156  0.5139 -0.9621
 9662TIP3   OH250400   3.408   0.731  13.350  0.0647  0.5896  0.0011
 9662TIP3    H150401   3.377   0.725  13.260 -0.4422  1.9644  0.0569
 9662TIP3    H250402   3.373   0.654  13.393  3.0001 -1.9224 -1.6903
 9663TIP3   OH250403   2.297   5.598   5.568 -0.6900  0.5440  0.9288
 9663TIP3    H150404   2.390   5.620   5.577 -1.1644  2.5086  1.4571
 9663TIP3    H250405   2.281   5.534   5.637  0.0791  0.8403  1.3981
 9664TIP3   OH250406   0.706   3.204   5.228  0.1028 -0.1867  0.1828
 9664TIP3    H150407   0.792   3.165   5.240  0.3895  0.2858 -0.3256
 9664TIP3    H250408   0.691   3.255   5.308  1.6371  2.2487 -0.9895
 9665TIP3   OH250409   0.864   6.276  13.913  0.0453 -0.8133 -0.6157
 9665TIP3    H150410   0.952   6.269  13.877  0.1916 -0.5862 -0.3027
 9665TIP3    H250411   0.875   6.258  14.006 -0.1733 -0.3541 -0.4987
 9666TIP3   OH250412   6.641   0.910   0.029 -0.0061 -0.0117 -0.1622
 9666TIP3    H150413   6.699   0.836   0.013  0.5861  0.2396  0.7731
 9666TIP3    H250414   6.614   0.901   0.120  0.4068  1.1336  0.0951
 9667TIP3   OH250415   0.955   2.919  16.602  0.0972 -0.7545 -0.2346
 9667TIP3    H150416   1.005   2.864  16.541  0.6205 -0.3406 -0.1831
 9667TIP3    H250417   1.009   2.923  16.681 -1.0480 -2.1632  0.6816
 9668TIP3   OH250418   4.167   0.322  13.083 -0.2886  0.3272 -0.3017
 9668TIP3    H150419   4.210   0.331  13.168  0.5975  0.8385 -0.7905
 9668TIP3    H250420   4.087   0.373  13.091 -0.8950 -0.7453  0.6679
 9669TIP3   OH250421   0.096   3.218  13.695  0.5592  0.0078  0.1741
 9669TIP3    H150422   0.180   3.173  13.681  1.5085  1.8123 -0.2040
 9669TIP3    H250423   0.093   3.235  13.789  0.1727 -0.8524  0.3262
 9670TIP3   OH250424   0.800   3.623   0.306  0.6752  0.1508 -0.2424
 9670TIP3    H150425   0.799   3.608   0.401 -0.0068  1.2673 -0.0567
 9670TIP3    H250426   0.890   3.603   0.280  0.3339 -2.3623  0.2425
 9671TIP3   OH250427   1.231   1.231  15.999 -1.0705 -0.3419 -0.2185
 9671TIP3    H150428   1.280   1.239  15.917 -1.3734 -1.5633 -0.5507
 9671TIP3    H250429   1.256   1.144  16.033 -1.6556 -0.2392  0.5071
 9672TIP3   OH250430   0.764   6.166  14.169 -0.4955  0.0140 -0.5764
 9672TIP3    H150431   0.708   6.240  14.145 -0.6939  0.0434 -0.0410
 9672TIP3    H250432   0.810   6.196  14.247 -0.4146 -0.3466 -0.4844
 9673TIP3   OH250433   4.995   0.715  15.926  0.2332  0.3459  0.2548
 9673TIP3    H150434   4.952   0.777  15.985 -0.2134  0.8491 -0.5870
 9673TIP3    H250435   4.973   0.746  15.838  0.6580 -0.5541 -0.1804
 9674TIP3   OH250436   5.073   5.125   5.006 -0.2021  0.1180 -0.2842
 9674TIP3    H150437   5.063   5.208   4.960 -1.8155 -0.7672 -1.6140
 9674TIP3    H250438   4.992   5.115   5.055  0.1891 -0.4626  0.2570
 9675TIP3   OH250439   4.932   1.111   4.583 -0.6296  0.1206  0.1885
 9675TIP3    H150440   4.918   1.182   4.520 -4.5583 -0.5875  0.0425
 9675TIP3    H250441   4.965   1.039   4.529  0.4049  0.8608 -0.2071
 9676TIP3   OH250442   0.190   0.855  11.165 -0.4242  0.2435 -0.1114
 9676TIP3    H150443   0.164   0.845  11.073 -0.7873  2.1679 -0.2727
 9676TIP3    H250444   0.222   0.769  11.191 -1.1343 -0.5701 -1.7841
 9677TIP3   OH250445   3.003   6.507  16.519 -0.2044  0.2583  0.2171
 9677TIP3    H150446   3.000   6.473  16.608 -0.7123  0.3509  0.2410
 9677TIP3    H250447   2.980   6.599  16.528  0.4993  0.4529  0.0731
 9678TIP3   OH250448   2.843   5.921  12.534 -0.3155  0.6012 -0.4173
 9678TIP3    H150449   2.899   5.976  12.589 -0.7429 -0.8043  1.5422
 9678TIP3    H250450   2.754   5.953  12.551 -0.3421  1.1809 -1.5584
 9679TIP3   OH250451   6.742   0.727   0.743 -0.7551 -0.2406  0.2611
 9679TIP3    H150452   6.835   0.717   0.720 -1.0470 -2.4679 -0.1763
 9679TIP3    H250453   6.739   0.806   0.798  1.2609  0.3218 -0.3535
 9680TIP3   OH250454   1.838   6.084   5.594 -0.4241  0.4971 -0.0553
 9680TIP3    H150455   1.872   6.170   5.572  0.7511  0.4438  1.4070
 9680TIP3    H250456   1.819   6.089   5.688  0.2573 -1.0100  0.2015
 9681TIP3   OH250457   5.873   2.824   2.464 -0.0891 -0.4035 -0.0477
 9681TIP3    H150458   5.919   2.805   2.382 -1.7776 -0.0280 -1.1367
 9681TIP3    H250459   5.915   2.767   2.528  3.3777  1.5033 -0.4014
 9682TIP3   OH250460   0.686   5.940  16.137  0.3660  0.5652 -0.0241
 9682TIP3    H150461   0.610   5.921  16.192 -0.3088  0.4105 -0.9838
 9682TIP3    H250462   0.669   6.028  16.103  1.1580  0.9790  0.6210
 9683TIP3   OH250463   3.586   5.614  11.469  0.6453 -0.6394 -0.0300
 9683TIP3    H150464   3.582   5.672  11.545  1.4890  0.0308 -0.4743
 9683TIP3    H250465   3.674   5.576  11.473  1.7026  1.3542 -2.0218
 9684TIP3   OH250466   4.903   2.739  12.873 -0.2794 -0.0848 -0.5161
 9684TIP3    H150467   4.821   2.700  12.844 -2.0055  1.2065  2.1965
 9684TIP3    H250468   4.915   2.815  12.817 -1.5028  0.2716 -0.3216
 9685TIP3   OH250469   2.233   0.257  16.335 -0.4626 -0.1062 -0.5951
 9685TIP3    H150470   2.278   0.182  16.375 -0.1650  0.3847  0.0084
 9685TIP3    H250471   2.286   0.333  16.361 -2.9554  0.8367  2.2860
 9686TIP3   OH250472   0.761   4.692   6.064  0.9426 -0.6230 -0.3014
 9686TIP3    H150473   0.849   4.658   6.084  0.8880 -1.0144 -0.7023
 9686TIP3    H250474   0.706   4.655   6.133  0.9927 -0.8577 -0.3835
 9687TIP3   OH250475   5.658   2.287   0.689 -0.1604 -0.4816  0.5103
 9687TIP3    H150476   5.615   2.372   0.707 -1.2775 -1.1582  1.1806
 9687TIP3    H250477   5.589   2.223   0.701  0.3508 -1.4196 -1.2934
 9688TIP3   OH250478   4.920   0.303  15.921  0.5655  0.0278 -0.1597
 9688TIP3    H150479   4.890   0.363  15.989  0.0213  0.9035 -1.1465
 9688TIP3    H250480   4.992   0.350  15.878  1.6705 -0.9932  0.5296
 9689TIP3   OH250481   0.489   5.699  13.188 -0.1403 -0.1416  0.2828
 9689TIP3    H150482   0.554   5.683  13.257  1.2436 -0.0187 -0.9297
 9689TIP3    H250483   0.483   5.615  13.142 -0.6454 -0.0738  0.2274
 9690TIP3   OH250484   4.592   0.336  13.108  0.1320 -0.1497 -0.3104
 9690TIP3    H150485   4.550   0.420  13.126  2.4350  1.0961 -0.2851
 9690TIP3    H250486   4.596   0.294  13.194 -3.2341 -1.5068 -0.6802
 9691TIP3   OH250487   5.504   1.760   1.812 -0.1673 -0.6888 -0.0832
 9691TIP3    H150488   5.456   1.732   1.890 -0.0892 -0.0284  0.2051
 9691TIP3    H250489   5.565   1.688   1.795  0.1097 -0.6595  0.7219
 9692TIP3   OH250490   5.444   0.056   5.439  0.3988  0.0390 -0.0729
 9692TIP3    H150491   5.524   0.022   5.479 -0.0610  0.2808  1.0804
 9692TIP3    H250492   5.466   0.146   5.413  0.7614 -0.1873 -0.5460
 9693TIP3   OH250493   0.059   6.790  16.923 -0.2778 -0.0825  0.4921
 9693TIP3    H150494   0.080   6.799  17.016  0.2097  1.2924  0.2786
 9693TIP3    H250495   0.095   6.705  16.899  1.2333  0.3320  1.1558
 9694TIP3   OH250496   6.397   3.312  13.269 -0.2003 -0.4835 -0.4240
 9694TIP3    H150497   6.474   3.262  13.243 -0.0224 -0.8114  0.7071
 9694TIP3    H250498   6.403   3.393  13.219  1.9459  0.3800  1.1128
 9695TIP3   OH250499   0.798   0.487   6.454 -0.1400 -0.5137  0.0345
 9695TIP3    H150500   0.718   0.433   6.449  0.5073 -1.5297  0.2980
 9695TIP3    H250501   0.866   0.432   6.416  0.5591  0.1029  0.3772
 9696TIP3   OH250502   3.410   6.783  14.472  0.4007  0.2000 -0.2254
 9696TIP3    H150503   3.384   6.865  14.512  0.4769 -0.0500  0.3530
 9696TIP3    H250504   3.476   6.747  14.532 -1.1998 -1.3356  0.7020
 9697TIP3   OH250505   0.675   2.419   3.225  0.4357 -0.1572 -0.0786
 9697TIP3    H150506   0.670   2.342   3.168 -0.4440 -0.5359  0.4921
 9697TIP3    H250507   0.595   2.416   3.277 -0.2367  1.8547 -0.9104
 9698TIP3   OH250508   5.104   0.737   1.063  0.5011  0.1565 -0.3483
 9698TIP3    H150509   5.157   0.672   1.109  2.3988  2.1169  0.3943
 9698TIP3    H250510   5.022   0.740   1.111  0.0339 -2.1838 -0.8661
 9699TIP3   OH250511   6.699   1.528   3.942  0.5111 -0.1534 -0.4119
 9699TIP3    H150512   6.697   1.601   4.004 -1.7469 -0.8004  0.3636
 9699TIP3    H250513   6.693   1.450   3.996  1.5521 -0.9075 -1.3164
 9700TIP3   OH250514   6.200   4.919   3.775 -0.3104  0.5363 -0.5930
 9700TIP3    H150515   6.182   4.992   3.835 -2.1947  0.2672 -0.7702
 9700TIP3    H250516   6.140   4.850   3.803  0.5586 -0.4893 -1.2281
 9701TIP3   OH250517   6.514   5.168  14.829 -0.0590 -0.2266 -0.4559
 9701TIP3    H150518   6.461   5.138  14.755  0.7102 -1.2117 -0.6403
 9701TIP3    H250519   6.547   5.254  14.801 -0.1637 -0.3753 -1.0529
 9702TIP3   OH250520   5.049   0.242  15.173 -0.1976 -0.1912 -0.1048
 9702TIP3    H150521   5.119   0.188  15.136 -0.4321  0.1623 -1.0800
 9702TIP3    H250522   5.002   0.183  15.232 -0.3754 -1.0263 -1.0606
 9703TIP3   OH250523   3.429   6.478  16.758  0.2068 -0.1584  0.0960
 9703TIP3    H150524   3.378   6.463  16.679 -1.5260 -0.1316  1.1375
 9703TIP3    H250525   3.448   6.572  16.758  0.3732 -0.1936 -0.3792
 9704TIP3   OH250526   2.156   0.373   2.611 -0.6029  0.0005  0.0321
 9704TIP3    H150527   2.126   0.347   2.524 -1.3579 -0.6717  0.4895
 9704TIP3    H250528   2.103   0.450   2.632 -0.4790  0.1125 -0.0591
 9705TIP3   OH250529   4.946   3.008  16.180 -0.2055 -0.3426 -0.2674
 9705TIP3    H150530   5.026   2.965  16.209 -0.5391 -0.7803  0.0187
 9705TIP3    H250531   4.971   3.052  16.099 -0.2308 -2.4118 -1.4776
 9706TIP3   OH250532   0.594   3.378   1.422 -0.3325  0.7960  0.2865
 9706TIP3    H150533   0.601   3.320   1.498  2.5875 -0.1444 -0.5706
 9706TIP3    H250534   0.523   3.340   1.370 -0.4295 -0.2689  1.1564
 9707TIP3   OH250535   2.577   0.400   4.090  0.0728 -0.1100 -0.2721
 9707TIP3    H150536   2.611   0.472   4.143  0.1208 -0.5402  0.2946
 9707TIP3    H250537   2.490   0.428   4.064  0.5320  0.6501 -1.0390
 9708TIP3   OH250538   2.917   2.407   2.485 -0.1836 -0.4439  0.1764
 9708TIP3    H150539   2.832   2.433   2.520 -0.6392 -1.7092  0.0409
 9708TIP3    H250540   2.933   2.321   2.524  1.8968  0.5297  1.6731
 9709TIP3   OH250541   5.274   6.160   1.468 -0.3996  0.4183  0.0351
 9709TIP3    H150542   5.203   6.197   1.520 -0.6092  0.1904 -0.0891
 9709TIP3    H250543   5.232   6.130   1.387 -0.2335 -0.1066  0.1379
 9710TIP3   OH250544   3.546   0.945   0.854 -0.3110 -0.0615  0.3932
 9710TIP3    H150545   3.583   1.013   0.909  2.8135 -0.8843 -0.4536
 9710TIP3    H250546   3.593   0.865   0.879  0.5869 -0.6386 -2.7104
 9711TIP3   OH250547   0.562   3.144   4.462 -0.6330  0.2048  0.1996
 9711TIP3    H150548   0.516   3.096   4.531  1.0947  0.7505  1.8287
 9711TIP3    H250549   0.624   3.080   4.426 -0.5087  0.3352  0.1832
 9712TIP3   OH250550   1.322   2.656   0.298  0.3182  0.6871 -1.0126
 9712TIP3    H150551   1.257   2.698   0.242 -0.0733  1.0011 -0.3228
 9712TIP3    H250552   1.381   2.727   0.325  0.2660  0.6079 -0.6908
 9713TIP3   OH250553   1.823   3.090   3.490  0.2845  0.6191 -0.1223
 9713TIP3    H150554   1.859   3.173   3.521 -0.0062  1.4995 -1.9738
 9713TIP3    H250555   1.862   3.079   3.403  2.4216 -2.5481  1.0302
 9714TIP3   OH250556   6.141   5.038   1.938  0.2438 -0.0836  0.1023
 9714TIP3    H150557   6.207   4.998   1.996 -0.4423 -0.1631  0.8489
 9714TIP3    H250558   6.077   4.968   1.925 -1.0803  0.8143  1.5865
 9715TIP3   OH250559   6.319   2.351   6.318  0.0128 -0.4644  0.1325
 9715TIP3    H150560   6.390   2.376   6.259 -1.6484 -0.8177 -2.1274
 9715TIP3    H250561   6.313   2.256   6.310  0.1238 -0.5965  1.3713
 9716TIP3   OH250562   2.164   4.314  14.126  0.2726  0.0052 -0.5412
 9716TIP3    H150563   2.141   4.227  14.158  1.5156 -0.7677 -1.6298
 9716TIP3    H250564   2.251   4.331  14.164  0.1241  0.6956 -0.4968
 9717TIP3   OH250565   6.197   4.569   4.473  0.0381  0.2486  0.0415
 9717TIP3    H150566   6.225   4.582   4.382 -0.3555  1.0024  0.0201
 9717TIP3    H250567   6.128   4.503   4.467  0.3609 -0.0704 -0.1520
 9718TIP3   OH250568   2.050   0.949  12.197 -0.1412  0.0352 -0.1580
 9718TIP3    H150569   2.043   0.909  12.110  0.5418 -0.6381  0.0808
 9718TIP3    H250570   2.035   1.042  12.182  2.5491  0.3659 -1.4366
 9719TIP3   OH250571   1.380   2.776  16.474 -0.5685 -0.5297  0.1842
 9719TIP3    H150572   1.330   2.840  16.526 -1.2438 -0.5367 -0.4338
 9719TIP3    H250573   1.452   2.827  16.437 -0.9232 -0.1900 -0.0526
 9720TIP3   OH250574   6.200   3.093  13.532 -0.2999 -0.0643  0.1236
 9720TIP3    H150575   6.122   3.149  13.522 -1.5904 -1.8191 -0.0345
 9720TIP3    H250576   6.269   3.154  13.556 -1.7479  1.5559  0.4344
 9721TIP3   OH250577   3.186   3.301   4.217  0.7996  0.0364 -0.3281
 9721TIP3    H150578   3.144   3.223   4.254  0.1398  0.1992 -0.7302
 9721TIP3    H250579   3.125   3.372   4.236  1.4424  0.4813  0.1165
 9722TIP3   OH250580   5.103   3.733   1.861  0.1922 -0.2224  0.4362
 9722TIP3    H150581   5.019   3.700   1.893  0.8945 -2.5475  0.0790
 9722TIP3    H250582   5.140   3.660   1.811  1.6673  1.3367 -0.8958
 9723TIP3   OH250583   0.907   4.130   0.630  0.1569 -0.1537  0.2834
 9723TIP3    H150584   0.948   4.074   0.563  0.1433  0.3536 -0.1600
 9723TIP3    H250585   0.909   4.078   0.710  2.3710  0.0998  0.4750
 9724TIP3   OH250586   2.118   0.157   2.813  0.2353 -0.2084  0.3644
 9724TIP3    H150587   2.075   0.241   2.801 -0.4869 -0.4425  1.2496
 9724TIP3    H250588   2.154   0.137   2.726  1.0571  1.3358  0.3076
 9725TIP3   OH250589   1.885   2.728  10.689 -0.2265  0.1764 -0.1682
 9725TIP3    H150590   1.889   2.822  10.709  0.0125  0.2951 -0.7616
 9725TIP3    H250591   1.844   2.724  10.604  2.7355 -0.0117 -1.7294
 9726TIP3   OH250592   0.897   5.350  15.550  0.4293 -0.1689  0.3148
 9726TIP3    H150593   0.945   5.431  15.535  1.8981 -1.2083 -0.9181
 9726TIP3    H250594   0.921   5.294  15.476 -2.1739 -1.0193  0.0210
 9727TIP3   OH250595   4.901   0.727   4.142  0.4047 -0.3101  1.0039
 9727TIP3    H150596   4.919   0.646   4.095 -0.4818  1.3775 -2.6104
 9727TIP3    H250597   4.988   0.762   4.163  0.8237 -1.4415  1.1935
 9728TIP3   OH250598   0.233   6.001   6.356  0.5810 -0.4372 -0.1539
 9728TIP3    H150599   0.224   5.969   6.446  2.0098 -1.1188 -0.2289
 9728TIP3    H250600   0.277   6.086   6.365 -0.8104  0.3111 -0.1277
 9729TIP3   OH250601   2.931   2.061   3.798  0.1700 -0.0203 -0.0444
 9729TIP3    H150602   2.912   1.969   3.814 -0.7487  0.2735  0.6278
 9729TIP3    H250603   2.867   2.088   3.732  1.0731 -0.1019 -0.9730
 9730TIP3   OH250604   0.906   3.357  12.739 -0.2770  0.0980  1.1378
 9730TIP3    H150605   0.978   3.378  12.680  0.8957  0.3001  2.5527
 9730TIP3    H250606   0.861   3.284  12.697  2.6526 -2.1870  1.5794
 9731TIP3   OH250607   4.577   5.653  11.001 -0.3887  0.5672  0.2054
 9731TIP3    H150608   4.576   5.679  10.909  0.2024  0.3796  0.1386
 9731TIP3    H250609   4.574   5.557  10.999 -1.9765  0.5891  0.4354
 9732TIP3   OH250610   2.766   0.152   1.897 -0.6215  0.2930 -0.4251
 9732TIP3    H150611   2.706   0.184   1.830 -0.6302  2.1355  0.4200
 9732TIP3    H250612   2.727   0.179   1.980 -0.6849 -2.0829  0.3840
 9733TIP3   OH250613   6.642   1.081  15.805 -0.0098  0.4433 -0.4700
 9733TIP3    H150614   6.729   1.068  15.843 -1.2417 -0.9764  2.1023
 9733TIP3    H250615   6.582   1.039  15.866 -2.5877  1.6949 -1.9562
 9734TIP3   OH250616   1.923   6.699  11.573  1.0103  0.2694 -0.0423
 9734TIP3    H150617   1.923   6.767  11.505 -1.1278  0.8135  0.4293
 9734TIP3    H250618   1.899   6.619  11.527 -2.8479  1.0574  0.2942
 9735TIP3   OH250619   3.963   4.764   4.571  0.3889 -0.2733 -0.5673
 9735TIP3    H150620   4.007   4.848   4.585 -1.1462  0.5222 -0.3107
 9735TIP3    H250621   3.944   4.762   4.478 -0.4776  0.1559 -0.4129
 9736TIP3   OH250622   6.707   5.467  16.471 -0.3587  0.4164 -0.3190
 9736TIP3    H150623   6.755   5.518  16.406  0.7603  0.3532  0.4278
 9736TIP3    H250624   6.775   5.430  16.527 -1.1335 -1.7526 -0.7130
 9737TIP3   OH250625   4.371   2.944   0.509  0.0616  0.3379 -0.6503
 9737TIP3    H150626   4.461   2.955   0.478  0.4341  0.0009  0.2839
 9737TIP3    H250627   4.348   2.855   0.484 -0.4157  0.7694 -1.8471
 9738TIP3   OH250628   4.116   6.605   2.663 -0.8804 -0.0158 -0.2721
 9738TIP3    H150629   4.043   6.546   2.680 -0.9473  0.5653  1.8079
 9738TIP3    H250630   4.180   6.583   2.731 -0.6488  1.8537  0.1802
 9739TIP3   OH250631   2.211   5.770   2.891  0.6265  0.4170  0.5152
 9739TIP3    H150632   2.262   5.721   2.827 -0.0633  1.4267 -0.8707
 9739TIP3    H250633   2.210   5.859   2.857 -0.0781  0.9060  1.7542
 9740TIP3   OH250634   4.040   1.655   4.021 -0.7755 -0.0742 -0.3250
 9740TIP3    H150635   3.982   1.631   3.948 -0.8977  0.7928 -0.5314
 9740TIP3    H250636   4.123   1.678   3.979 -1.1135  1.2999 -0.3037
 9741TIP3   OH250637   2.904   0.054  10.208 -0.6800  0.3258  0.8230
 9741TIP3    H150638   2.953  -0.027  10.221 -0.0951  0.4453 -0.4720
 9741TIP3    H250639   2.957   0.104  10.146 -2.8788  0.0534 -1.4637
 9742TIP3   OH250640   1.676   6.325   0.879 -0.1407  0.7913 -0.4917
 9742TIP3    H150641   1.729   6.401   0.903  2.3308 -0.7973 -0.6299
 9742TIP3    H250642   1.693   6.313   0.785  0.1350 -0.3795 -0.3006
 9743TIP3   OH250643   6.644   0.418  14.007 -0.0263  0.1745 -0.3852
 9743TIP3    H150644   6.699   0.382  13.938  1.3731  0.1176  0.7180
 9743TIP3    H250645   6.684   0.388  14.089 -0.3823  1.9576  0.5104
 9744TIP3   OH250646   6.161   3.461  16.015 -1.1136 -0.4561 -0.2747
 9744TIP3    H150647   6.114   3.406  16.079 -0.2458 -0.4896  0.3562
 9744TIP3    H250648   6.249   3.469  16.052 -0.4478 -0.8867 -1.7294
 9745TIP3   OH250649   0.966   4.364   1.781 -0.7406  0.4170  0.0033
 9745TIP3    H150650   1.026   4.290   1.776  0.0949  1.0382  0.5196
 9745TIP3    H250651   0.914   4.358   1.701 -2.2285 -1.9758  1.0472
 9746TIP3   OH250652   3.145   2.112  12.489 -0.2441 -0.1408  0.6826
 9746TIP3    H150653   3.079   2.176  12.466  0.6184 -0.1293 -2.1156
 9746TIP3    H250654   3.211   2.161  12.539 -0.6872  0.6105  0.5307
 9747TIP3   OH250655   0.236   5.266   3.755  0.2947 -0.2874  0.6587
 9747TIP3    H150656   0.236   5.289   3.662  0.6958  0.8090  0.9229
 9747TIP3    H250657   0.143   5.254   3.776  0.2761 -2.1795 -0.2471
 9748TIP3   OH250658   1.159   6.365  13.249 -0.1641  0.1618 -0.2146
 9748TIP3    H150659   1.144   6.425  13.322 -0.4465  0.7904 -0.7765
 9748TIP3    H250660   1.229   6.307  13.279  1.0619  1.6333 -0.1576
 9749TIP3   OH250661   0.032   4.240   1.670 -0.0143  0.0113  0.0914
 9749TIP3    H150662   0.048   4.333   1.657  0.6117 -0.1246 -0.1731
 9749TIP3    H250663  -0.061   4.228   1.649  0.2570  0.3219 -1.4220
 9750TIP3   OH250664   0.820   3.502  13.251 -0.3635 -0.0734 -0.2080
 9750TIP3    H150665   0.899   3.515  13.303 -1.1365  0.3540  0.9006
 9750TIP3    H250666   0.851   3.490  13.162  1.0649 -1.6135  0.4428
 9751TIP3   OH250667   2.699   1.448  12.232 -0.3534 -0.4332 -0.3813
 9751TIP3    H150668   2.624   1.390  12.247 -1.8034  1.7991  1.7194
 9751TIP3    H250669   2.668   1.510  12.166  0.7595 -1.2476 -1.7127
 9752TIP3   OH250670   3.253   2.405   3.182  0.2022  0.3565 -0.2359
 9752TIP3    H150671   3.319   2.393   3.250 -1.3622  1.4345  1.5572
 9752TIP3    H250672   3.252   2.499   3.165  0.7348  0.0821 -1.9727
 9753TIP3   OH250673   1.099   1.817  16.376  0.4453  0.7945 -0.4280
 9753TIP3    H150674   1.122   1.874  16.302 -0.2700  1.4125 -0.1869
 9753TIP3    H250675   1.183   1.782  16.406  0.5975 -1.1378 -2.8169
 9754TIP3   OH250676   0.320   4.683   6.392  0.2757 -0.2811 -0.5041
 9754TIP3    H150677   0.329   4.588   6.389  0.3401 -0.3334  0.6939
 9754TIP3    H250678   0.376   4.715   6.321 -0.5492 -1.1657 -1.5746
 9755TIP3   OH250679   5.877   5.653   1.178  0.1525  0.1964 -0.2334
 9755TIP3    H150680   5.916   5.740   1.192  1.5480 -0.3056 -0.7672
 9755TIP3    H250681   5.817   5.641   1.251 -0.1803  1.6721 -0.2357
 9756TIP3   OH250682   6.533   1.962   6.120 -0.2830 -0.4188  0.2829
 9756TIP3    H150683   6.473   1.963   6.046 -0.4873  0.2685  0.4534
 9756TIP3    H250684   6.580   2.045   6.113 -0.4301 -0.2705  1.0241
 9757TIP3   OH250685   4.574   4.427  12.829  0.2010 -0.2377 -0.0984
 9757TIP3    H150686   4.599   4.431  12.921 -0.3312 -0.0358  0.0392
 9757TIP3    H250687   4.479   4.410  12.830  0.6515 -3.6940 -0.5889
 9758TIP3   OH250688   0.434   0.902  16.593  0.3661 -0.1038 -0.3332
 9758TIP3    H150689   0.382   0.822  16.590  0.5131 -0.2634  0.8749
 9758TIP3    H250690   0.405   0.953  16.517 -0.0448 -1.1002 -0.8605
 9759TIP3   OH250691   4.543   3.519  10.897 -0.2255  0.3275 -0.0460
 9759TIP3    H150692   4.459   3.546  10.859 -0.6041 -2.8825 -1.7942
 9759TIP3    H250693   4.550   3.426  10.878  3.0533  0.1142  1.4570
 9760TIP3   OH250694   3.740   0.472  14.790  0.4985 -0.0554 -0.2405
 9760TIP3    H150695   3.751   0.566  14.802 -0.0805 -0.1424  1.2319
 9760TIP3    H250696   3.653   0.453  14.827  1.0290 -1.3063  0.4348
 9761TIP3   OH250697   1.337   0.144  17.078 -0.2400  0.3503 -0.2418
 9761TIP3    H150698   1.380   0.068  17.038  0.1971  0.8543 -0.7532
 9761TIP3    H250699   1.338   0.210  17.009  1.5835  1.6586  0.9610
 9762TIP3   OH250700   1.752   0.713  16.586  0.0531 -0.8354 -0.6986
 9762TIP3    H150701   1.792   0.642  16.536  0.3565 -1.0125 -0.2103
 9762TIP3    H250702   1.664   0.681  16.607  0.0320 -0.8826 -0.8567
 9763TIP3   OH250703   6.176   3.498  12.990 -0.0422 -0.4120  0.8255
 9763TIP3    H150704   6.178   3.415  12.942  2.5079 -0.4518  0.8384
 9763TIP3    H250705   6.130   3.559  12.933 -2.0093 -1.8193  0.8402
 9764TIP3   OH250706   2.692   3.047   0.728  0.5524 -0.4089 -0.1934
 9764TIP3    H150707   2.664   3.075   0.641 -0.8444 -0.3451  0.2384
 9764TIP3    H250708   2.718   2.956   0.717  0.6922 -0.3058 -0.7347
 9765TIP3   OH250709   4.046   2.795   3.326 -0.0487  0.8936  0.3946
 9765TIP3    H150710   4.097   2.715   3.333  0.2687  1.0439 -0.1192
 9765TIP3    H250711   4.106   2.865   3.352  0.7239  1.3082 -2.1963
 9766TIP3   OH250712   0.669   3.002  12.887  0.5439  0.4982  0.0144
 9766TIP3    H150713   0.724   3.076  12.862 -1.5317  1.7326 -1.2006
 9766TIP3    H250714   0.683   2.937  12.818  1.3083  0.3264  0.3241
 9767TIP3   OH250715   6.116   4.554  15.200 -0.2385 -0.5978 -0.2231
 9767TIP3    H150716   6.211   4.569  15.203 -0.3255  0.3301 -1.3824
 9767TIP3    H250717   6.078   4.642  15.197 -1.0821 -0.9769 -1.0368
 9768TIP3   OH250718   2.496   4.635  17.111 -0.4830  0.6991 -0.1609
 9768TIP3    H150719   2.514   4.548  17.147  2.0352  0.9943 -0.5554
 9768TIP3    H250720   2.433   4.619  17.040  0.2673 -0.8841 -0.5154
 9769TIP3   OH250721   1.308   1.144  11.559 -0.6751  0.4875 -0.5749
 9769TIP3    H150722   1.364   1.210  11.600 -0.9082  0.2308  0.1740
 9769TIP3    H250723   1.368   1.087  11.512 -0.3978  0.7744 -0.5711
 9770TIP3   OH250724   0.524   4.803   2.206  0.0501 -0.1867  0.1916
 9770TIP3    H150725   0.457   4.847   2.153 -0.1183  1.6561  1.8548
 9770TIP3    H250726   0.487   4.715   2.221 -1.4640  0.4031  0.1238
 9771TIP3   OH250727   1.213   2.012   0.990  0.0567  0.0142  0.2490
 9771TIP3    H150728   1.227   1.959   0.912 -2.1474  2.1059 -1.7310
 9771TIP3    H250729   1.269   2.088   0.978 -2.0306  1.5102 -0.6131
 9772TIP3   OH250730   4.836   4.463   3.472  0.7379  0.2210  0.3275
 9772TIP3    H150731   4.794   4.389   3.516 -2.1229  1.3389 -0.2798
 9772TIP3    H250732   4.913   4.482   3.526  0.0788 -1.4836  2.0109
 9773TIP3   OH250733   6.386   0.555  15.696  0.0021 -0.1530  0.0765
 9773TIP3    H150734   6.393   0.631  15.638  4.1584 -0.8455 -0.6731
 9773TIP3    H250735   6.411   0.481  15.641  0.6018 -1.3466  1.8813
 9774TIP3   OH250736   4.138   5.937  12.281  0.1431  0.5867  0.1702
 9774TIP3    H150737   4.223   5.895  12.290  0.1399  0.4863 -0.2140
 9774TIP3    H250738   4.154   6.012  12.222  0.1226  1.0461  0.7429
 9775TIP3   OH250739   0.627   6.116  17.095 -0.8854  0.2393 -0.0341
 9775TIP3    H150740   0.559   6.176  17.064  0.5927  0.8620 -2.2463
 9775TIP3    H250741   0.616   6.037  17.042 -0.4462 -0.0132  0.2388
 9776TIP3   OH250742   1.082   3.141  12.461  0.2865 -0.0436  0.3838
 9776TIP3    H150743   1.157   3.185  12.501  1.3028 -0.7503 -0.6677
 9776TIP3    H250744   1.103   3.139  12.367 -0.9939 -0.3742  0.0817
 9777TIP3   OH250745   3.282   2.026  16.747 -0.5178  0.1794  0.1992
 9777TIP3    H150746   3.355   2.011  16.809 -0.4483 -3.1841 -0.5159
 9777TIP3    H250747   3.203   2.013  16.800 -0.4628 -1.6530 -0.0845
 9778TIP3   OH250748   0.455   6.079   6.016  0.1075  0.3046  0.3383
 9778TIP3    H150749   0.532   6.112   5.970  0.7014  1.5581  2.0815
 9778TIP3    H250750   0.396   6.154   6.019 -1.0389 -0.5284 -0.6178
 9779TIP3   OH250751   1.380   5.902  17.048  0.6433  0.1044  0.1295
 9779TIP3    H150752   1.359   5.811  17.029  1.7383  0.1396 -1.3888
 9779TIP3    H250753   1.395   5.942  16.963  0.8917  1.5425  0.8136
 9780TIP3   OH250754   4.081   3.384  16.147  1.2396 -0.8897 -0.2615
 9780TIP3    H150755   4.054   3.407  16.058  0.5625 -1.0663 -0.1083
 9780TIP3    H250756   4.106   3.292  16.142  0.4489 -1.1210 -0.1129
 9781TIP3   OH250757   2.428   5.884   1.911 -0.3596  0.1612  0.1690
 9781TIP3    H150758   2.337   5.882   1.940 -0.5984 -1.4888 -0.5667
 9781TIP3    H250759   2.469   5.811   1.959 -0.0955 -0.8194 -1.4831
 9782TIP3   OH250760   3.740   4.229   0.184  0.5038  0.0222 -0.1328
 9782TIP3    H150761   3.816   4.221   0.125 -1.1210  1.0859 -2.5194
 9782TIP3    H250762   3.739   4.321   0.208  1.4227 -0.4890  2.0749
 9783TIP3   OH250763   3.055   5.139  12.561 -0.4830 -0.5618 -0.0090
 9783TIP3    H150764   3.080   5.073  12.496  0.9835  0.0871 -0.1466
 9783TIP3    H250765   3.056   5.222  12.513 -2.7862 -0.4408  0.0378
 9784TIP3   OH250766   0.123   5.695  15.280 -0.4033 -0.6066  0.4852
 9784TIP3    H150767   0.187   5.739  15.224  0.1225 -0.5968  1.0747
 9784TIP3    H250768   0.072   5.640  15.221  0.6151 -1.1498  0.0791
 9785TIP3   OH250769   2.167   2.701   1.141  0.3479 -0.1157  0.2895
 9785TIP3    H150770   2.114   2.633   1.181  1.8650 -0.1481  2.4370
 9785TIP3    H250771   2.257   2.676   1.159  1.0090  1.5767 -0.3791
 9786TIP3   OH250772   0.619   3.684  11.616 -0.3978  0.0187 -0.4037
 9786TIP3    H150773   0.671   3.619  11.569 -1.5765 -0.5555 -0.9649
 9786TIP3    H250774   0.647   3.768  11.580 -0.4837 -0.3396 -1.3486
 9787TIP3   OH250775   0.075   5.830   6.572  0.7117 -0.1478 -1.1202
 9787TIP3    H150776   0.130   5.896   6.614  1.0238  0.6470 -2.7195
 9787TIP3    H250777   0.014   5.879   6.517 -0.1469 -1.1212 -1.0761
 9788TIP3   OH250778   4.500   3.903   4.045 -0.3264 -0.0718  0.1642
 9788TIP3    H150779   4.443   3.835   4.008 -1.5635 -0.2184  2.1607
 9788TIP3    H250780   4.540   3.861   4.121  0.5325  0.8190  0.2185
 9789TIP3   OH250781   4.059   0.017  13.641  0.0533  0.1575 -0.3027
 9789TIP3    H150782   4.068   0.046  13.550 -1.5685 -0.4816 -0.7099
 9789TIP3    H250783   4.149   0.012  13.674  0.5663  4.1485 -0.6078
 9790TIP3   OH250784   0.557   2.144  12.230  0.0332 -0.2435 -0.5222
 9790TIP3    H150785   0.635   2.128  12.283  0.9411 -0.9369 -2.0167
 9790TIP3    H250786   0.546   2.239  12.231 -0.9926 -0.2903  2.2660
 9791TIP3   OH250787   3.830   4.278  16.824 -0.5621 -0.3005  0.0124
 9791TIP3    H150788   3.872   4.213  16.880 -1.7784 -1.3552 -0.2545
 9791TIP3    H250789   3.898   4.302  16.760 -0.2327 -1.7068 -0.2059
 9792TIP3   OH250790   4.464   4.883  13.419 -0.5019 -0.0605  0.5643
 9792TIP3    H150791   4.387   4.860  13.367 -0.9344  0.5354  0.9297
 9792TIP3    H250792   4.453   4.976  13.439  1.5137  0.6666 -1.3522
 9793TIP3   OH250793   0.383   5.594   2.459 -0.1428  0.4050  0.0048
 9793TIP3    H150794   0.407   5.681   2.427 -0.7880 -0.2728 -2.5996
 9793TIP3    H250795   0.290   5.585   2.437  0.2552 -1.4415 -1.2100
 9794TIP3   OH250796   6.646   4.708   5.236  0.0573  0.6597  0.0091
 9794TIP3    H150797   6.560   4.746   5.222 -0.1626  0.0931 -0.2042
 9794TIP3    H250798   6.689   4.767   5.297 -1.3623 -0.3220  2.0930
 9795TIP3   OH250799   2.414   0.627  13.218  0.3069 -0.0573  0.2164
 9795TIP3    H150800   2.504   0.642  13.190  0.1616 -0.0646 -0.2566
 9795TIP3    H250801   2.363   0.692  13.170  0.2341  1.0321  1.6721
 9796TIP3   OH250802   0.346   0.553  16.992 -0.1638  0.2273 -0.0490
 9796TIP3    H150803   0.421   0.555  17.051 -1.9099 -0.8752  2.3667
 9796TIP3    H250804   0.347   0.638  16.948  3.4468 -0.3714 -1.5193
 9797TIP3   OH250805   0.358   0.225  11.235 -0.4374  0.3616  0.3709
 9797TIP3    H150806   0.452   0.212  11.222 -0.3933  0.3843  0.6611
 9797TIP3    H250807   0.326   0.137  11.258 -0.7497  0.0208 -1.2408
 9798TIP3   OH250808   6.288   5.497   5.685 -0.0602  0.0186  0.5579
 9798TIP3    H150809   6.360   5.452   5.730  0.4129  0.2644  0.0628
 9798TIP3    H250810   6.299   5.472   5.593 -1.9417 -1.7549  0.7423
 9799TIP3   OH250811   6.447   5.944  16.612 -0.2083  0.4168  0.5387
 9799TIP3    H150812   6.370   5.972  16.663 -0.1607 -1.3364  1.6613
 9799TIP3    H250813   6.472   5.861  16.651  1.8943  0.6287 -0.2405
 9800TIP3   OH250814   6.247   6.646  15.945  0.3892 -0.2424 -0.1167
 9800TIP3    H150815   6.338   6.672  15.937  0.6634 -1.1783 -0.2161
 9800TIP3    H250816   6.198   6.713  15.897  1.1800 -0.6455 -1.5583
 9801TIP3   OH250817   0.284   2.205  11.116  0.0259 -0.0410 -0.1302
 9801TIP3    H150818   0.290   2.283  11.061 -0.8532  0.2049  0.1136
 9801TIP3    H250819   0.375   2.186  11.141  0.3168  0.4625 -0.7956
 9802TIP3   OH250820   5.121   4.951  13.328 -0.2318  0.3066 -0.2179
 9802TIP3    H150821   5.127   5.014  13.256 -0.7062 -0.0308 -0.5581
 9802TIP3    H250822   5.098   4.868  13.285  3.2563 -0.8404 -0.1701
 9803TIP3   OH250823   5.674   5.183  16.504 -0.4501  0.1252  0.3434
 9803TIP3    H150824   5.582   5.189  16.480 -0.8743 -3.4690  0.4045
 9803TIP3    H250825   5.719   5.163  16.422  0.4484  2.4140  0.2108
 9804TIP3   OH250826   3.927   5.120   2.787  0.1443  0.5348  0.7526
 9804TIP3    H150827   3.951   5.211   2.768  0.2476 -0.1282 -3.2585
 9804TIP3    H250828   3.831   5.121   2.790  0.1298  0.7397  0.3691
 9805TIP3   OH250829   1.722   1.585   1.438 -0.0899 -0.4415 -0.5215
 9805TIP3    H150830   1.715   1.498   1.400 -1.6613  0.7006 -3.1908
 9805TIP3    H250831   1.634   1.623   1.426  0.6227  1.5934  0.2343
 9806TIP3   OH250832   2.383   4.900  14.074 -0.2741  0.1142 -0.3406
 9806TIP3    H150833   2.318   4.924  14.008  0.1621  0.1271 -0.7746
 9806TIP3    H250834   2.467   4.905  14.028  0.0477  0.2324  0.2490
 9807TIP3   OH250835   0.433   4.254  16.782  0.2854 -0.3543 -0.1940
 9807TIP3    H150836   0.344   4.223  16.769 -0.0768  0.4589  0.2510
 9807TIP3    H250837   0.431   4.300  16.866  0.5901  1.4815 -1.1326
 9808TIP3   OH250838   1.722   6.464   4.849 -0.0008  0.1807 -0.7978
 9808TIP3    H150839   1.664   6.535   4.823 -1.2054 -0.9856 -1.4670
 9808TIP3    H250840   1.668   6.385   4.842  1.7369 -1.0121 -1.7954
 9809TIP3   OH250841   3.461   3.826  11.590 -0.0451 -0.5700  0.0458
 9809TIP3    H150842   3.393   3.813  11.657 -1.2068  0.3918 -0.8952
 9809TIP3    H250843   3.529   3.875  11.635 -0.4157 -0.6855  0.7581
 9810TIP3   OH250844   0.505   5.675  11.943 -0.4795  0.1328  0.1314
 9810TIP3    H150845   0.548   5.620  12.008 -1.0149 -0.9308 -0.3992
 9810TIP3    H250846   0.444   5.728  11.994 -0.6182 -0.4200  0.5512
 9811TIP3   OH250847   0.558   1.195   5.636 -0.5820 -0.4218 -0.0890
 9811TIP3    H150848   0.544   1.205   5.730  0.6746  0.2714  0.0578
 9811TIP3    H250849   0.501   1.123   5.610  1.3777 -2.8670  1.8261
 9812TIP3   OH250850   1.382   2.234  17.059  0.0033  0.2670 -0.1815
 9812TIP3    H150851   1.368   2.327  17.074 -0.6900  0.2282 -0.5542
 9812TIP3    H250852   1.428   2.230  16.975  0.6558  0.3023  0.1679
 9813TIP3   OH250853   0.856   5.414  13.083 -0.0175 -0.0438  0.2006
 9813TIP3    H150854   0.844   5.345  13.017 -0.7981  0.2791 -0.0020
 9813TIP3    H250855   0.768   5.436  13.111  0.2139  1.0393  0.1052
 9814TIP3   OH250856   0.364   1.217  16.746  0.0803 -0.3196  0.2581
 9814TIP3    H150857   0.400   1.137  16.785 -1.8523 -0.2641  2.3470
 9814TIP3    H250858   0.296   1.186  16.686  0.4229 -0.2648 -0.1679
 9815TIP3   OH250859   6.198   5.515   1.105 -0.1485  0.4931  0.3734
 9815TIP3    H150860   6.122   5.560   1.143 -0.5946  0.3379 -0.3105
 9815TIP3    H250861   6.218   5.445   1.168 -3.0630 -2.0241 -1.2145
 9816TIP3   OH250862   4.478   0.628   1.554  0.2146 -0.4095 -0.4582
 9816TIP3    H150863   4.438   0.626   1.468 -0.4999 -1.4656 -0.1193
 9816TIP3    H250864   4.405   0.627   1.616  0.6460  1.9037  0.2140
 9817TIP3   OH250865   0.026   2.546   6.159 -0.3974 -0.1196  0.3188
 9817TIP3    H150866   0.120   2.524   6.157 -0.1332  0.9958 -0.2870
 9817TIP3    H250867  -0.007   2.502   6.237  0.5402 -0.8958  0.2910
 9818TIP3   OH250868   2.052   2.182   4.221 -0.0569 -0.2794  0.4715
 9818TIP3    H150869   2.002   2.142   4.150 -1.3934  0.3659  1.0244
 9818TIP3    H250870   2.131   2.215   4.179 -0.4404 -0.6429 -0.5598
 9819TIP3   OH250871   1.472   3.019   1.030 -0.2373 -0.6173 -0.1664
 9819TIP3    H150872   1.525   2.984   1.101 -1.4494  1.4165  1.8678
 9819TIP3    H250873   1.481   3.114   1.038 -2.8384 -0.2601 -0.7902
 9820TIP3   OH250874   5.815   4.334  12.312  0.2805  0.4248 -0.2744
 9820TIP3    H150875   5.861   4.346  12.395  0.8457  0.6539 -0.6150
 9820TIP3    H250876   5.756   4.260  12.327  1.1862 -0.2563 -0.0164
 9821TIP3   OH250877   5.935   2.054  14.989 -0.3358 -0.4313 -0.0904
 9821TIP3    H150878   5.954   2.147  14.976  0.4611 -0.6042 -0.2372
 9821TIP3    H250879   5.915   2.021  14.901 -1.5077 -0.2251  0.0791
 9822TIP3   OH250880   5.337   2.957  15.213  0.1966  0.5645  0.0839
 9822TIP3    H150881   5.396   3.014  15.262 -0.0779  0.0148  1.0797
 9822TIP3    H250882   5.338   2.874  15.261 -1.9383  0.7513  0.5642
 9823TIP3   OH250883   0.824   1.964   2.214  0.2346  0.0599  0.7596
 9823TIP3    H150884   0.747   1.958   2.270  0.2245  0.8802  0.8425
 9823TIP3    H250885   0.788   1.969   2.125  0.2054  0.1352  0.7759
 9824TIP3   OH250886   5.795   5.174   0.030  0.0023  0.7063  0.7637
 9824TIP3    H150887   5.743   5.233   0.085  2.5553  1.1719  2.9111
 9824TIP3    H250888   5.847   5.124   0.093  0.9979 -0.8256 -1.1941
 9825TIP3   OH250889   0.360   4.387  12.301 -0.6203 -0.1641  0.2502
 9825TIP3    H150890   0.439   4.345  12.336 -0.3684  2.1009  2.6493
 9825TIP3    H250891   0.390   4.428  12.220  0.4366 -0.1551  0.6289
 9826TIP3   OH250892   5.279   4.545  16.856 -0.0584  0.4787 -0.1334
 9826TIP3    H150893   5.271   4.452  16.875 -0.0625  0.6171  0.5715
 9826TIP3    H250894   5.196   4.583  16.884 -0.3588  0.5944 -1.1177
 9827TIP3   OH250895   2.952   3.907  15.761 -0.0380 -0.0128 -0.5453
 9827TIP3    H150896   2.981   3.850  15.833  0.3529 -0.2228 -0.8678
 9827TIP3    H250897   2.870   3.945  15.793  0.5498  0.5352  0.3500
 9828TIP3   OH250898   1.797   4.369  15.024 -0.2165  0.1284 -0.4522
 9828TIP3    H150899   1.703   4.366  15.044  0.6466  1.3169  5.5333
 9828TIP3    H250900   1.821   4.461  15.036  2.0246 -0.5058  0.3558
 9829TIP3   OH250901   5.443   4.888  13.892  0.6820 -0.1547  0.7224
 9829TIP3    H150902   5.424   4.978  13.866  2.7493  0.3651  0.8196
 9829TIP3    H250903   5.387   4.834  13.837 -0.8471  1.1935  0.9054
 9830TIP3   OH250904   6.216   5.630  14.346 -0.0587 -0.3163  0.3491
 9830TIP3    H150905   6.292   5.687  14.350 -1.4754  1.6191  1.0206
 9830TIP3    H250906   6.182   5.630  14.436 -0.9277 -1.0499  0.0323
 9831TIP3   OH250907   0.767   5.674  14.639  0.0777  0.0361 -0.2367
 9831TIP3    H150908   0.688   5.694  14.689  0.3397  0.5134 -0.0087
 9831TIP3    H250909   0.839   5.701  14.697  0.3913  0.2497 -0.7277
 9832TIP3   OH250910   5.646   3.540   5.098  0.5441 -0.8115 -0.0519
 9832TIP3    H150911   5.577   3.591   5.140 -0.2014  0.1609 -2.3210
 9832TIP3    H250912   5.602   3.491   5.028  2.0600 -0.4238 -1.3520
 9833TIP3   OH250913   4.665   1.298  14.968  0.1182  0.2941 -0.4147
 9833TIP3    H150914   4.681   1.369  14.906  1.0699  0.2676 -0.2119
 9833TIP3    H250915   4.679   1.338  15.054  2.3511 -0.5192 -0.3423
 9834TIP3   OH250916   0.228   5.203  16.754  0.0070 -0.1289  0.3549
 9834TIP3    H150917   0.292   5.133  16.767 -0.7869 -0.9683 -0.1297
 9834TIP3    H250918   0.272   5.282  16.784  2.8181  0.0891 -3.5818
 9835TIP3   OH250919   2.074   5.341   6.274 -0.3440  0.1678 -0.2526
 9835TIP3    H150920   2.148   5.324   6.332 -0.9066  1.6944  0.9861
 9835TIP3    H250921   2.101   5.308   6.189  1.4408  0.0042  0.3467
 9836TIP3   OH250922   1.547   5.299  12.008  0.0155 -0.2422 -0.4912
 9836TIP3    H150923   1.613   5.236  12.038  0.3346  0.1666 -0.3309
 9836TIP3    H250924   1.593   5.354  11.944  0.4623  1.4285  1.1911
 9837TIP3   OH250925   1.391   0.524   2.700  0.3810 -0.3261  0.1267
 9837TIP3    H150926   1.465   0.478   2.738 -1.4653 -2.3924  1.4695
 9837TIP3    H250927   1.338   0.455   2.660  0.1489  1.3156 -2.6277
 9838TIP3   OH250928   1.711   5.486  13.165 -0.3719 -0.4529  0.9759
 9838TIP3    H150929   1.750   5.563  13.125  1.4524 -1.3958  0.8556
 9838TIP3    H250930   1.774   5.458  13.231 -1.3721 -1.3882  1.5665
 9839TIP3   OH250931   1.304   3.502  11.197  0.1250  0.3649 -0.0096
 9839TIP3    H150932   1.328   3.505  11.290  0.1880 -1.1351  0.0379
 9839TIP3    H250933   1.215   3.466  11.196  1.6961 -4.1536 -0.6720
 9840TIP3   OH250934   4.668   5.208  15.319  0.1146 -0.2420 -0.0946
 9840TIP3    H150935   4.711   5.292  15.334 -0.3710  0.1697 -0.9190
 9840TIP3    H250936   4.576   5.230  15.309  0.1967 -0.6178 -2.1242
 9841TIP3   OH250937   1.820   5.874  14.847 -0.6664  0.3163 -0.4575
 9841TIP3    H150938   1.766   5.851  14.923  0.0111 -1.4802 -0.4853
 9841TIP3    H250939   1.906   5.892  14.884 -0.4529 -0.0963 -0.7571
 9842TIP3   OH250940   6.134   1.373   3.666  0.0358 -0.0280 -0.0408
 9842TIP3    H150941   6.180   1.317   3.728 -0.3399  0.5534  0.7747
 9842TIP3    H250942   6.085   1.434   3.720 -3.8977 -2.2568 -0.7564
 9843TIP3   OH250943   6.723   1.420  15.684  0.4514 -0.5560 -0.3052
 9843TIP3    H150944   6.746   1.432  15.776 -1.3743  1.0496  0.0122
 9843TIP3    H250945   6.780   1.480  15.636  1.6000 -1.6005 -0.2754
 9844TIP3   OH250946   4.301   0.677   3.707  0.1264  0.0388  0.1333
 9844TIP3    H150947   4.383   0.664   3.754  1.0373 -1.1932 -1.6734
 9844TIP3    H250948   4.261   0.753   3.749  3.1162  1.9589 -0.1688
 9845TIP3   OH250949   0.093   4.860   2.173 -0.2815  0.3807  0.0458
 9845TIP3    H150950   0.088   4.764   2.182  1.1481  0.0811 -1.6650
 9845TIP3    H250951   0.034   4.880   2.100 -1.3348  0.9795  1.0161
 9846TIP3   OH250952   0.815   4.514  16.603  0.1560 -0.4170  0.1260
 9846TIP3    H150953   0.866   4.463  16.539  1.6864  0.1491  0.8460
 9846TIP3    H250954   0.785   4.590  16.554 -0.5165 -1.0544 -0.4659
 9847TIP3   OH250955   1.023   1.494  14.671 -0.5749 -0.4016 -0.1262
 9847TIP3    H150956   0.976   1.412  14.686  0.2920 -0.7366  0.8804
 9847TIP3    H250957   0.972   1.538  14.603 -0.7567 -2.0236 -1.1188
 9848TIP3   OH250958   5.956   3.547   6.103 -0.0318 -0.0990 -0.5687
 9848TIP3    H150959   5.909   3.490   6.043 -0.7855  0.3429 -0.4056
 9848TIP3    H250960   5.930   3.636   6.079  0.0829  0.1128  0.0500
 9849TIP3   OH250961   1.682   6.044   4.883  0.7287  0.2522  0.0199
 9849TIP3    H150962   1.631   6.124   4.872 -0.2464 -0.4727 -0.8916
 9849TIP3    H250963   1.719   6.027   4.797 -3.2560 -2.9901 -1.3916
 9850TIP3   OH250964   1.471   6.633  12.916  0.4230  0.0713  0.0490
 9850TIP3    H150965   1.512   6.649  13.001 -1.1781  0.2178  0.8273
 9850TIP3    H250966   1.445   6.541  12.918 -0.7988  0.4019  0.2777
 9851TIP3   OH250967   3.209   6.014  13.124  0.0685  0.3048  0.1190
 9851TIP3    H150968   3.204   6.094  13.175 -0.2656 -0.6019  1.5493
 9851TIP3    H250969   3.213   6.044  13.033 -1.1691  1.9071  0.5515
 9852TIP3   OH250970   5.522   1.743   2.691  0.6978  0.1476  0.1896
 9852TIP3    H150971   5.571   1.815   2.730  0.5153 -0.1653  1.0229
 9852TIP3    H250972   5.578   1.666   2.706  0.0678 -0.1733  0.9310
 9853TIP3   OH250973   4.550   6.664  13.364 -0.0228 -0.4841 -0.7324
 9853TIP3    H150974   4.586   6.579  13.389 -2.1011 -0.3612  3.6023
 9853TIP3    H250975   4.456   6.649  13.359 -0.4297  1.4990  0.0967
 9854TIP3   OH250976   6.333   5.136  12.791  0.2073 -1.5499 -0.1899
 9854TIP3    H150977   6.303   5.197  12.858  0.0768 -2.0242  0.1910
 9854TIP3    H250978   6.377   5.191  12.727 -1.5496 -0.8039 -0.8311
 9855TIP3   OH250979   6.488   5.953  12.520  0.8347  0.0780 -0.6712
 9855TIP3    H150980   6.476   5.871  12.472  2.8433  0.9232 -2.8159
 9855TIP3    H250981   6.415   6.008  12.491 -1.0474 -1.1250  1.4568
 9856TIP3   OH250982   6.603   3.058  16.378 -0.1621 -0.2494  0.0427
 9856TIP3    H150983   6.698   3.066  16.372  0.0878 -2.7609 -0.5651
 9856TIP3    H250984   6.589   3.003  16.456 -1.0653 -0.3649 -0.1884
 9857TIP3   OH250985   4.920   2.361  15.245  0.3097 -0.1721 -0.2013
 9857TIP3    H150986   4.885   2.448  15.223  2.8768  1.3248  1.0514
 9857TIP3    H250987   4.849   2.317  15.290 -1.5103  0.7374 -1.9937
 9858TIP3   OH250988   5.828   6.587  13.591 -0.3464  0.6681 -0.1377
 9858TIP3    H150989   5.822   6.492  13.588  0.6946  0.5838  0.2503
 9858TIP3    H250990   5.765   6.617  13.525  0.7500 -0.3423 -1.7032
 9859TIP3   OH250991   3.544   6.245  13.979  0.2761 -0.0970 -0.1965
 9859TIP3    H150992   3.506   6.333  13.975 -0.0144 -0.1654  0.9359
 9859TIP3    H250993   3.480   6.193  14.028  1.2020 -0.5382  0.5707
 9860TIP3   OH250994   3.152   0.794  11.203  0.2217 -0.3478 -0.4299
 9860TIP3    H150995   3.113   0.787  11.116 -0.7974  1.2677 -0.1521
 9860TIP3    H250996   3.169   0.888  11.214  2.1388 -0.7486  0.3699
 9861TIP3   OH250997   1.534   2.445   1.017  0.1034 -0.2152 -0.3768
 9861TIP3    H150998   1.455   2.457   1.069  0.5789 -0.0335  0.3089
 9861TIP3    H250999   1.544   2.527   0.968  0.3321  0.0966  0.1821
 9862TIP3   OH251000   6.431   5.590  15.640  0.3624 -0.0523 -0.3022
 9862TIP3    H151001   6.525   5.577  15.635  0.5757 -0.0734  2.1931
 9862TIP3    H251002   6.396   5.503  15.662 -0.4136 -0.2961 -2.2854
 9863TIP3   OH251003   0.696   5.109  14.558 -0.1856  0.2542  0.5254
 9863TIP3    H151004   0.668   5.104  14.467  0.3898  0.6738  0.3152
 9863TIP3    H251005   0.762   5.040  14.567 -1.5650 -1.0269  1.1361
 9864TIP3   OH251006   1.586   4.619   5.301  0.1206  0.0807 -0.3866
 9864TIP3    H151007   1.583   4.525   5.317 -0.5394  0.2533  0.5657
 9864TIP3    H251008   1.505   4.639   5.254 -0.1180  0.2901  0.1061
 9865TIP3   OH251009   3.467   2.216   3.841  0.0568  0.4997 -0.1837
 9865TIP3    H151010   3.377   2.203   3.813 -0.2463  1.5220  0.2550
 9865TIP3    H251011   3.519   2.194   3.764 -0.6371  1.0161 -0.8224
 9866TIP3   OH251012   0.167   6.779   0.007  0.3574  0.0252  0.2832
 9866TIP3    H151013   0.181   6.721   0.081 -1.3744 -1.1222 -0.2423
 9866TIP3    H251014   0.248   6.774  -0.044  2.3846  2.3231  2.9863
 9867TIP3   OH251015   4.518   5.979  16.252 -0.1787 -0.5539  0.6165
 9867TIP3    H151016   4.423   5.983  16.239 -0.1360 -0.1892  0.4161
 9867TIP3    H251017   4.538   5.886  16.250 -0.6917 -0.7089  1.7895
 9868TIP3   OH251018   0.555   1.113   0.204  0.5103  0.0977 -0.1400
 9868TIP3    H151019   0.595   1.118   0.291  0.9672  1.9708 -0.4228
 9868TIP3    H251020   0.492   1.185   0.203  3.2580  2.7243 -2.6608
 9869TIP3   OH251021   1.092   3.507   1.107  0.2440 -0.4301 -0.1059
 9869TIP3    H151022   1.020   3.445   1.107  2.0982 -2.7128 -0.4537
 9869TIP3    H251023   1.129   3.500   1.019  1.5872 -0.1904  0.4166
 9870TIP3   OH251024   0.497   4.330  14.427 -0.7868 -0.1426  0.7221
 9870TIP3    H151025   0.425   4.353  14.485 -1.9569  0.5542 -0.9210
 9870TIP3    H251026   0.465   4.352  14.339  0.8405 -1.2988 -0.2173
 9871TIP3   OH251027   5.169   5.640  15.908  0.0941 -0.1544 -0.3358
 9871TIP3    H151028   5.208   5.638  15.996  0.4270 -1.0965 -0.4835
 9871TIP3    H251029   5.221   5.704  15.860 -1.1586  1.6411  0.6095
 9872TIP3   OH251030   4.357   2.435   1.027  0.4529  0.6430  0.5092
 9872TIP3    H151031   4.445   2.434   1.063  0.8746 -1.6471 -0.4136
 9872TIP3    H251032   4.362   2.495   0.952  1.6925 -0.6434 -0.4921
 9873TIP3   OH251033   2.224   5.117   5.876  0.0947  0.2493 -0.6313
 9873TIP3    H151034   2.143   5.067   5.890 -1.0177  1.9255 -0.8182
 9873TIP3    H251035   2.273   5.106   5.957 -0.8994  0.2325 -0.0097
 9874TIP3   OH251036   4.915   5.055  10.313  0.1542  0.1663  0.6980
 9874TIP3    H151037   4.981   5.028  10.377  1.4739 -0.6315 -0.8995
 9874TIP3    H251038   4.960   5.047  10.229 -1.1222  2.2943 -0.2776
 9875TIP3   OH251039   6.229   4.115  14.291  0.3285 -0.2645  0.3007
 9875TIP3    H151040   6.291   4.062  14.241 -0.8207 -1.1380 -0.2529
 9875TIP3    H251041   6.250   4.098  14.383  1.7666  0.5146  0.1384
 9876TIP3   OH251042   4.807   0.146   4.638 -0.5480  0.0657 -0.2169
 9876TIP3    H151043   4.889   0.098   4.646 -0.4625 -0.0911 -1.6742
 9876TIP3    H251044   4.762   0.131   4.721  0.4315 -0.7331  0.1891
 9877TIP3   OH251045   6.595   5.694   5.672  0.0531 -0.2876  0.0773
 9877TIP3    H151046   6.580   5.617   5.726 -0.7953  0.1239  0.4470
 9877TIP3    H251047   6.563   5.670   5.585  0.3659 -0.5606  0.0378
 9878TIP3   OH251048   2.461   5.945  12.852 -0.0514  0.2562  0.6952
 9878TIP3    H151049   2.396   5.882  12.884  0.1837 -0.2029  0.2948
 9878TIP3    H251050   2.461   6.015  12.917  0.7673 -0.8736  1.9477
 9879TIP3   OH251051   6.055   5.480   4.945  0.0046  0.0301 -0.5536
 9879TIP3    H151052   6.142   5.441   4.956 -0.1790 -0.7834 -1.8588
 9879TIP3    H251053   6.045   5.537   5.022  2.1960  1.1275 -1.0011
 9880TIP3   OH251054   1.070   3.703   1.778  0.2674  0.7061 -0.4869
 9880TIP3    H151055   1.016   3.658   1.843 -0.1305 -0.0101 -1.2986
 9880TIP3    H251056   1.008   3.751   1.723  0.5147  0.4439 -0.9972
 9881TIP3   OH251057   1.689   5.012  11.606  0.4520  0.0384 -0.5097
 9881TIP3    H151058   1.785   5.015  11.604  0.5375 -1.1307  0.5303
 9881TIP3    H251059   1.667   4.921  11.588 -0.5018  0.3790 -1.1471
 9882TIP3   OH251060   1.786   2.726   2.627 -0.1351  0.0935 -0.1077
 9882TIP3    H151061   1.748   2.813   2.642  0.6227  0.2143  1.2055
 9882TIP3    H251062   1.856   2.718   2.691  1.0481 -0.7602 -1.4329
 9883TIP3   OH251063   0.576   0.180  16.206 -0.3370 -0.3303 -0.0152
 9883TIP3    H151064   0.643   0.184  16.138 -0.4408 -3.3029 -0.4274
 9883TIP3    H251065   0.494   0.174  16.159 -0.7270  0.9357  0.4646
 9884TIP3   OH251066   4.323   1.103   1.116  0.2788  0.3419  0.1129
 9884TIP3    H151067   4.270   1.024   1.129  0.0949  0.5941  0.9559
 9884TIP3    H251068   4.355   1.124   1.204  0.5636  1.0434 -0.1582
 9885TIP3   OH251069   2.150   6.073  15.637  0.0321 -0.1355 -0.2860
 9885TIP3    H151070   2.101   6.033  15.708  0.7884 -0.1300  0.2573
 9885TIP3    H251071   2.101   6.051  15.558  0.4966 -2.2878 -0.0380
 9886TIP3   OH251072   4.979   3.062  12.339 -0.5490 -0.2762 -0.1058
 9886TIP3    H151073   4.969   2.990  12.278 -0.4014 -2.1447  1.9536
 9886TIP3    H251074   5.035   3.027  12.409  0.6601  2.2697  0.3371
 9887TIP3   OH251075   2.607   5.701   5.037  0.0914 -0.2176 -0.0250
 9887TIP3    H151076   2.691   5.671   5.071  0.7955  0.6126 -0.9686
 9887TIP3    H251077   2.630   5.753   4.960 -1.3470 -0.7900 -0.8746
 9888TIP3   OH251078   3.124   1.269   5.983  0.5932 -0.0689  0.2131
 9888TIP3    H151079   3.161   1.357   5.982 -2.4895  1.3464 -0.3311
 9888TIP3    H251080   3.049   1.275   6.042 -0.4824 -1.9557 -0.8615
 9889TIP3   OH251081   3.678   1.877   3.145 -0.0207 -0.3650  0.1670
 9889TIP3    H151082   3.635   1.817   3.083 -0.6057 -0.9056  1.0832
 9889TIP3    H251083   3.766   1.841   3.155  0.1641 -0.1262 -0.5444
 9890TIP3   OH251084   2.444   6.539   6.337 -0.0009 -0.5206  0.1487
 9890TIP3    H151085   2.461   6.482   6.261  0.5254 -0.1728  0.0048
 9890TIP3    H251086   2.392   6.484   6.396 -1.0665 -0.5476 -0.7887
 9891TIP3   OH251087   4.321   2.806   5.722 -0.3990  0.4833 -0.6829
 9891TIP3    H151088   4.367   2.724   5.738 -1.0157  0.3088  0.3480
 9891TIP3    H251089   4.317   2.848   5.808  0.0809  1.6956 -1.2278
 9892TIP3   OH251090   2.544   0.175  15.771  0.3759  0.0430 -0.0246
 9892TIP3    H151091   2.481   0.218  15.714 -1.6783 -0.3189  1.8205
 9892TIP3    H251092   2.567   0.241  15.836  0.1797 -0.4819  0.5886
 9893TIP3   OH251093   3.359   0.596  11.016 -0.2459 -0.2034 -0.3466
 9893TIP3    H151094   3.381   0.689  11.008 -1.1471 -0.0089 -0.6651
 9893TIP3    H251095   3.362   0.562  10.927 -0.2268 -0.4027 -0.2710
 9894TIP3   OH251096   5.625   3.164  16.209 -0.1814  0.2083 -1.2735
 9894TIP3    H151097   5.682   3.135  16.138  0.2815  0.7466 -1.1363
 9894TIP3    H251098   5.638   3.100  16.279  0.7047  0.6296 -1.0332
 9895TIP3   OH251099   0.949   4.995  10.759 -0.1780  0.3783  0.1644
 9895TIP3    H151100   1.035   4.978  10.720  0.6792  0.7520  1.8255
 9895TIP3    H251101   0.892   4.928  10.721  1.3038 -1.1344  0.5256
 9896TIP3   OH251102   6.616   4.881   5.738  0.1421 -0.3644  0.4912
 9896TIP3    H151103   6.567   4.928   5.670  0.3557 -0.2649  0.4069
 9896TIP3    H251104   6.550   4.858   5.804 -0.2689 -1.3485 -0.2292
 9897TIP3   OH251105   6.566   2.875  12.661 -0.2607  0.1448  0.2984
 9897TIP3    H151106   6.554   2.802  12.601 -0.0211 -0.7276  1.2934
 9897TIP3    H251107   6.634   2.846  12.721 -1.8589  0.2001  2.2258
 9898TIP3   OH251108   4.382   3.135  17.088  0.4410  0.1972 -0.6701
 9898TIP3    H151109   4.387   3.071  17.159 -1.9663  0.3925 -0.2486
 9898TIP3    H251110   4.423   3.214  17.125  1.2244 -0.3543 -0.3301
 9899TIP3   OH251111   2.026   2.180   1.266  0.1130  0.1518 -0.2160
 9899TIP3    H151112   2.103   2.213   1.314  0.3887  1.8146 -1.6647
 9899TIP3    H251113   2.057   2.100   1.224  0.3020 -0.5138  1.1384
 9900TIP3   OH251114   0.862   0.838  16.924 -0.0548  0.0330  0.5391
 9900TIP3    H151115   0.838   0.765  16.868  1.7461 -0.9146  0.9160
 9900TIP3    H251116   0.840   0.916  16.873 -1.3474 -0.7543 -0.1546
 9901TIP3   OH251117   3.749   2.760   4.485 -0.4392 -0.1099  0.2210
 9901TIP3    H151118   3.794   2.681   4.515  0.7019  0.3482 -0.2073
 9901TIP3    H251119   3.815   2.829   4.491 -1.8133  1.1474  1.9252
 9902TIP3   OH251120   3.817   4.680   2.104  0.4406 -0.0793  0.5236
 9902TIP3    H151121   3.852   4.718   2.185  0.6269  0.3256  0.2600
 9902TIP3    H251122   3.749   4.742   2.078 -1.4397 -1.5403  1.7465
 9903TIP3   OH251123   2.897   1.266   2.600  0.2986 -0.4142 -0.3626
 9903TIP3    H151124   2.827   1.329   2.581  1.2903  0.9649  0.3968
 9903TIP3    H251125   2.968   1.291   2.541  0.8015 -0.6385  0.1441
 9904TIP3   OH251126   5.960   4.348   3.642  0.6613 -0.5561  0.5093
 9904TIP3    H151127   5.910   4.346   3.561  1.2022 -0.4710  0.1652
 9904TIP3    H251128   5.923   4.277   3.695  2.0484 -2.4236 -0.8928
 9905TIP3   OH251129   0.111   3.875   0.644  0.2594 -0.5213  0.3403
 9905TIP3    H151130   0.073   3.927   0.572 -1.5669 -2.5870 -0.3154
 9905TIP3    H251131   0.068   3.909   0.722 -2.0152 -1.8618 -0.2388
 9906TIP3   OH251132   2.322   3.275   5.516 -0.1862 -0.1986 -0.2040
 9906TIP3    H151133   2.276   3.357   5.533 -2.1387 -1.4554  1.0039
 9906TIP3    H251134   2.405   3.283   5.562 -1.0938  0.4664  1.3716
 9907TIP3   OH251135   2.315   3.918  11.981 -0.0110 -0.2637  0.6087
 9907TIP3    H151136   2.248   3.959  12.035 -0.4316  0.0431 -0.1266
 9907TIP3    H251137   2.369   3.991  11.951  0.5612 -0.4905  1.0591
 9908TIP3   OH251138   3.739   0.081   6.476  0.5855  0.0702 -0.0758
 9908TIP3    H151139   3.670   0.144   6.493 -0.6727 -0.9414 -1.2402
 9908TIP3    H251140   3.701   0.018   6.415  1.7142 -1.9355  1.1482
 9909TIP3   OH251141   2.844   5.739  11.544  0.1681  0.7479 -0.5276
 9909TIP3    H151142   2.899   5.812  11.517  1.3155 -0.1649 -0.7466
 9909TIP3    H251143   2.831   5.687  11.463  2.5096 -1.2839  0.2861
 9910TIP3   OH251144   3.966   6.372  14.478  0.1256 -0.0150  0.0072
 9910TIP3    H151145   4.055   6.336  14.483  0.4454  0.7754  0.1025
 9910TIP3    H251146   3.931   6.338  14.396 -0.7502 -3.1441  1.5353
 9911TIP3   OH251147   1.031   3.599  16.152  0.2902  0.1453 -0.5178
 9911TIP3    H151148   1.033   3.645  16.068  0.3806  1.1045 -0.0062
 9911TIP3    H251149   1.101   3.639  16.203 -1.2299  1.2098  0.8251
 9912TIP3   OH251150   4.494   0.526  10.782 -0.3032 -0.4285 -0.1312
 9912TIP3    H151151   4.416   0.530  10.725 -0.0058 -1.2751 -0.6231
 9912TIP3    H251152   4.459   0.510  10.869 -0.6373 -2.7989 -0.6357
 9913TIP3   OH251153   4.446   0.456   6.682  0.2909  0.0630 -0.5168
 9913TIP3    H151154   4.426   0.362   6.687 -0.5148  0.2541  0.0617
 9913TIP3    H251155   4.409   0.484   6.598  0.8651 -0.2076 -0.8643
 9914TIP3   OH251156   3.066   3.675   4.386  0.2837 -0.1026  0.0062
 9914TIP3    H151157   3.139   3.688   4.324  0.0754 -0.9287 -0.4189
 9914TIP3    H251158   3.109   3.660   4.470  0.5952 -0.0266 -0.1373
 9915TIP3   OH251159   2.334   3.586  15.076  0.1225 -0.1760 -0.5699
 9915TIP3    H151160   2.354   3.587  14.982 -2.6263  1.9066 -1.2569
 9915TIP3    H251161   2.372   3.667  15.109  0.7913 -0.7419  0.0835
 9916TIP3   OH251162   5.407   3.276  15.458 -0.2051  0.2591  0.1713
 9916TIP3    H151163   5.497   3.302  15.480  0.3073  0.1607 -1.6653
 9916TIP3    H251164   5.352   3.344  15.497  0.7645  1.0782  0.1506
 9917TIP3   OH251165   1.221   3.216   0.981  0.5850 -0.3379 -0.8535
 9917TIP3    H151166   1.178   3.221   1.067  1.0393  2.2958 -0.6986
 9917TIP3    H251167   1.283   3.143   0.990  0.1399 -0.5673  0.8151
 9918TIP3   OH251168   6.691   4.435  11.348 -0.0929 -0.1620 -0.0147
 9918TIP3    H151169   6.699   4.340  11.341 -0.6708 -0.2892  1.0109
 9918TIP3    H251170   6.657   4.463  11.263 -1.4850 -1.0476  0.2395
 9919TIP3   OH251171   1.299   2.725  17.125  0.2082 -0.7064 -0.3694
 9919TIP3    H151172   1.312   2.804  17.074  3.4882 -0.8394  0.0406
 9919TIP3    H251173   1.240   2.750  17.195 -2.1004  0.2083 -2.4880
 9920TIP3   OH251174   5.809   3.702   1.314  0.2204  0.3586 -0.0449
 9920TIP3    H151175   5.860   3.783   1.312  0.0909  0.4779  0.9344
 9920TIP3    H251176   5.799   3.682   1.407  0.5397 -0.9678 -0.2646
 9921TIP3   OH251177   5.274   4.619  15.529  0.2672 -0.2387 -0.2988
 9921TIP3    H151178   5.325   4.542  15.554 -2.6303 -2.0868  0.4370
 9921TIP3    H251179   5.254   4.663  15.612 -1.1156 -0.8098 -0.2990
 9922TIP3   OH251180   0.168   0.268   5.464  0.0113  0.6100  0.9468
 9922TIP3    H151181   0.150   0.189   5.413 -0.4483  0.4150  1.4071
 9922TIP3    H251182   0.222   0.237   5.537  0.2631  0.8073  0.8446
 9923TIP3   OH251183   0.758   6.464   5.496  0.3765  1.0293 -0.0703
 9923TIP3    H151184   0.697   6.497   5.563 -2.0801 -1.6700 -0.7975
 9923TIP3    H251185   0.832   6.430   5.546 -1.7783 -1.7280  1.5187
 9924TIP3   OH251186   2.417   0.463  16.370 -0.0501  0.2751 -0.0642
 9924TIP3    H151187   2.472   0.496  16.299 -1.2808  1.1182 -0.6693
 9924TIP3    H251188   2.414   0.534  16.434  2.1944 -0.9860  1.5956
 9925TIP3   OH251189   5.523   0.569   0.812  0.4462 -0.1887  0.0054
 9925TIP3    H151190   5.489   0.484   0.783  1.3984  0.0644 -2.0300
 9925TIP3    H251191   5.444   0.622   0.829 -0.3826  0.2932 -4.2754
 9926TIP3   OH251192   5.943   3.057  14.207  0.1456 -0.3367  0.0610
 9926TIP3    H151193   6.015   3.084  14.264 -0.6559 -2.8844  2.4981
 9926TIP3    H251194   5.865   3.062  14.261 -0.6571 -2.9049 -0.6838
 9927TIP3   OH251195   5.374   2.994   0.262 -0.1478  0.1806 -0.6328
 9927TIP3    H151196   5.360   2.946   0.180 -0.2114  0.6169 -0.8838
 9927TIP3    H251197   5.286   3.005   0.298  0.0530 -2.1031  0.7342
 9928TIP3   OH251198   5.928   4.791  15.876  0.1736 -0.0806 -0.0163
 9928TIP3    H151199   5.888   4.795  15.789  0.7404  0.7122 -0.2565
 9928TIP3    H251200   5.885   4.862  15.925 -1.1011 -1.3534  0.7915
 9929TIP3   OH251201   1.020   3.793   0.623  0.0053 -0.0608 -0.1403
 9929TIP3    H151202   1.041   3.798   0.530  0.7997 -2.0296 -0.1060
 9929TIP3    H251203   0.936   3.746   0.626  0.4094 -0.7633  0.1740
 9930TIP3   OH251204   2.459   4.652  13.955 -0.3422  0.7490  0.9716
 9930TIP3    H151205   2.413   4.571  13.932 -0.6914  1.4056 -0.8005
 9930TIP3    H251206   2.436   4.713  13.885  2.0316  1.5812  0.8189
 9931TIP3   OH251207   2.194   6.019  15.947  0.4973 -0.3023 -0.1247
 9931TIP3    H151208   2.102   6.034  15.926  0.4679 -0.9449 -0.4718
 9931TIP3    H251209   2.223   6.101  15.987 -0.2670 -0.1502  0.1386
 9932TIP3   OH251210   0.098   1.858  13.875  0.0879 -0.2275 -0.2326
 9932TIP3    H151211   0.169   1.840  13.813  0.8742 -0.3458  0.6803
 9932TIP3    H251212   0.048   1.777  13.878  0.1632 -0.2877 -0.5596
 9933TIP3   OH251213   3.093   4.486   0.200  0.0518 -0.0523  0.6271
 9933TIP3    H151214   3.174   4.486   0.250  0.7744 -0.6049 -0.4905
 9933TIP3    H251215   3.106   4.552   0.133  0.6373 -1.8334 -1.1207
 9934TIP3   OH251216   5.208   5.781   5.514 -0.0138  0.0149 -0.0679
 9934TIP3    H151217   5.117   5.794   5.539  0.2152  1.5958  0.0592
 9934TIP3    H251218   5.207   5.702   5.460 -1.4037 -0.1428  0.1449
 9935TIP3   OH251219   1.196   2.640   3.290 -0.0934  0.2870  0.1927
 9935TIP3    H151220   1.213   2.720   3.340 -2.7296  0.9100  0.2463
 9935TIP3    H251221   1.211   2.569   3.353  0.0147  0.8737  0.8427
 9936TIP3   OH251222   2.170   1.242   0.325  0.6097 -0.3223 -0.1138
 9936TIP3    H151223   2.159   1.177   0.394  1.8677  0.7102  1.1076
 9936TIP3    H251224   2.098   1.304   0.338  0.5309 -0.4217 -0.0779
 9937TIP3   OH251225   6.614   3.130  13.161 -0.1377  0.1343  0.5235
 9937TIP3    H151226   6.616   3.124  13.066 -2.7506  1.9138  0.2653
 9937TIP3    H251227   6.702   3.159  13.185  0.5981 -0.4338 -1.3001
 9938TIP3   OH251228   5.267   1.173   4.380  0.1228  0.0449  0.1283
 9938TIP3    H151229   5.346   1.223   4.363 -0.8516  1.7577  0.4448
 9938TIP3    H251230   5.254   1.180   4.475  0.0717 -0.9826  0.2078
 9939TIP3   OH251231   3.148   4.508  16.690 -0.2079  0.4594  0.0801
 9939TIP3    H151232   3.131   4.594  16.651  1.9299  0.3303 -1.3087
 9939TIP3    H251233   3.241   4.511  16.713 -0.4103 -1.0455  1.2022
 9940TIP3   OH251234   1.806   5.989  12.577  0.0813 -0.4039  0.0802
 9940TIP3    H151235   1.818   5.894  12.578  0.8446 -0.3383 -0.8187
 9940TIP3    H251236   1.826   6.015  12.487  0.0118  0.6210  0.3426
 9941TIP3   OH251237   1.552   0.501   0.082 -1.0584 -0.7419 -0.3334
 9941TIP3    H151238   1.556   0.438   0.154 -1.0206 -0.2572  0.0951
 9941TIP3    H251239   1.459   0.502   0.057 -1.0382 -1.0574 -0.4237
 9942TIP3   OH251240   4.774   4.021   0.468  0.2277 -0.3161 -0.9094
 9942TIP3    H151241   4.748   3.982   0.551  0.8623 -0.1762 -0.6373
 9942TIP3    H251242   4.840   3.962   0.433  2.2668  1.1772  0.1979
 9943TIP3   OH251243   5.229   0.656  16.510  0.3284  0.5387  0.5323
 9943TIP3    H151244   5.225   0.728  16.447  1.2125  1.2702  1.2866
 9943TIP3    H251245   5.316   0.662  16.548  0.4433 -0.9811  0.5769
 9944TIP3   OH251246   0.882   3.670  11.814 -0.1743 -0.1988  0.2044
 9944TIP3    H151247   0.974   3.643  11.818  0.1788  0.9869  0.6479
 9944TIP3    H251248   0.839   3.618  11.882  0.1615 -0.7590 -0.0043
 9945TIP3   OH251249   3.498   6.634  12.818 -0.4196  0.0231 -0.1190
 9945TIP3    H151250   3.592   6.652  12.821 -0.3509 -0.4834  1.4845
 9945TIP3    H251251   3.486   6.588  12.735  0.8179 -0.2944 -0.1497
 9946TIP3   OH251252   2.814   5.412   3.484 -0.1148  0.4417  0.2746
 9946TIP3    H151253   2.842   5.502   3.501 -1.3534  1.2640 -1.6888
 9946TIP3    H251254   2.719   5.418   3.473 -0.5527 -1.5322  2.3786
 9947TIP3   OH251255   5.102   5.637  12.019  0.0195 -0.2005 -0.0715
 9947TIP3    H151256   5.020   5.588  12.010 -0.0573  0.2084 -2.0805
 9947TIP3    H251257   5.088   5.716  11.966  1.0797  0.7667  1.0242
 9948TIP3   OH251258   1.914   1.970  14.545 -0.0268  0.6818 -0.3802
 9948TIP3    H151259   1.906   1.890  14.492  0.1842 -0.4558  1.2138
 9948TIP3    H251260   2.008   1.977  14.563 -0.0630  1.2136 -0.3895
 9949TIP3   OH251261   1.402   0.184  10.662  0.9824 -0.4094  0.1775
 9949TIP3    H151262   1.395   0.276  10.635 -2.9650 -0.9160 -1.0678
 9949TIP3    H251263   1.438   0.140  10.585  1.5822 -0.1282  0.2883
 9950TIP3   OH251264   0.800   3.649   0.587 -0.4075 -0.8559 -0.5492
 9950TIP3    H151265   0.791   3.582   0.656  0.3972  0.2483  0.6649
 9950TIP3    H251266   0.711   3.680   0.574 -0.8118 -2.1968 -1.1882
 9951TIP3   OH251267   2.588   2.410  16.692  0.3467 -0.2319 -0.6674
 9951TIP3    H151268   2.512   2.383  16.744  1.3680 -1.3684  0.2912
 9951TIP3    H251269   2.586   2.505  16.695 -0.5142 -0.2613  0.1367
 9952TIP3   OH251270   0.381   0.087  13.021  0.0866  0.2879  0.3520
 9952TIP3    H151271   0.318   0.155  13.045 -1.3278 -0.6085 -0.6969
 9952TIP3    H251272   0.328   0.016  12.986  1.4698 -1.5791  1.8056
 9953TIP3   OH251273   6.042   1.309   0.429  0.0217 -0.2995  0.6768
 9953TIP3    H151274   6.050   1.265   0.513 -1.5456  0.2637  1.1529
 9953TIP3    H251275   6.131   1.336   0.407  0.4296 -0.3063  2.2405
 9954TIP3   OH251276   3.605   0.338  14.381  0.0514  0.0483  0.1439
 9954TIP3    H151277   3.632   0.395  14.309 -1.0286 -0.0067 -0.3098
 9954TIP3    H251278   3.684   0.328  14.434  0.6922  0.5910 -0.6921
 9955TIP3   OH251279   0.111   1.312   2.448 -0.3064  0.1725  0.6652
 9955TIP3    H151280   0.115   1.282   2.357  2.2060  0.4519  0.6056
 9955TIP3    H251281   0.086   1.404   2.442  0.0202  0.2382  0.2103
 9956TIP3   OH251282   5.161   5.867  13.072 -0.5170  0.3006  0.2874
 9956TIP3    H151283   5.232   5.892  13.014 -1.0253 -1.4439 -1.1921
 9956TIP3    H251284   5.083   5.869  13.016 -1.2259 -0.1976  1.2287
 9957TIP3   OH251285   3.992   0.727   2.063  0.3598 -0.2401 -0.5615
 9957TIP3    H151286   3.942   0.780   2.000  0.5666 -0.1407 -0.6420
 9957TIP3    H251287   4.061   0.786   2.094 -0.7144  0.2687  1.0061
 9958TIP3   OH251288   3.445   2.553   2.891  0.3781  0.4276  0.2682
 9958TIP3    H151289   3.426   2.581   2.801  1.5893  2.3404  0.5433
 9958TIP3    H251290   3.430   2.631   2.944 -0.4841 -0.7169  1.7895
 9959TIP3   OH251291   5.724   4.236  11.985  0.1519  0.2995  0.3752
 9959TIP3    H151292   5.644   4.256  11.936  0.7845  0.2425 -0.7390
 9959TIP3    H251293   5.746   4.317  12.030  0.3092  0.8167 -0.5955
 9960TIP3   OH251294   1.620   2.147   1.099 -0.3076 -0.7378  0.2382
 9960TIP3    H151295   1.647   2.057   1.080 -0.0443 -0.6021 -0.0484
 9960TIP3    H251296   1.545   2.162   1.041 -0.9961 -1.1069  1.0177
 9961TIP3   OH251297   0.439   2.929  13.290 -0.0900 -0.5095 -0.1539
 9961TIP3    H151298   0.506   2.936  13.357 -2.1298 -0.0439  1.9563
 9961TIP3    H251299   0.413   2.837  13.290  0.6934 -0.7470 -1.1639
 9962TIP3   OH251300   5.544   6.460  15.088  0.1452 -0.1488  0.4718
 9962TIP3    H151301   5.562   6.385  15.032  0.3358 -0.2511  0.6695
 9962TIP3    H251302   5.474   6.507  15.043  0.1364 -0.3567  0.2659
 9963TIP3   OH251303   2.258   4.140   5.200 -0.0643 -0.2940 -0.2978
 9963TIP3    H151304   2.339   4.092   5.218  0.0129 -0.4808 -1.0992
 9963TIP3    H251305   2.286   4.213   5.145 -0.5045 -0.6181 -0.9577
 9964TIP3   OH251306   1.238   5.909   1.218 -0.6001  0.4128 -0.1337
 9964TIP3    H151307   1.244   5.901   1.314  0.3852 -0.5065 -0.2524
 9964TIP3    H251308   1.181   5.837   1.191 -0.5399  0.4205 -0.2807
 9965TIP3   OH251309   0.990   1.588  15.598 -0.1951 -0.4162 -0.2933
 9965TIP3    H151310   0.966   1.668  15.552 -1.1499 -0.6405 -0.1995
 9965TIP3    H251311   0.926   1.523  15.570 -0.3781 -0.7382  0.8045
 9966TIP3   OH251312   4.418   0.753  15.995 -0.1777 -0.4586  0.1918
 9966TIP3    H151313   4.387   0.680  15.941  0.0040 -0.4016  0.0098
 9966TIP3    H251314   4.405   0.723  16.085  1.2586 -1.3179  0.1413
 9967TIP3   OH251315   4.537   4.304  13.955  0.2246  0.1241  0.0013
 9967TIP3    H151316   4.564   4.268  13.871 -1.4273  0.0538 -0.5162
 9967TIP3    H251317   4.465   4.248  13.984  0.0785  0.7863  0.9592
 9968TIP3   OH251318   1.459   2.522   2.863 -0.0372  0.1176 -0.3629
 9968TIP3    H151319   1.520   2.452   2.838  1.1045  0.8101  0.3563
 9968TIP3    H251320   1.507   2.571   2.930 -0.7409  1.6981 -0.9822
 9969TIP3   OH251321   5.230   3.462   5.289  0.2972 -0.3497  0.0423
 9969TIP3    H151322   5.236   3.401   5.363  1.2810 -2.3292 -1.5692
 9969TIP3    H251323   5.164   3.424   5.232 -1.6473  2.0346  0.5752
 9970TIP3   OH251324   4.636   1.903   3.484 -0.2408 -0.0671  0.4902
 9970TIP3    H151325   4.589   1.894   3.401 -1.6315  3.0502  0.7652
 9970TIP3    H251326   4.721   1.862   3.469 -0.7242 -0.2384 -2.2294
 9971TIP3   OH251327   0.660   6.674  15.278 -0.1314 -0.3641 -0.4027
 9971TIP3    H151328   0.686   6.675  15.186 -2.4865  1.5225 -1.1681
 9971TIP3    H251329   0.721   6.734  15.321 -0.7974  1.0749 -1.3808
 9972TIP3   OH251330   6.436   4.027   4.373 -0.1203  0.0933  0.8593
 9972TIP3    H151331   6.437   4.109   4.423  1.2576  0.6487 -0.0272
 9972TIP3    H251332   6.526   4.016   4.343 -0.8995 -0.2017 -1.5257
 9973TIP3   OH251333   3.728   1.430  11.924 -0.0822 -0.1588 -0.0963
 9973TIP3    H151334   3.704   1.338  11.925 -1.6090  0.1997 -1.0163
 9973TIP3    H251335   3.820   1.431  11.897 -0.4621 -1.3294 -1.5091
 9974TIP3   OH251336   2.440   0.689   2.789 -0.6235  0.4210  0.1774
 9974TIP3    H151337   2.468   0.623   2.853  2.1776 -0.8839 -2.1477
 9974TIP3    H251338   2.446   0.772   2.835  0.3248 -0.5406  1.8819
 9975TIP3   OH251339   0.324   4.723   1.594  0.3725 -0.1133  0.1351
 9975TIP3    H151340   0.377   4.795   1.560 -0.6419  0.0938 -1.0665
 9975TIP3    H251341   0.254   4.766   1.644 -0.9930 -0.1224 -1.6438
 9976TIP3   OH251342   1.164   5.355   4.383  0.1370 -0.5160  0.3886
 9976TIP3    H151343   1.138   5.263   4.388 -0.8386 -0.2610  0.2904
 9976TIP3    H251344   1.086   5.403   4.410  0.2032  0.3260 -0.8437
 9977TIP3   OH251345   5.015   5.331   3.650 -0.0453  0.2022  0.1064
 9977TIP3    H151346   5.110   5.335   3.666 -0.1389 -0.0905  0.7780
 9977TIP3    H251347   4.989   5.422   3.639  0.1546  0.3652  0.9263
 9978TIP3   OH251348   5.351   2.022   3.643 -0.2338  0.2324  0.4021
 9978TIP3    H151349   5.343   1.940   3.691 -0.2225 -0.3540 -0.5730
 9978TIP3    H251350   5.428   2.011   3.588 -0.4167  0.7695  0.0281
 9979TIP3   OH251351   4.257   3.651   5.175 -0.0894 -0.0300 -0.3141
 9979TIP3    H151352   4.281   3.740   5.201  2.6957 -0.2463 -1.8549
 9979TIP3    H251353   4.331   3.597   5.203 -0.7980 -1.5389 -1.2312
 9980TIP3   OH251354   1.390   5.710  16.565 -0.1717 -0.0319 -0.4044
 9980TIP3    H151355   1.333   5.782  16.595 -0.0641  0.6104 -1.6598
 9980TIP3    H251356   1.455   5.753  16.510  0.1063 -1.0687 -0.9042
 9981TIP3   OH251357   4.069   2.678  15.280 -0.0357 -0.4526  0.3501
 9981TIP3    H151358   4.116   2.635  15.351 -0.7453  0.3756  1.3425
 9981TIP3    H251359   4.136   2.697  15.215  0.7630 -0.5066  1.1414
 9982TIP3   OH251360   0.200   4.286   0.282 -0.0353 -0.2445 -0.2405
 9982TIP3    H151361   0.209   4.378   0.259  1.1560 -0.3041 -0.0830
 9982TIP3    H251362   0.288   4.259   0.310 -1.0705 -0.4567  3.3072
 9983TIP3   OH251363   3.733   0.461  15.746  0.5334 -0.0650  0.1531
 9983TIP3    H151364   3.816   0.455  15.698  1.4254  3.7462  0.8337
 9983TIP3    H251365   3.682   0.525  15.696 -1.8530 -1.9047  0.0691
 9984TIP3   OH251366   0.409   2.513  11.933  0.7948  0.1461 -0.3770
 9984TIP3    H151367   0.491   2.554  11.962  1.0721 -0.2478 -0.5953
 9984TIP3    H251368   0.356   2.586  11.902  0.3236  0.6395  1.4696
 9985TIP3   OH251369   2.186   2.030  14.579  0.0721 -0.0285 -0.9720
 9985TIP3    H151370   2.239   2.102  14.546 -0.6017  0.9698  0.0513
 9985TIP3    H251371   2.145   2.065  14.658 -1.5175 -1.0073 -1.3219
 9986TIP3   OH251372   3.877   3.844   3.486  0.2682 -0.7572 -0.6021
 9986TIP3    H151373   3.879   3.912   3.419 -0.9984 -0.8140 -0.7346
 9986TIP3    H251374   3.843   3.887   3.563 -0.7067 -1.2559 -0.7337
 9987TIP3   OH251375   2.355   4.109   5.715 -0.0916  0.4297 -0.6126
 9987TIP3    H151376   2.327   4.187   5.668 -0.2461  0.1386 -1.0147
 9987TIP3    H251377   2.370   4.044   5.646 -0.4866 -0.0551 -0.2511
 9988TIP3   OH251378   6.598   2.967  15.552 -0.8729  0.3607 -0.0358
 9988TIP3    H151379   6.575   3.028  15.483 -1.2052  1.0410  0.6635
 9988TIP3    H251380   6.610   3.021  15.630  0.6777 -0.2470  0.1872
 9989TIP3   OH251381   4.530   2.822  16.230 -0.6973  0.1920 -0.6209
 9989TIP3    H151382   4.499   2.899  16.278 -1.1232  0.7144 -1.7078
 9989TIP3    H251383   4.612   2.798  16.274 -1.2429  0.4329  0.5794
 9990TIP3   OH251384   5.291   5.634   4.689  0.1444 -0.1851 -0.1142
 9990TIP3    H151385   5.373   5.585   4.692 -0.8803 -1.9660  0.2953
 9990TIP3    H251386   5.280   5.657   4.597  0.9788 -0.1155 -0.2064
 9991TIP3   OH251387   6.691   0.186   2.993 -0.1946 -0.4396 -0.1797
 9991TIP3    H151388   6.687   0.168   2.899  0.7948 -1.8635  0.0338
 9991TIP3    H251389   6.725   0.276   2.998 -0.5921 -0.2178 -1.1789
 9992TIP3   OH251390   1.471   3.310   5.451  0.1308  1.1169 -0.1263
 9992TIP3    H151391   1.406   3.360   5.500  0.5585  0.3886  1.2325
 9992TIP3    H251392   1.555   3.353   5.471  0.4313  0.2153  0.6124
 9993TIP3   OH251393   2.879   5.471  15.818 -0.2242 -0.2071 -0.3666
 9993TIP3    H151394   2.963   5.483  15.775  0.7333 -2.1109  0.7939
 9993TIP3    H251395   2.901   5.428  15.901 -2.2824 -0.0021  0.3446
 9994TIP3   OH251396   1.145   5.278  13.142  0.0450  0.1547  0.2017
 9994TIP3    H151397   1.182   5.285  13.054 -0.1534  0.4262  0.1396
 9994TIP3    H251398   1.078   5.347  13.146 -0.8776 -0.7146  0.1000
 9995TIP3   OH251399   1.838   6.245   4.568  0.0239  0.1442  0.2109
 9995TIP3    H151400   1.804   6.155   4.571  2.1597 -0.7779 -1.0362
 9995TIP3    H251401   1.891   6.253   4.647  0.2034  0.1447  0.0904
 9996TIP3   OH251402   6.241   4.712  12.333  0.3387 -0.0280 -0.3427
 9996TIP3    H151403   6.217   4.802  12.352  1.2705  0.4217 -1.1995
 9996TIP3    H251404   6.216   4.699  12.241  0.7513 -0.4493 -0.3990
 9997TIP3   OH251405   6.268   3.207  16.669 -0.4472  0.2319 -0.3407
 9997TIP3    H151406   6.213   3.279  16.639  0.6000  1.2806  0.1482
 9997TIP3    H251407   6.341   3.251  16.714  0.6334 -1.1103 -0.7349
 9998TIP3   OH251408   3.366   3.559   3.933  0.0919 -0.8313 -0.2976
 9998TIP3    H151409   3.425   3.627   3.899  0.3397 -0.6547  0.4687
 9998TIP3    H251410   3.338   3.592   4.018 -0.2346 -1.4386 -0.1641
 9999TIP3   OH251411   2.252   6.619   0.422  0.8079  0.3395 -0.0232
 9999TIP3    H151412   2.317   6.683   0.394  1.6820  0.3030  1.7561
 9999TIP3    H251413   2.285   6.535   0.390  0.3556  0.5861 -1.1928
10000TIP3   OH251414   6.725   2.536  16.823  0.6162 -0.2819 -0.5844
10000TIP3    H151415   6.655   2.507  16.881 -0.3609 -0.3593 -1.7689
10000TIP3    H251416   6.681   2.588  16.756  1.8179  0.4721 -0.8252
10001TIP3   OH251417   4.882   5.694  10.467  0.0539 -0.4522  0.1619
10001TIP3    H151418   4.886   5.680  10.562 -0.0495 -0.7336  0.1273
10001TIP3    H251419   4.803   5.746  10.454  0.6522  0.5295  0.3305
10002TIP3   OH251420   4.380   1.075  11.933 -0.1387 -0.0878  0.0066
10002TIP3    H151421   4.322   1.127  11.989 -0.5493  0.5808 -1.0081
10002TIP3    H251422   4.354   1.098  11.844  2.1579  0.7642 -0.5023
10003TIP3   OH251423   1.074   4.324  15.478  0.4533 -0.3394  0.5149
10003TIP3    H151424   1.026   4.394  15.435  0.3911  0.0094  1.1316
10003TIP3    H251425   1.080   4.352  15.570  1.4701 -0.5665  0.5342
10004TIP3   OH251426   5.238   5.040  15.799 -0.3683  0.1812 -0.2810
10004TIP3    H151427   5.205   4.950  15.792  0.5930 -0.1377 -0.8920
10004TIP3    H251428   5.225   5.063  15.891 -0.8177 -0.5031 -0.1633
10005TIP3   OH251429   6.274   4.804  11.575 -0.6649  0.2581 -0.3046
10005TIP3    H151430   6.322   4.791  11.657  0.2853 -0.9081 -1.0132
10005TIP3    H251431   6.315   4.881  11.535 -0.7563  0.4910  0.0424
10006TIP3   OH251432   1.420   4.820   6.649 -0.1658  0.5404 -0.0845
10006TIP3    H151433   1.362   4.752   6.615 -0.3943  0.3826  0.5894
10006TIP3    H251434   1.508   4.787   6.633 -0.2667  0.5250 -0.6130
10007TIP3   OH251435   5.306   0.231  12.986  0.1226  0.1431  0.3778
10007TIP3    H151436   5.361   0.299  12.946  0.7701 -0.1200  0.8028
10007TIP3    H251437   5.352   0.208  13.066 -0.5097 -0.2369  0.6353
10008TIP3   OH251438   4.136   4.258  11.717  0.7403 -0.0496  0.4118
10008TIP3    H151439   4.147   4.187  11.653  1.1624 -0.0913  0.5263
10008TIP3    H251440   4.058   4.305  11.687  0.5135 -0.4998  0.2792
10009TIP3   OH251441   4.229   1.675  13.694  0.1346  0.5573  0.1218
10009TIP3    H151442   4.239   1.643  13.784 -1.3728  1.8270  0.7774
10009TIP3    H251443   4.319   1.687  13.663  0.6797 -0.3785  1.2660
10010TIP3   OH251444   3.033   2.644   2.611  0.3256  0.0497 -0.6037
10010TIP3    H151445   3.113   2.636   2.558 -0.3456  0.6061 -1.7249
10010TIP3    H251446   2.962   2.630   2.549 -0.5034  1.2674  0.0411
10011TIP3   OH251447   2.749   3.850  15.922  0.2103 -0.5671 -0.0531
10011TIP3    H151448   2.739   3.801  16.003 -0.4875  2.0683  1.5642
10011TIP3    H251449   2.659   3.875  15.898  0.6737  1.6865  0.3871
10012TIP3   OH251450   4.442   6.224  12.813  0.2976 -0.1508  0.1095
10012TIP3    H151451   4.416   6.304  12.859  1.2734  0.3606 -0.2060
10012TIP3    H251452   4.500   6.179  12.875 -0.3561 -0.6864  0.3397
10013TIP3   OH251453   2.899   3.794   4.205 -0.0826 -0.0452  0.0929
10013TIP3    H151454   2.975   3.835   4.164  0.8758 -0.8258  1.0247
10013TIP3    H251455   2.934   3.753   4.284 -1.5820  0.0415  0.8304
10014TIP3   OH251456   4.382   4.528   2.440 -0.3464  0.2975 -0.2239
10014TIP3    H151457   4.305   4.499   2.391 -0.5661  1.1574 -0.3949
10014TIP3    H251458   4.376   4.623   2.439 -1.3580  0.3900  3.0003
10015TIP3   OH251459   1.649   4.367   2.573  0.6361  0.6807  0.3455
10015TIP3    H151460   1.567   4.380   2.620  0.8534  1.0909  0.6157
10015TIP3    H251461   1.641   4.421   2.495  0.2711 -0.0089 -0.1044
10016TIP3   OH251462   4.306   4.324   2.863 -0.7889 -0.3999  0.4045
10016TIP3    H151463   4.320   4.232   2.887 -0.1377 -0.1406  1.0490
10016TIP3    H251464   4.381   4.346   2.808 -0.4244  0.0182  1.0544
10017TIP3   OH251465   6.264   2.624  17.023  0.4333 -0.0062  0.0979
10017TIP3    H151466   6.204   2.553  17.048 -2.3322  1.6247 -1.3475
10017TIP3    H251467   6.291   2.663  17.106 -0.5983 -0.7427  0.8102
10018TIP3   OH251468   6.293   4.799  16.050 -0.0829  0.0364 -0.3828
10018TIP3    H151469   6.378   4.761  16.027 -0.6968 -2.1183  0.6088
10018TIP3    H251470   6.259   4.834  15.968  1.9900  1.5059 -0.6852
10019TIP3   OH251471   1.930   4.417   2.766 -0.4934 -0.0364  0.1729
10019TIP3    H151472   1.841   4.424   2.730 -0.4897  0.3444  0.2380
10019TIP3    H251473   1.940   4.495   2.821  0.7155  1.1987 -1.6856
10020TIP3   OH251474   5.842   3.766  14.761 -0.5384 -0.1006  0.3451
10020TIP3    H151475   5.882   3.752  14.846  1.0979 -2.2564 -0.7000
10020TIP3    H251476   5.774   3.699  14.754 -1.2354  0.5898  0.2380
10021TIP3   OH251477   2.699   2.008   0.812 -0.2182  0.0199  0.5841
10021TIP3    H151478   2.683   1.978   0.901  1.0687 -0.2932  0.7250
10021TIP3    H251479   2.771   1.954   0.780 -0.3333  0.4545 -0.4818
10022TIP3   OH251480   2.367   6.344   0.686 -0.3178  0.2653 -0.3434
10022TIP3    H151481   2.302   6.414   0.693  1.2379  1.7063  1.0247
10022TIP3    H251482   2.451   6.390   0.699  0.8855 -1.6498 -1.0063
10023TIP3   OH251483   1.318   0.203   0.911 -0.8544 -0.2632 -0.0411
10023TIP3    H151484   1.275   0.225   0.828 -1.8108  0.3639  0.6026
10023TIP3    H251485   1.300   0.110   0.923 -0.3558 -0.4627 -0.7232
10024TIP3   OH251486   4.697   0.934   5.810  0.5629 -0.1735  0.0575
10024TIP3    H151487   4.702   0.857   5.867 -3.8414 -1.9056 -1.5280
10024TIP3    H251488   4.642   0.996   5.858  0.7024  0.3012 -0.3867
10025TIP3   OH251489   0.550   2.894  11.447 -0.1171  0.3416 -0.3962
10025TIP3    H151490   0.481   2.903  11.512  0.4111  0.0237  0.2277
10025TIP3    H251491   0.565   2.982  11.413  0.0830  0.6252  0.4239
10026TIP3   OH251492   1.027   2.439  14.665  0.3969 -0.7839  0.3773
10026TIP3    H151493   1.074   2.522  14.676 -0.7895  0.4851 -2.8291
10026TIP3    H251494   1.072   2.395  14.593 -0.4904 -1.7522  0.3893
10027TIP3   OH251495   4.179   4.570  10.641 -0.4027  0.2891  0.1594
10027TIP3    H151496   4.212   4.656  10.669  2.0120  0.4078 -2.5140
10027TIP3    H251497   4.256   4.513  10.645 -1.1804 -0.9029 -1.0928
10028TIP3   OH251498   5.168   2.023   4.651  1.0093 -0.5931 -0.1656
10028TIP3    H151499   5.224   2.098   4.632 -0.6339  0.7657  0.0891
10028TIP3    H251500   5.080   2.053   4.630  0.2016 -2.1764  0.7590
10029TIP3   OH251501   2.780   2.307   1.280  0.0238 -0.1453  0.1779
10029TIP3    H151502   2.826   2.334   1.359 -2.0872 -0.4253  1.5923
10029TIP3    H251503   2.846   2.308   1.211  1.8858  0.3014  1.9042
10030TIP3   OH251504   3.841   3.221  12.850  0.4396 -0.1513 -0.1482
10030TIP3    H151505   3.901   3.165  12.800 -0.7732 -0.3792 -1.4277
10030TIP3    H251506   3.851   3.308  12.810 -0.5979 -0.3528 -0.8861
10031TIP3   OH251507   0.787   5.315   3.101  0.0755  0.0027  0.0530
10031TIP3    H151508   0.840   5.275   3.032  1.8002 -0.0912  1.3605
10031TIP3    H251509   0.847   5.377   3.144 -0.8795 -0.0905  1.5800
10032TIP3   OH251510   3.906   6.720  17.008 -0.2877  0.3728  1.1964
10032TIP3    H151511   3.819   6.681  17.011 -0.9335  1.3084 -1.8380
10032TIP3    H251512   3.965   6.644  17.008 -1.0253 -0.2720  3.2436
10033TIP3   OH251513   1.995   5.140  11.625  0.5441  0.2402  0.1374
10033TIP3    H151514   1.963   5.194  11.552  1.1603  0.9331  0.3679
10033TIP3    H251515   2.042   5.201  11.681  1.6009 -0.6180  0.2083
10034TIP3   OH251516   5.318   1.996   2.512 -0.0933  0.1097 -0.2710
10034TIP3    H151517   5.377   1.967   2.582 -0.1235  1.6098  0.4296
10034TIP3    H251518   5.339   1.940   2.438  2.8774  1.1363 -0.3547
10035TIP3   OH251519   5.984   5.460   0.479  0.0940  0.5054 -0.4176
10035TIP3    H151520   5.979   5.462   0.383  0.1907  1.2603 -0.4124
10035TIP3    H251521   6.018   5.546   0.503  0.8275  0.0405  0.2599
10036TIP3   OH251522   4.011   5.482   3.207  0.1686  0.4479  0.8571
10036TIP3    H151523   4.082   5.434   3.165 -0.3439  0.4776 -0.0657
10036TIP3    H251524   3.977   5.538   3.138  1.2246  2.7202  2.0816
10037TIP3   OH251525   5.378   4.358  13.235  0.1387 -0.0799  0.6699
10037TIP3    H151526   5.470   4.334  13.237  0.1912 -0.0455 -0.5344
10037TIP3    H251527   5.332   4.275  13.219  0.1096  0.1479 -0.5444
10038TIP3   OH251528   3.278   1.931  12.330 -0.1616 -0.1479  1.1953
10038TIP3    H151529   3.369   1.946  12.355  0.4859  0.3500 -1.1798
10038TIP3    H251530   3.227   1.978  12.396  1.2784 -0.5739  2.6557
10039TIP3   OH251531   5.485   4.596  16.417 -0.1819 -0.2761 -0.1164
10039TIP3    H151532   5.530   4.600  16.501 -3.1483 -0.1482  1.6301
10039TIP3    H251533   5.466   4.503  16.404  0.7555 -0.3643 -0.9819
10040TIP3   OH251534   0.309   3.005   2.000  0.0061 -0.0254 -0.1758
10040TIP3    H151535   0.352   2.989   1.915 -0.2488 -1.5141 -0.0621
10040TIP3    H251536   0.257   3.083   1.986 -1.0420 -0.9456 -1.8250
10041TIP3   OH251537   4.674   3.643  13.491  0.3608 -0.1957 -0.3542
10041TIP3    H151538   4.723   3.725  13.485 -1.8783  1.2787  0.2942
10041TIP3    H251539   4.690   3.611  13.579  0.0251  0.3869 -0.0762
10042TIP3   OH251540   3.666   3.109   0.526  0.5371  0.1137  0.0651
10042TIP3    H151541   3.584   3.060   0.534  0.1711  0.7772  0.4703
10042TIP3    H251542   3.696   3.091   0.437 -0.7061  0.8763 -0.5408
10043TIP3   OH251543   5.653   5.366  12.003  0.4140  0.5282 -0.0299
10043TIP3    H151544   5.637   5.366  11.909  0.8088 -1.3754 -0.1395
10043TIP3    H251545   5.709   5.289  12.018 -1.3947 -0.4949  2.0046
10044TIP3   OH251546   2.068   3.310  12.007  0.6584  0.2414 -0.3051
10044TIP3    H151547   2.099   3.235  12.059  3.1093  1.5874  0.3224
10044TIP3    H251548   2.119   3.306  11.927  0.8487  1.2658 -0.2430
10045TIP3   OH251549   3.081   3.448  14.949  0.2094 -0.4185  0.1889
10045TIP3    H151550   3.096   3.539  14.975  2.5203 -0.8367  0.5201
10045TIP3    H251551   3.081   3.451  14.853  3.6611 -0.4107  0.0577
10046TIP3   OH251552   5.798   1.352   1.941  0.0409 -0.0876  0.4951
10046TIP3    H151553   5.800   1.330   1.848  0.7690 -0.6645  0.6342
10046TIP3    H251554   5.878   1.404   1.955 -0.5928  0.8822  0.5976
10047TIP3   OH251555   3.156   6.612  10.418 -0.2797  0.2175 -0.1443
10047TIP3    H151556   3.151   6.551  10.491  0.8261  0.0645 -0.1795
10047TIP3    H251557   3.249   6.635  10.411 -0.6943  2.1220  0.0251
10048TIP3   OH251558   0.380   4.446   4.425 -0.5098 -0.0647  0.5182
10048TIP3    H151559   0.449   4.509   4.444 -0.6932  0.7507 -1.3578
10048TIP3    H251560   0.331   4.438   4.507  2.7207 -1.9664  2.4964
10049TIP3   OH251561   3.606   1.976   0.599 -0.0580  0.9616  0.6093
10049TIP3    H151562   3.660   1.978   0.678 -1.1110 -0.6232  1.4279
10049TIP3    H251563   3.525   2.019   0.625 -0.6682 -0.1714  0.6312
10050TIP3   OH251564   4.010   4.537   5.806  0.3543 -0.4115  0.6137
10050TIP3    H151565   4.074   4.585   5.754  1.4371 -0.7208  1.6097
10050TIP3    H251566   3.926   4.568   5.775  0.9828  0.0877 -0.6640
10051TIP3   OH251567   1.300   0.339  16.870 -0.4399  0.0363  0.2433
10051TIP3    H151568   1.393   0.352  16.853  0.0234 -0.8670  1.7989
10051TIP3    H251569   1.258   0.343  16.784  0.7084  2.6684 -0.2860
10052TIP3   OH251570   2.484   3.558  10.512 -0.8805  0.1140  0.0129
10052TIP3    H151571   2.539   3.633  10.490  0.5764 -0.3850  1.6936
10052TIP3    H251572   2.425   3.590  10.580 -1.5300  0.1908 -0.5712
10053TIP3   OH251573   6.596   4.177  16.827 -0.5476 -0.0752 -0.1456
10053TIP3    H151574   6.561   4.255  16.783 -0.7609 -0.5729 -0.8890
10053TIP3    H251575   6.660   4.142  16.765 -0.9142 -0.8407 -0.0992
10054TIP3   OH251576   2.881   0.671   0.602 -0.4261 -0.0184 -0.0729
10054TIP3    H151577   2.834   0.623   0.670 -3.1011 -1.6029 -2.7869
10054TIP3    H251578   2.853   0.762   0.612 -2.3106 -0.5496 -0.1627
10055TIP3   OH251579   0.500   2.840   1.057  0.1515 -0.3435  0.1195
10055TIP3    H151580   0.502   2.799   1.144  2.3938  1.6956  1.1662
10055TIP3    H251581   0.410   2.870   1.046  0.0243  0.2104  2.2322
10056TIP3   OH251582   6.101   6.099  14.176 -0.3083 -0.5831 -0.3695
10056TIP3    H151583   6.110   6.064  14.265  3.0105  0.3963 -0.2029
10056TIP3    H251584   6.030   6.163  14.184 -0.5881 -1.0319  1.3800
10057TIP3   OH251585   3.269   4.882   5.635  0.8089 -0.5069  0.6814
10057TIP3    H151586   3.361   4.857   5.624  1.0051 -0.0469  1.1998
10057TIP3    H251587   3.227   4.857   5.553  1.4438 -0.5213  0.3561
10058TIP3   OH251588   0.446   3.762   5.016  0.2567  0.2629 -0.1974
10058TIP3    H151589   0.468   3.721   4.933  0.7550 -1.4796  0.7473
10058TIP3    H251590   0.481   3.851   5.009 -0.6137  0.4857 -2.2023
10059TIP3   OH251591   3.797   0.346  14.557  0.6951  0.0231  0.0865
10059TIP3    H151592   3.767   0.363  14.647 -0.0442 -0.1747 -0.1118
10059TIP3    H251593   3.865   0.411  14.541  0.7163  0.1662  0.7342
10060TIP3   OH251594   0.471   4.734   0.721  0.7184  0.0435  0.1227
10060TIP3    H151595   0.472   4.830   0.731  1.1791  0.2007 -1.1824
10060TIP3    H251596   0.552   4.715   0.673  1.7852 -1.2577  2.2834
10061TIP3   OH251597   0.556   2.053   1.486 -0.3582  0.3923 -0.0698
10061TIP3    H151598   0.609   2.130   1.506  0.3748 -0.5930  2.0053
10061TIP3    H251599   0.564   1.997   1.563 -1.5769 -1.3884 -1.1617
10062TIP3   OH251600   4.520   1.335  13.240 -1.0236 -0.2958  0.0151
10062TIP3    H151601   4.471   1.417  13.242 -0.2329  0.1910 -0.0155
10062TIP3    H251602   4.551   1.324  13.330 -0.3028 -0.0418 -0.1966
10063TIP3   OH251603   5.229   4.092   0.171 -0.2214  0.2059  0.3244
10063TIP3    H151604   5.317   4.130   0.171 -0.7916  1.6034  0.7647
10063TIP3    H251605   5.199   4.100   0.081  0.1506 -0.4152  0.1399
10064TIP3   OH251606   6.642   1.505  12.039  0.2762  0.0826 -0.2088
10064TIP3    H151607   6.650   1.461  11.955 -0.3014  0.4395 -0.4642
10064TIP3    H251608   6.581   1.578  12.022  0.7858  0.6478  0.3197
10065TIP3   OH251609   6.638   4.863  13.097 -0.5159 -0.2362  0.0003
10065TIP3    H151610   6.569   4.805  13.129  0.9410 -2.7188 -1.1313
10065TIP3    H251611   6.596   4.914  13.028 -1.1639 -2.0585 -1.0162
10066TIP3   OH251612   2.090   3.767   1.731 -0.7134 -0.6272  0.9132
10066TIP3    H151613   2.064   3.685   1.688  0.5217 -0.5702  0.0022
10066TIP3    H251614   2.174   3.747   1.772 -1.2023 -0.2719  2.1273
10067TIP3   OH251615   5.576   1.980   3.514 -0.2829  0.6083  0.0563
10067TIP3    H151616   5.548   1.902   3.465 -1.7523  1.2512 -0.1583
10067TIP3    H251617   5.653   1.950   3.563 -1.4543 -1.3147  0.8503
10068TIP3   OH251618   2.368   4.687   5.315 -0.1053 -0.1348 -0.5337
10068TIP3    H151619   2.355   4.735   5.396 -0.3708 -1.0493 -0.0172
10068TIP3    H251620   2.281   4.677   5.278 -0.3241 -1.8646  0.3505
10069TIP3   OH251621   2.138   6.641  13.864 -0.3250  0.4032  0.0609
10069TIP3    H151622   2.222   6.597  13.855 -0.5441  0.2768 -1.6943
10069TIP3    H251623   2.134   6.666  13.957  0.4886 -1.8334  0.7698
10070TIP3   OH251624   2.568   4.870   0.558 -0.4784 -0.0491  0.0322
10070TIP3    H151625   2.480   4.907   0.566  0.0446  1.3135 -0.2180
10070TIP3    H251626   2.601   4.903   0.474 -0.9515 -3.3129 -1.5920
10071TIP3   OH251627   2.119   5.004  16.130  0.0643  0.5382 -0.1407
10071TIP3    H151628   2.110   5.097  16.151  2.7417  0.8272  0.0392
10071TIP3    H251629   2.149   5.003  16.039  0.0915 -0.1551 -0.1264
10072TIP3   OH251630   3.605   1.860   1.059  0.3769  0.3513 -0.4780
10072TIP3    H151631   3.606   1.774   1.018  1.3069  0.2028 -0.1622
10072TIP3    H251632   3.661   1.850   1.136  0.6328  1.2840 -0.5365
10073TIP3   OH251633   2.380   2.961  13.965  0.2361  0.1510  0.1832
10073TIP3    H151634   2.439   2.954  13.889  1.4580 -1.0379  1.1977
10073TIP3    H251635   2.372   3.055  13.980  0.4683  0.3913 -1.0258
10074TIP3   OH251636   2.723   3.614   3.787  0.4354  0.2682  0.3108
10074TIP3    H151637   2.662   3.548   3.753  0.1361  0.8087 -0.2332
10074TIP3    H251638   2.717   3.606   3.882 -1.6314  1.2832  0.3316
10075TIP3   OH251639   4.653   5.311   1.418 -0.9364 -0.7436  0.5091
10075TIP3    H151640   4.594   5.339   1.487 -2.2314 -0.0767 -0.8188
10075TIP3    H251641   4.622   5.356   1.339  0.6404 -1.2698 -0.4744
10076TIP3   OH251642   4.672   6.367  10.944  0.0252  0.3502  0.3210
10076TIP3    H151643   4.652   6.454  10.909 -2.4168 -0.5333 -0.6699
10076TIP3    H251644   4.714   6.385  11.029 -0.3032  2.4827  0.1022
10077TIP3   OH251645   0.998   1.289   5.021  0.5345 -0.2768  0.0954
10077TIP3    H151646   1.009   1.195   5.038  0.7298 -0.5317 -1.3183
10077TIP3    H251647   0.992   1.328   5.108  1.1025 -1.5228  0.7288
10078TIP3   OH251648   5.755   2.836   4.799  0.2936  0.4726 -0.1544
10078TIP3    H151649   5.755   2.741   4.814 -1.0115  0.4393 -0.2690
10078TIP3    H251650   5.663   2.858   4.785  0.3760  2.0109  1.4214
10079TIP3   OH251651   6.036   5.466  14.131 -0.6176 -0.0826  0.3616
10079TIP3    H151652   6.061   5.558  14.139 -1.5029  0.5138 -2.6659
10079TIP3    H251653   6.003   5.443  14.218 -0.5932  2.5232  1.1416
10080TIP3   OH251654   3.812   3.459   5.760  0.3406  0.2387 -1.1416
10080TIP3    H151655   3.847   3.374   5.733  0.1159 -0.3536  0.3173
10080TIP3    H251656   3.790   3.503   5.678 -1.3481 -1.8800 -1.9219
10081TIP3   OH251657   2.801   5.927   5.143  0.1949  0.0273 -0.3168
10081TIP3    H151658   2.847   5.859   5.192 -0.2854 -1.0141 -1.2738
10081TIP3    H251659   2.858   5.945   5.068  0.3683  0.7682 -0.0169
10082TIP3   OH251660   6.169   4.800  15.772  0.6114 -0.2453 -0.5670
10082TIP3    H151661   6.087   4.799  15.820 -0.0845 -0.4663 -1.7293
10082TIP3    H251662   6.159   4.732  15.705  2.4314 -1.5177  0.3648
10083TIP3   OH251663   2.378   6.609  16.801 -0.2601 -0.2390  0.3142
10083TIP3    H151664   2.356   6.658  16.723  2.0030 -0.5571 -0.6106
10083TIP3    H251665   2.340   6.522  16.787  0.3881 -0.3895 -0.6052
10084TIP3   OH251666   4.110   0.355  16.692  0.6828 -0.2769  0.0243
10084TIP3    H151667   4.141   0.390  16.776  2.3510  0.9197 -1.0258
10084TIP3    H251668   4.094   0.432  16.638 -0.6598 -1.0261 -0.6894
10085TIP3   OH251669   6.076   2.469  16.142 -0.4744 -0.3199  0.4761
10085TIP3    H151670   6.052   2.561  16.154 -1.6702 -0.7108  1.2628
10085TIP3    H251671   6.162   2.462  16.184  1.2321  1.1300 -2.4832
10086TIP3   OH251672   6.050   3.642  14.339  0.2191  0.8071  0.6650
10086TIP3    H151673   5.967   3.689  14.331 -1.9046 -2.8099 -1.7305
10086TIP3    H251674   6.067   3.638  14.433 -2.0182  2.1873  1.1901
10087TIP3   OH251675   2.743   2.855   1.333  0.3534 -0.4572  0.3947
10087TIP3    H151676   2.652   2.836   1.356  0.5961 -0.0316  1.7747
10087TIP3    H251677   2.762   2.796   1.260  0.0915 -3.2690  2.4359
10088TIP3   OH251678   2.011   3.273  13.712  0.1585 -0.0312  0.4406
10088TIP3    H151679   2.060   3.279  13.793  2.8615 -0.5981 -1.0084
10088TIP3    H251680   1.984   3.181  13.708  0.3499 -0.0932  0.5399
10089TIP3   OH251681   0.218   4.084   4.090  0.3565 -0.2348 -0.4225
10089TIP3    H151682   0.197   4.010   4.148  1.0788 -0.2095 -0.1090
10089TIP3    H251683   0.276   4.139   4.143 -0.0420  0.4711 -0.7176
10090TIP3   OH251684   6.338   3.825   4.527 -0.1269 -0.5386 -0.4512
10090TIP3    H151685   6.362   3.896   4.468 -1.6995 -0.3763 -0.9403
10090TIP3    H251686   6.318   3.752   4.470 -2.0201 -0.2701 -0.1851
10091TIP3   OH251687   2.798   2.020   6.579  0.3276  0.3585 -1.0397
10091TIP3    H151688   2.810   1.926   6.576 -0.2374  0.2847 -1.0768
10091TIP3    H251689   2.858   2.055   6.513  0.1902 -0.0057 -1.3532
10092TIP3   OH251690   1.788   2.036   3.482 -0.4442 -0.4164 -0.2096
10092TIP3    H151691   1.860   2.052   3.543  0.9693  0.5333 -2.0436
10092TIP3    H251692   1.799   1.945   3.454  0.0530 -0.2762 -0.4791
10093TIP3   OH251693   0.747   2.249   5.819 -0.7144  0.0330 -0.0384
10093TIP3    H151694   0.721   2.224   5.730  1.3028  0.5875 -0.8372
10093TIP3    H251695   0.730   2.343   5.823  0.5496  0.2957 -0.3844
10094TIP3   OH251696   4.496   0.310   1.777  0.2115  0.1874  0.1440
10094TIP3    H151697   4.540   0.234   1.740 -0.0673 -0.0104  0.2140
10094TIP3    H251698   4.411   0.313   1.732  1.0113  1.6842 -1.4126
10095TIP3   OH251699   1.292   6.100   2.348  0.2477  0.3444  0.0171
10095TIP3    H151700   1.287   6.195   2.361  0.4744  0.6813 -1.9622
10095TIP3    H251701   1.382   6.077   2.371  1.4158  1.3261 -3.0499
10096TIP3   OH251702   0.401   0.003   5.365  0.1692  0.2137  0.4603
10096TIP3    H151703   0.405   0.061   5.290 -0.3431  0.4706  0.6271
10096TIP3    H251704   0.356  -0.076   5.333 -0.4442  0.4975  0.5996
10097TIP3   OH251705   3.867   6.741  14.090 -0.2467  0.2210  0.6746
10097TIP3    H151706   3.925   6.806  14.050  1.6522 -0.6878  1.7716
10097TIP3    H251707   3.785   6.786  14.104 -0.4783  1.0724 -2.6376
10098TIP3   OH251708   4.277   0.110   3.927  0.2498 -0.0134  0.3411
10098TIP3    H151709   4.192   0.131   3.966  0.2679  0.3630  0.1790
10098TIP3    H251710   4.291   0.018   3.950 -0.7529 -0.4318 -0.6105
10099TIP3   OH251711   0.054   1.004  13.514 -0.2388 -0.0419  0.0616
10099TIP3    H151712   0.125   1.047  13.562  0.5458  0.1966 -1.2445
10099TIP3    H251713  -0.008   0.975  13.581  1.3717 -0.7629  1.3043
10100TIP3   OH251714   3.664   5.891   0.850 -0.3096  0.8075  0.1258
10100TIP3    H151715   3.606   5.968   0.851 -0.2515  0.8501  0.9556
10100TIP3    H251716   3.690   5.880   0.941 -1.1180 -0.8159  0.1858
10101TIP3   OH251717   5.665   3.617   0.662  0.0169 -0.1433 -0.3195
10101TIP3    H151718   5.649   3.665   0.743 -1.0822 -1.8064  0.5062
10101TIP3    H251719   5.739   3.561   0.682 -0.6380 -0.9978 -0.2473
10102TIP3   OH251720   6.252   5.406   0.873 -0.4184  0.0890 -0.3148
10102TIP3    H151721   6.246   5.455   0.954 -1.5585  3.1817 -2.1062
10102TIP3    H251722   6.163   5.372   0.859 -0.4499  0.3016 -0.6556
10103TIP3   OH251723   3.914   2.759  12.926  0.7814 -0.0826 -0.2678
10103TIP3    H151724   3.830   2.796  12.901  0.9729 -0.8769 -2.2484
10103TIP3    H251725   3.898   2.665  12.931  2.1945 -0.7150 -4.1257
10104TIP3   OH251726   0.435   2.867  14.989 -0.1288  0.5013  0.6738
10104TIP3    H151727   0.491   2.859  15.066 -0.1751  0.4646  0.7037
10104TIP3    H251728   0.375   2.793  14.995  1.3697 -0.8839 -0.6214
10105TIP3   OH251729   4.213   1.546   1.219 -0.1933  0.0060 -0.4764
10105TIP3    H151730   4.274   1.502   1.160  0.8955  0.7842  0.0546
10105TIP3    H251731   4.132   1.553   1.167 -0.2941 -2.2199 -0.7088
10106TIP3   OH251732   4.069   5.998   3.542  0.1033 -0.4067  0.0760
10106TIP3    H151733   4.075   5.917   3.492  1.0022 -1.2561  1.5196
10106TIP3    H251734   4.070   5.971   3.633 -0.4469  1.1842  0.5882
10107TIP3   OH251735   2.676   6.010  13.431 -0.8641  0.2000 -0.0411
10107TIP3    H151736   2.770   6.013  13.415 -0.6595 -0.5991  0.8997
10107TIP3    H251737   2.665   6.046  13.519 -1.5323  1.0412 -0.4626
10108TIP3   OH251738   0.960   1.940  15.999  0.4469  0.0270  0.8237
10108TIP3    H151739   0.921   1.874  16.056  1.0230 -2.0612 -1.0378
10108TIP3    H251740   0.972   1.895  15.915  4.0165  1.4426  0.3956
10109TIP3   OH251741   0.515   0.867  12.235 -0.3704  0.1162  0.1670
10109TIP3    H151742   0.541   0.938  12.293  0.7312 -0.3779  0.3035
10109TIP3    H251743   0.425   0.887  12.211  0.5446  2.7165 -1.5431
10110TIP3   OH251744   2.160   0.565  11.548 -0.0258 -0.2319 -0.4842
10110TIP3    H151745   2.217   0.591  11.620 -1.0795  1.8169 -0.3035
10110TIP3    H251746   2.165   0.638  11.485 -1.6088 -0.4614 -0.9397
10111TIP3   OH251747   0.942   5.124  13.817 -0.0069  0.5225 -0.3728
10111TIP3    H151748   1.003   5.197  13.826 -1.3685  1.6244  0.4416
10111TIP3    H251749   0.937   5.108  13.723  0.0726  1.7168 -0.5950
10112TIP3   OH251750   5.551   3.329   0.421  0.0327  0.4426 -0.0272
10112TIP3    H151751   5.480   3.283   0.467 -0.8288 -0.4978 -2.1609
10112TIP3    H251752   5.519   3.338   0.331  2.8039 -0.4296 -1.2049
10113TIP3   OH251753   5.608   6.670   1.152  0.0076  0.4149  0.2127
10113TIP3    H151754   5.583   6.708   1.068 -0.1889 -0.1704  0.0055
10113TIP3    H251755   5.606   6.744   1.213 -3.0668  0.3122  0.4060
10114TIP3   OH251756   1.166   1.839  17.137  0.0225  0.3857 -0.3032
10114TIP3    H151757   1.154   1.768  17.073  0.1026 -0.1281  0.2388
10114TIP3    H251758   1.091   1.896  17.124  0.6833  1.0032 -1.7412
10115TIP3   OH251759   2.768   4.580  16.093  0.0622 -0.0159  0.5239
10115TIP3    H151760   2.832   4.535  16.039 -0.9321  0.1741 -0.8719
10115TIP3    H251761   2.784   4.548  16.181  0.2435 -2.0876 -0.2130
10116TIP3   OH251762   2.736   1.390   3.842 -0.2895  0.4786  0.8156
10116TIP3    H151763   2.788   1.334   3.785 -0.2818  1.6940 -0.4373
10116TIP3    H251764   2.708   1.333   3.914 -4.1884 -2.5129 -2.5666
10117TIP3   OH251765   0.555   3.960  15.907 -0.0157  0.3755 -0.1676
10117TIP3    H151766   0.602   4.041  15.925 -0.1519 -0.0004  2.1263
10117TIP3    H251767   0.608   3.892  15.950 -2.0816 -0.1801  1.6472
10118TIP3   OH251768   0.421   1.955  11.579 -0.2249  0.0373  0.6042
10118TIP3    H151769   0.372   1.964  11.661 -1.5011  0.7796 -0.2039
10118TIP3    H251770   0.354   1.941  11.512  0.6731  0.8181 -0.5029
10119TIP3   OH251771   5.915   0.436  10.849  0.3976 -0.0992 -0.0219
10119TIP3    H151772   5.979   0.396  10.908  0.3614  1.0272  0.8196
10119TIP3    H251773   5.942   0.528  10.844 -1.8219  0.6834  1.3084
10120TIP3   OH251774   4.260   4.646   1.813 -0.0588  0.3394  0.0775
10120TIP3    H151775   4.241   4.739   1.808  0.2235  0.4603  1.1049
10120TIP3    H251776   4.323   4.631   1.742 -0.2681  0.8749 -0.2315
10121TIP3   OH251777   3.313   4.108  12.045  0.0753 -0.0181 -0.2592
10121TIP3    H151778   3.330   4.031  12.100  0.5137  0.2047 -0.0746
10121TIP3    H251779   3.382   4.170  12.070  0.9489 -0.3107 -1.8398
10122TIP3   OH251780   1.773   4.752  11.125 -0.1520 -0.1031 -0.1198
10122TIP3    H151781   1.700   4.744  11.064 -0.9464 -0.5210  0.8675
10122TIP3    H251782   1.850   4.731  11.073 -0.8784 -1.0510 -0.8310
10123TIP3   OH251783   4.754   6.235   5.604 -0.3718  0.0930 -0.4103
10123TIP3    H151784   4.844   6.212   5.628  0.3548  1.8356 -1.3308
10123TIP3    H251785   4.711   6.251   5.688 -0.6842 -3.3653  0.2569
10124TIP3   OH251786   1.736   2.756  12.917  0.0548 -0.4508 -0.2047
10124TIP3    H151787   1.768   2.732  12.830  0.3582  1.8986 -0.7911
10124TIP3    H251788   1.810   2.799  12.959 -0.1877 -1.2828  1.1486
10125TIP3   OH251789   4.453   3.751  13.170 -0.1836 -0.2941 -0.7667
10125TIP3    H151790   4.421   3.757  13.080 -0.7649  0.8388 -0.4964
10125TIP3    H251791   4.545   3.725  13.161  0.1744  1.1772 -1.7653
10126TIP3   OH251792   4.441   1.709   5.561 -0.5571  0.7049  0.2394
10126TIP3    H151793   4.427   1.723   5.655 -2.3515  1.3585 -0.0967
10126TIP3    H251794   4.368   1.653   5.534  0.3700 -0.1119 -0.6412
10127TIP3   OH251795   0.458   4.913   4.154 -0.2876  0.3706 -0.0033
10127TIP3    H151796   0.471   4.995   4.203 -1.4224 -0.2309  1.3895
10127TIP3    H251797   0.406   4.938   4.078 -0.8361  0.9205  0.5392
10128TIP3   OH251798   2.970   1.390  15.092  0.2900 -0.5349 -0.0866
10128TIP3    H151799   2.983   1.465  15.151  0.8125  0.3800 -1.3243
10128TIP3    H251800   3.047   1.336  15.105  0.9280  0.2086 -0.6846
10129TIP3   OH251801   5.829   3.041  11.947  0.5741 -0.0388 -0.0380
10129TIP3    H151802   5.784   3.032  11.863  0.3341 -2.4662  0.2952
10129TIP3    H251803   5.915   3.076  11.924  0.5526 -0.7750 -1.3292
10130TIP3   OH251804   5.945   5.477   2.844  0.0692  0.3598 -0.7239
10130TIP3    H151805   5.862   5.478   2.797 -0.4138  1.9170  0.0633
10130TIP3    H251806   6.010   5.450   2.779 -1.1742 -2.0975 -1.0507
10131TIP3   OH251807   4.330   4.367  10.961  0.0159 -0.6545 -0.0572
10131TIP3    H151808   4.322   4.280  10.999 -0.1064 -0.9214 -0.6744
10131TIP3    H251809   4.351   4.351  10.869  0.7947 -0.0180  0.0011
10132TIP3   OH251810   3.784   3.202  15.960 -0.4531 -0.7000  0.1543
10132TIP3    H151811   3.778   3.296  15.942  0.4467 -0.9666 -1.8612
10132TIP3    H251812   3.876   3.188  15.983 -0.2546 -1.2442 -0.8867
10133TIP3   OH251813   1.381   3.872  14.556 -0.2665  0.3647 -0.9180
10133TIP3    H151814   1.287   3.864  14.572  0.1145 -1.3243  0.8833
10133TIP3    H251815   1.410   3.782  14.539  1.0378  0.8409 -1.3126
10134TIP3   OH251816   2.408   6.236   4.815 -0.2273 -0.2091 -0.5538
10134TIP3    H151817   2.379   6.260   4.903 -2.1098  0.7086 -1.3768
10134TIP3    H251818   2.384   6.144   4.805 -1.8207  0.2165 -0.7900
10135TIP3   OH251819   1.048   4.528  11.400  0.2569  0.0211 -0.1197
10135TIP3    H151820   1.006   4.443  11.385  1.2446 -0.3992 -0.5941
10135TIP3    H251821   0.982   4.579  11.447 -0.1945 -1.1560  0.5888
10136TIP3   OH251822   6.251   5.698   5.312 -0.3947 -0.0930 -0.0113
10136TIP3    H151823   6.220   5.773   5.262 -2.8189  0.4680  2.1346
10136TIP3    H251824   6.199   5.624   5.281  2.2689 -1.1413 -2.4141
10137TIP3   OH251825   4.105   2.225  13.860 -0.5745  0.0983 -0.2415
10137TIP3    H151826   4.162   2.166  13.810 -1.5380 -1.3973  0.3260
10137TIP3    H251827   4.131   2.212  13.951 -0.6431  0.7489 -0.1242
10138TIP3   OH251828   4.574   3.392  15.488  0.2418 -0.5231 -0.4968
10138TIP3    H151829   4.586   3.424  15.578  1.3421 -0.3934 -0.6733
10138TIP3    H251830   4.484   3.360  15.486 -0.2156  0.6299  0.2992
10139TIP3   OH251831   5.333   3.861  15.123  0.0918  0.2021 -0.1842
10139TIP3    H151832   5.337   3.821  15.210  0.0865 -0.8291 -0.6402
10139TIP3    H251833   5.270   3.807  15.076 -1.8034  2.2098 -0.1108
10140TIP3   OH251834   5.652   0.594   2.897  0.0805 -0.0237  0.1814
10140TIP3    H151835   5.684   0.508   2.871 -1.2938 -0.4255 -0.2554
10140TIP3    H251836   5.563   0.598   2.863  0.1192  1.5762  0.1976
10141TIP3   OH251837   1.558   1.376   2.139 -0.4081 -0.6832 -0.1779
10141TIP3    H151838   1.585   1.320   2.212  1.3077  0.6503  0.2744
10141TIP3    H251839   1.623   1.446   2.137 -2.5120  1.3893 -0.6579
10142TIP3   OH251840   2.198   1.292  10.972  0.3897 -0.1947  0.1592
10142TIP3    H151841   2.236   1.225  11.029 -1.5674 -0.0274  1.7455
10142TIP3    H251842   2.258   1.296  10.897  1.9469 -1.8615  1.2359
10143TIP3   OH251843   2.411   1.425   1.313 -0.3796 -0.5282  0.3368
10143TIP3    H151844   2.428   1.382   1.229  1.0907  1.4540 -0.4627
10143TIP3    H251845   2.329   1.472   1.298 -0.3023 -0.4565  0.1269
10144TIP3   OH251846   2.657   0.303   2.517 -0.5422 -0.1163  0.5413
10144TIP3    H151847   2.704   0.378   2.481 -1.5034 -1.1172 -3.2136
10144TIP3    H251848   2.726   0.246   2.551  0.5555  0.5786 -0.4365
10145TIP3   OH251849   3.142   0.608   5.453  0.0742  0.6024  0.0560
10145TIP3    H151850   3.154   0.532   5.510 -0.7743  1.7138  1.8216
10145TIP3    H251851   3.130   0.682   5.513 -1.8550  1.7048 -1.5383
10146TIP3   OH251852   3.338   5.158   1.632 -0.5489 -0.3131  0.1334
10146TIP3    H151853   3.355   5.243   1.592  1.0192  0.8566  3.0016
10146TIP3    H251854   3.250   5.166   1.670 -2.3544 -1.6692 -3.2980
10147TIP3   OH251855   5.659   5.584   1.373  0.5551  0.0116  0.5152
10147TIP3    H151856   5.581   5.568   1.320  1.6806 -1.4225 -0.8250
10147TIP3    H251857   5.627   5.585   1.463 -1.0206 -0.5347 -0.0029
10148TIP3   OH251858   4.242   2.525   3.007 -0.6244  0.6043  0.1090
10148TIP3    H151859   4.247   2.620   3.013 -3.1746  0.7205  2.3952
10148TIP3    H251860   4.186   2.509   2.932 -1.3112  1.0030  0.5231
10149TIP3   OH251861   2.387   6.170  12.977 -0.0637 -0.2869  0.0598
10149TIP3    H151862   2.359   6.224  13.051 -0.5012  0.9439 -0.9624
10149TIP3    H251863   2.308   6.159  12.925  0.6926  0.8471 -1.4065
10150TIP3   OH251864   0.930   1.030  15.505  0.3922  0.0704 -0.2785
10150TIP3    H151865   0.998   1.015  15.571  0.8767  1.5766 -0.4129
10150TIP3    H251866   0.978   1.035  15.422  0.0840  0.7520 -0.4217
10151TIP3   OH251867   2.940   2.065  13.538  0.0036 -0.7681 -0.2888
10151TIP3    H151868   2.881   1.995  13.509  1.2516 -1.7824 -0.4938
10151TIP3    H251869   2.949   2.051  13.632  0.5448 -1.1225 -0.3907
10152TIP3   OH251870   5.075   3.673  12.391  0.1623 -0.1044 -0.1121
10152TIP3    H151871   5.043   3.636  12.308 -1.3423  0.8744 -0.0091
10152TIP3    H251872   5.072   3.767  12.378 -0.7662  0.0905  1.2767
10153TIP3   OH251873   4.080   0.154  11.154 -0.3795 -0.1171 -0.4207
10153TIP3    H151874   4.167   0.193  11.143 -0.1473 -0.6838 -0.6501
10153TIP3    H251875   4.068   0.101  11.075  0.0675 -1.9270  0.6742
10154TIP3   OH251876   2.352   3.662   2.605  0.2338  0.3038  0.1405
10154TIP3    H151877   2.356   3.653   2.700  0.3940 -2.2730 -0.0415
10154TIP3    H251878   2.415   3.597   2.573 -0.7817  0.1972 -1.7403
10155TIP3   OH251879   2.612   1.215   5.113 -0.2360 -0.4882 -0.5493
10155TIP3    H151880   2.593   1.161   5.190 -1.6627 -0.3602 -0.7739
10155TIP3    H251881   2.557   1.293   5.125  0.6238  0.1943 -0.9919
10156TIP3   OH251882   6.774   0.176  12.556 -0.1433 -0.2696 -0.0745
10156TIP3    H151883   6.863   0.200  12.528 -0.7230  0.8585 -1.0343
10156TIP3    H251884   6.770   0.204  12.648 -0.1202  1.5415 -0.5807
10157TIP3   OH251885   3.683   1.197   3.589 -0.3247  0.7134  0.1330
10157TIP3    H151886   3.777   1.198   3.573 -0.4511  0.8935 -0.6747
10157TIP3    H251887   3.645   1.228   3.506 -1.0648  1.1833  0.6375
10158TIP3   OH251888   0.983   1.000   4.328 -0.1314 -0.1264 -0.0268
10158TIP3    H151889   0.913   1.006   4.262 -2.7164  0.2015  2.5421
10158TIP3    H251890   0.995   1.090   4.358 -0.1929 -0.4871  1.1040
10159TIP3   OH251891   4.307   2.944  14.777  0.0980 -0.2114  0.0370
10159TIP3    H151892   4.323   3.036  14.759  1.2282 -0.6379 -1.2748
10159TIP3    H251893   4.222   2.926  14.736 -2.2844  1.1598  3.8338
10160TIP3   OH251894   1.821   3.802   0.315  0.2935 -0.1157  0.5357
10160TIP3    H151895   1.794   3.801   0.407  0.8087  0.7746  0.7012
10160TIP3    H251896   1.880   3.877   0.307  0.1949 -0.1314 -0.5423
10161TIP3   OH251897   2.908   0.643   4.374  0.2094  0.3338  0.3942
10161TIP3    H151898   2.891   0.556   4.337  1.4343 -0.3416  1.3408
10161TIP3    H251899   2.986   0.674   4.328  0.9312  0.0745  1.4170
10162TIP3   OH251900   0.451   5.136   4.332  0.1696  0.0041  0.3013
10162TIP3    H151901   0.462   5.205   4.267  0.0952 -1.5114 -1.3904
10162TIP3    H251902   0.434   5.183   4.414  0.3699  1.9754 -0.7248
10163TIP3   OH251903   3.071   2.258   5.701 -0.0380 -0.1532 -0.2932
10163TIP3    H151904   3.060   2.205   5.622  0.7653 -1.6310  0.5305
10163TIP3    H251905   2.983   2.268   5.736 -0.0769 -2.4268  0.4046
10164TIP3   OH251906   4.083   5.487   1.410 -0.2217 -0.6902  0.0116
10164TIP3    H151907   4.175   5.468   1.391 -0.3596 -0.9364 -0.4379
10164TIP3    H251908   4.078   5.490   1.505  0.0517 -1.7093  0.0773
10165TIP3   OH251909   0.772   5.472  13.411 -0.6279  0.4066 -0.2666
10165TIP3    H151910   0.700   5.452  13.351 -2.2041  0.0335  1.6263
10165TIP3    H251911   0.733   5.530  13.477 -0.3286 -2.6514  2.9056
10166TIP3   OH251912   1.202   1.515   2.630 -0.0277 -0.0994 -0.1977
10166TIP3    H151913   1.169   1.576   2.695  1.0316 -0.4383  0.6776
10166TIP3    H251914   1.185   1.558   2.546 -1.0018  0.5368  0.3104
10167TIP3   OH251915   2.133   4.045  12.860  0.4232 -0.3482  0.2551
10167TIP3    H151916   2.165   4.029  12.949  1.8978 -2.5480 -0.5873
10167TIP3    H251917   2.038   4.053  12.871  0.7506  2.0338  2.2914
10168TIP3   OH251918   3.656   0.686   3.148 -0.2450  0.1801 -0.0400
10168TIP3    H151919   3.565   0.657   3.140  0.6234 -2.2138 -4.0601
10168TIP3    H251920   3.659   0.770   3.103 -0.4415  0.3195  0.2014
10169TIP3   OH251921   0.012   4.512   0.946  0.0205 -0.2067  0.6408
10169TIP3    H151922   0.034   4.441   1.006  0.6083  0.4805  1.2664
10169TIP3    H251923   0.055   4.589   0.984  1.2468  0.0674 -1.2019
10170TIP3   OH251924   3.736   1.044  14.682  0.3623  0.1064  0.3919
10170TIP3    H151925   3.830   1.037  14.699  0.1999 -2.4561  0.5987
10170TIP3    H251926   3.723   0.994  14.602 -0.8403  0.4407  0.3682
10171TIP3   OH251927   1.489   0.680   1.843  0.0478  0.5174  0.2444
10171TIP3    H151928   1.408   0.690   1.893 -1.2734  0.2136 -1.7266
10171TIP3    H251929   1.470   0.611   1.780  1.8516  0.4363 -0.2599
10172TIP3   OH251930   2.792   4.203   4.189  0.1271 -0.5439  0.1978
10172TIP3    H151931   2.826   4.189   4.277  0.4015 -0.5174  0.0955
10172TIP3    H251932   2.846   4.273   4.153 -0.0231 -0.5134  0.0293
10173TIP3   OH251933   6.761   4.567  12.311 -0.1879 -0.4186 -0.3447
10173TIP3    H151934   6.804   4.630  12.254  0.0706 -1.3863 -1.2354
10173TIP3    H251935   6.710   4.621  12.372 -0.6892  0.6322 -1.6470
10174TIP3   OH251936   0.432   2.470  15.267 -0.3725  0.1437  0.4551
10174TIP3    H151937   0.428   2.562  15.242  0.4961  0.1306  0.2467
10174TIP3    H251938   0.500   2.466  15.334  0.0825 -0.4510 -0.0302
10175TIP3   OH251939   5.001   1.263  13.930  0.1101 -0.1352 -0.5645
10175TIP3    H151940   4.974   1.216  14.009 -2.0664  0.7697 -0.7041
10175TIP3    H251941   5.094   1.284  13.945  0.0017 -0.8344  1.3086
10176TIP3   OH251942   2.419   3.628   3.804  0.1843  0.3364 -0.1480
10176TIP3    H151943   2.383   3.666   3.724  0.4623 -1.6885 -1.3031
10176TIP3    H251944   2.502   3.674   3.818  2.0770 -1.7621 -3.2727
10177TIP3   OH251945   1.239   6.736  13.075  0.5091 -0.3778  0.0604
10177TIP3    H151946   1.175   6.673  13.043  1.6332 -1.2827 -0.4614
10177TIP3    H251947   1.318   6.719  13.024  1.1590  0.7601  0.6326
10178TIP3   OH251948   2.780   5.629   3.022 -0.3351 -0.7787 -0.4600
10178TIP3    H151949   2.775   5.613   2.928  0.5756  0.2783 -0.7145
10178TIP3    H251950   2.698   5.593   3.057 -0.0582 -2.4966 -1.4371
10179TIP3   OH251951   4.272   6.558  15.879  0.1068  0.0581  0.4176
10179TIP3    H151952   4.189   6.596  15.906  0.4229 -1.8398  4.9872
10179TIP3    H251953   4.247   6.491  15.814 -1.7103  0.5925  0.4959
10180TIP3   OH251954   4.607   3.086  11.531 -0.4639 -0.1347 -0.1875
10180TIP3    H151955   4.646   3.087  11.618  0.7678 -1.0139 -0.6858
10180TIP3    H251956   4.647   3.010  11.488 -0.9845  0.3149 -1.5290
10181TIP3   OH251957   1.741   1.288  11.916  0.3905 -0.4591 -0.3132
10181TIP3    H151958   1.748   1.351  11.988 -0.8399 -0.5655 -0.0846
10181TIP3    H251959   1.806   1.318  11.852  2.0160 -0.7850  1.1146
10182TIP3   OH251960   3.445   1.511   3.927  1.0030  0.5055  0.1296
10182TIP3    H151961   3.474   1.419   3.928 -0.6216 -0.0547 -0.6918
10182TIP3    H251962   3.465   1.542   3.839 -0.9820  0.0165 -0.5598
10183TIP3   OH251963   1.856   4.151  13.730  0.5765 -0.3096  0.0971
10183TIP3    H151964   1.835   4.134  13.822  2.1339 -1.6704  0.2417
10183TIP3    H251965   1.869   4.064  13.693  0.4757  0.2550 -1.3039
10184TIP3   OH251966   0.540   5.470   5.315  0.2530  0.5075  0.2203
10184TIP3    H151967   0.569   5.549   5.361  1.6437  0.9952 -1.4061
10184TIP3    H251968   0.474   5.432   5.373 -0.8737  3.1547  0.8194
10185TIP3   OH251969   5.210   3.186  12.173 -0.9539 -0.1889 -0.2070
10185TIP3    H151970   5.128   3.160  12.215 -0.9461 -1.6163 -1.0150
10185TIP3    H251971   5.198   3.165  12.081  0.3499 -0.5200 -0.3249
10186TIP3   OH251972   1.959   4.202   0.940  0.0602 -0.1886  0.0810
10186TIP3    H151973   2.015   4.125   0.932 -0.0392 -0.0473 -3.5386
10186TIP3    H251974   2.016   4.275   0.917 -1.1918  0.0506 -2.6989
10187TIP3   OH251975   3.046   2.425   5.232 -0.3186  0.4757 -0.7440
10187TIP3    H151976   2.967   2.445   5.182 -1.7568 -1.5648  0.5482
10187TIP3    H251977   3.022   2.445   5.323  1.0412  0.8412 -0.4454
10188TIP3   OH251978   2.364   1.840  14.711  0.3435 -0.3459 -0.4528
10188TIP3    H151979   2.352   1.829  14.805  0.9767 -1.9501 -0.5251
10188TIP3    H251980   2.284   1.883  14.682 -0.0237 -0.1707  0.7656
10189TIP3   OH251981   6.774   3.207   3.031  0.7335  0.1525  0.0351
10189TIP3    H151982   6.774   3.293   2.988 -0.8529  0.0783 -0.1872
10189TIP3    H251983   6.716   3.219   3.107 -0.7156 -1.0817 -0.8304
10190TIP3   OH251984   1.505   0.406   0.539  0.1168 -0.1711  0.3264
10190TIP3    H151985   1.422   0.452   0.546  0.4507  0.4307  0.4155
10190TIP3    H251986   1.564   0.469   0.498  0.7448 -0.3002  1.0088
10191TIP3   OH251987   4.557   3.161   1.192  0.4012 -0.0059 -0.4512
10191TIP3    H151988   4.492   3.138   1.258  0.3820  2.9959  0.7460
10191TIP3    H251989   4.518   3.135   1.108 -1.4782 -0.0609  0.3986
10192TIP3   OH251990   2.885   2.888   5.956  0.3299  0.0447 -0.6390
10192TIP3    H151991   2.803   2.877   6.003  1.2735 -1.5822  0.7698
10192TIP3    H251992   2.859   2.913   5.868 -1.5524  1.9909  0.3877
10193TIP3   OH251993   1.130   6.660  14.463 -0.1295 -0.4574  0.2125
10193TIP3    H151994   1.220   6.693  14.470 -0.0876 -0.4682 -0.2308
10193TIP3    H251995   1.140   6.565  14.450 -0.1518 -0.3236 -0.9450
10194TIP3   OH251996   4.439   0.945  14.660  0.1743  0.2931  0.4887
10194TIP3    H151997   4.385   0.964  14.736 -1.4530  1.5150 -0.8969
10194TIP3    H251998   4.462   0.852  14.669 -0.0708  0.3859  2.3793
10195TIP3   OH251999   5.524   2.862   1.738  0.1862  0.3871 -0.2556
10195TIP3    H152000   5.529   2.937   1.679  0.6136  0.2648 -0.3759
10195TIP3    H252001   5.518   2.786   1.680 -0.5893  0.3522 -0.1302
10196TIP3   OH252002   0.884   5.206  16.748  0.1618 -0.2920 -0.0913
10196TIP3    H152003   0.907   5.114  16.753 -0.0165 -0.3817 -0.8621
10196TIP3    H252004   0.848   5.218  16.660  0.4005  0.5587 -0.0856
10197TIP3   OH252005   5.338   2.474   3.868 -0.1879 -0.2350  0.1148
10197TIP3    H152006   5.353   2.405   3.804 -0.6179 -0.3246  0.1047
10197TIP3    H252007   5.410   2.536   3.855 -0.0064 -0.4959 -0.1248
10198TIP3   OH252008   1.492   2.612  12.914  0.3315 -0.3200 -0.1953
10198TIP3    H152009   1.529   2.676  12.854 -0.7609  0.9550  0.4193
10198TIP3    H252010   1.566   2.580  12.965  0.9540  0.1846 -0.7814
10199TIP3   OH252011   4.641   5.602   5.891  0.0888 -0.3382 -0.2990
10199TIP3    H152012   4.710   5.550   5.849  1.6110  1.4877 -0.1640
10199TIP3    H252013   4.630   5.678   5.834 -1.2399 -0.1973  0.1183
10200TIP3   OH252014   1.395   4.519  15.433  0.2898  0.3319  0.0712
10200TIP3    H152015   1.376   4.504  15.525  1.2309  2.1738  0.5882
10200TIP3    H252016   1.437   4.438  15.403  1.6631  0.3939  1.7346
10201TIP3   OH252017   6.586   1.300   2.791 -0.2696 -0.4641 -0.4128
10201TIP3    H152018   6.578   1.270   2.882 -0.8797  1.9477  0.4126
10201TIP3    H252019   6.639   1.233   2.748 -0.7587 -2.1622  1.4630
10202TIP3   OH252020   4.037   5.798  11.730 -0.1181  0.4398  0.7424
10202TIP3    H152021   4.079   5.830  11.651  0.5126 -2.3927 -0.1823
10202TIP3    H252022   4.088   5.721  11.755 -1.9953 -0.3963  2.2823
10203TIP3   OH252023   6.052   3.159   1.400  0.3238  0.1226 -0.8884
10203TIP3    H152024   6.048   3.254   1.391  0.9884  0.1192 -1.3019
10203TIP3    H252025   6.038   3.143   1.493  1.7450  0.7417 -0.5306
10204TIP3   OH252026   3.581   3.361  15.322 -0.3126  0.4427 -0.0627
10204TIP3    H152027   3.621   3.421  15.260  0.2502  2.7335  2.3501
10204TIP3    H252028   3.634   3.281  15.316  1.0376  1.3714 -0.9607
10205TIP3   OH252029   3.653   0.100  12.913 -0.2053 -0.2807  0.3671
10205TIP3    H152030   3.739   0.099  12.954  0.2201  1.4482 -0.4126
10205TIP3    H252031   3.592   0.100  12.987  0.4624 -0.6848  0.9335
10206TIP3   OH252032   0.013   1.606  11.321  0.5631 -0.0433  0.4985
10206TIP3    H152033   0.092   1.634  11.276  2.0587 -1.0923  2.3228
10206TIP3    H252034   0.010   1.659  11.401 -1.0481  0.5435  0.0968
10207TIP3   OH252035   2.362   5.961   4.651  0.3814 -0.3347  0.3304
10207TIP3    H152036   2.365   5.922   4.739  0.9580 -2.9522 -0.7674
10207TIP3    H252037   2.439   5.926   4.606 -1.9974 -2.4139 -2.4770
10208TIP3   OH252038   4.324   6.487  16.585 -0.1735 -0.0068  0.2687
10208TIP3    H152039   4.381   6.410  16.595  0.2059  0.2665  0.2199
10208TIP3    H252040   4.382   6.557  16.555 -0.7787 -0.0558 -1.0893
10209TIP3   OH252041   3.850   0.767   5.054 -0.3769  0.3677  0.2163
10209TIP3    H152042   3.829   0.703   4.986  0.9966 -1.7392  1.6598
10209TIP3    H252043   3.931   0.808   5.025  0.7101 -1.1900  0.9639
10210TIP3   OH252044   0.274   4.976   2.637 -0.5510 -1.0980 -0.1016
10210TIP3    H152045   0.332   4.904   2.662  0.3773 -0.0315  0.9877
10210TIP3    H252046   0.302   5.001   2.549  1.1599 -0.1676  0.6536
10211TIP3   OH252047   4.004   4.475  15.492  0.2567  0.0704 -0.0073
10211TIP3    H152048   4.039   4.407  15.435 -0.7279 -0.8386  0.4337
10211TIP3    H252049   4.015   4.556  15.442  2.6502 -0.1886 -0.0052
10212TIP3   OH252050   5.699   1.588   5.207 -0.1095  0.1890  0.2849
10212TIP3    H152051   5.728   1.638   5.131  0.1697  0.8963  0.8450
10212TIP3    H252052   5.626   1.536   5.174  1.2210 -0.9985 -0.9412
10213TIP3   OH252053   6.610   3.234   6.116  0.0364 -0.5965  0.8829
10213TIP3    H152054   6.692   3.262   6.076 -0.3719 -1.6093 -0.7276
10213TIP3    H252055   6.633   3.154   6.164 -0.1066 -1.2009 -0.0417
10214TIP3   OH252056   1.027   2.224   2.266  0.0355  0.0673 -0.1408
10214TIP3    H152057   0.952   2.247   2.320  0.3440  0.5013  0.1109
10214TIP3    H252058   0.997   2.234   2.176 -0.1072  0.5778 -0.0389
10215TIP3   OH252059   2.998   0.671   5.784  0.5991 -0.4461  0.1937
10215TIP3    H152060   3.052   0.601   5.820  1.9429 -0.9133 -2.5334
10215TIP3    H252061   3.060   0.739   5.759 -0.4132  0.4386  0.0291
10216TIP3   OH252062   1.411   3.138   0.604  0.6387  0.0008 -0.4367
10216TIP3    H152063   1.317   3.127   0.616  0.5408  1.3751  0.2657
10216TIP3    H252064   1.449   3.054   0.630 -0.3081 -0.1899  0.3845
10217TIP3   OH252065   1.815   1.381   2.366 -0.5441  0.7884 -0.4007
10217TIP3    H152066   1.857   1.318   2.424  2.0105  3.1554  0.5665
10217TIP3    H252067   1.865   1.377   2.285  0.7154  2.5670  0.2228
10218TIP3   OH252068   0.827   0.380   4.850  0.3049 -0.1216  0.1529
10218TIP3    H152069   0.823   0.474   4.831 -0.0085 -0.0986  0.3256
10218TIP3    H252070   0.774   0.339   4.782 -1.4718  0.0261  1.3688
10219TIP3   OH252071   0.769   2.745  11.494 -0.1668 -0.4460 -0.2992
10219TIP3    H152072   0.684   2.784  11.475 -0.6685 -0.2003  2.1604
10219TIP3    H252073   0.770   2.734  11.589  1.5431 -2.7999 -0.4876
10220TIP3   OH252074   4.238   1.435   2.372 -0.3027 -0.0969  0.8988
10220TIP3    H152075   4.304   1.481   2.320  0.6758  0.5784  2.6612
10220TIP3    H252076   4.160   1.490   2.366 -0.2040 -0.0224  0.1806
10221TIP3   OH252077   4.060   5.758  14.998 -0.5253 -0.0408  0.3419
10221TIP3    H152078   3.973   5.768  14.960  0.0761  1.0628 -0.7863
10221TIP3    H252079   4.075   5.840  15.046 -0.0203 -0.1417  0.3581
10222TIP3   OH252080   1.690   3.702  14.482 -0.3133  0.3489 -0.2406
10222TIP3    H152081   1.608   3.653  14.475 -1.1709  1.7023 -0.1637
10222TIP3    H252082   1.732   3.690  14.398 -0.4402 -0.6238 -0.1711
10223TIP3   OH252083   2.931   3.387  16.962 -0.3267  0.2125 -0.0890
10223TIP3    H152084   2.915   3.432  16.880 -1.7945  1.8250  1.0167
10223TIP3    H252085   2.959   3.455  17.023 -0.2759 -0.7648  1.0339
10224TIP3   OH252086   0.124   1.689  12.255  0.0735 -0.3648 -1.0717
10224TIP3    H152087   0.112   1.725  12.343  0.3066 -1.7173 -0.4679
10224TIP3    H252088   0.092   1.759  12.197  1.0899  1.0600  0.0003
10225TIP3   OH252089   5.227   4.795  11.924 -1.0018  0.0238  0.7287
10225TIP3    H152090   5.222   4.774  11.830 -2.2646  0.0985  0.7542
10225TIP3    H252091   5.283   4.726  11.961 -0.4001  0.0594 -0.0908
10226TIP3   OH252092   1.567   1.659   3.727 -0.4746  0.3633 -0.4337
10226TIP3    H152093   1.476   1.684   3.741  0.3975  3.3225  0.7322
10226TIP3    H252094   1.616   1.709   3.793  2.1267 -0.0203 -1.9286
10227TIP3   OH252095   5.053   5.322   1.671  0.0605 -0.5400 -0.0050
10227TIP3    H152096   4.984   5.282   1.724  0.5069 -1.2005  0.0734
10227TIP3    H252097   5.134   5.299   1.715  0.4731 -1.4565 -1.1902
10228TIP3   OH252098   5.073   3.961   2.425  0.0761 -0.4164  0.8535
10228TIP3    H152099   5.062   3.995   2.337  2.2187  1.8185  1.3491
10228TIP3    H252100   5.015   4.015   2.480  0.6275 -0.0975  1.1316
10229TIP3   OH252101   1.357   0.117  15.643  0.0415  0.2933 -0.2069
10229TIP3    H152102   1.344   0.054  15.572 -0.0825  1.0847 -0.8930
10229TIP3    H252103   1.442   0.157  15.625  1.7499 -1.9456  2.0181
10230TIP3   OH252104   6.606   2.829  14.491  0.2473  0.2250 -0.3477
10230TIP3    H152105   6.644   2.767  14.554 -1.4873 -1.1656 -0.5959
10230TIP3    H252106   6.651   2.809  14.409 -0.4125 -0.8754 -0.4648
10231TIP3   OH252107   0.052   1.939  11.181  0.1221  0.6871 -0.1231
10231TIP3    H152108   0.067   1.996  11.106  1.4614  0.5203 -0.0032
10231TIP3    H252109  -0.033   1.966  11.214 -0.2088  1.1974 -1.3130
10232TIP3   OH252110   5.363   0.292  16.568  0.2938  0.1697  0.0441
10232TIP3    H152111   5.337   0.311  16.478  1.0278 -0.8835 -0.4056
10232TIP3    H252112   5.356   0.197  16.576  0.9601  0.1746  0.8682
10233TIP3   OH252113   2.146   5.581  15.940  0.2525  0.0011 -0.1189
10233TIP3    H152114   2.116   5.672  15.948 -1.1286 -0.4337 -0.0682
10233TIP3    H252115   2.183   5.576  15.853  1.0722  0.8114  0.1676
10234TIP3   OH252116   0.756   1.845  14.326  0.2464 -0.0412 -0.0472
10234TIP3    H152117   0.851   1.835  14.335  0.2042 -0.7757 -0.3810
10234TIP3    H252118   0.742   1.940  14.332  1.0454  0.1161 -0.4898
10235TIP3   OH252119   5.886   1.898   4.583  0.5311  0.5130  0.5297
10235TIP3    H152120   5.859   1.976   4.631  1.0107  1.3920 -0.6003
10235TIP3    H252121   5.946   1.852   4.643 -1.4264 -0.1715  2.0685
10236TIP3   OH252122   0.750   3.464   2.968  0.3240  0.0601  0.2932
10236TIP3    H152123   0.830   3.488   3.014 -0.1650  2.5144  0.0089
10236TIP3    H252124   0.777   3.453   2.876  0.6350 -1.0551  0.5022
10237TIP3   OH252125   2.882   6.608  10.554 -0.5941 -0.2369 -0.0892
10237TIP3    H152126   2.935   6.554  10.613 -0.4612 -0.1084 -0.0901
10237TIP3    H252127   2.937   6.618  10.476 -1.5351 -2.0608 -1.0711
10238TIP3   OH252128   3.997   0.041  10.274  0.4013  0.2410  0.4521
10238TIP3    H152129   4.008   0.107  10.206 -0.0382  0.0385  0.1792
10238TIP3    H252130   3.938   0.081  10.338 -0.4697 -0.1517 -0.0850
10239TIP3   OH252131   6.589   5.949   3.977  0.3751  0.0929  0.0129
10239TIP3    H152132   6.573   5.989   3.891 -0.2844 -1.1710 -0.4734
10239TIP3    H252133   6.506   5.957   4.023 -0.5606 -2.7505 -0.9742
10240TIP3   OH252134   6.594   2.270   1.850 -0.1868 -0.2943 -0.1934
10240TIP3    H152135   6.676   2.224   1.863 -0.0370  0.0921  0.2707
10240TIP3    H252136   6.613   2.360   1.875 -0.9848 -0.3870  0.8134
10241TIP3   OH252137   5.790   5.502  11.586  0.0648 -0.0996  0.2552
10241TIP3    H152138   5.841   5.574  11.624 -1.2707  0.2503  1.4355
10241TIP3    H252139   5.824   5.423  11.628  1.9955 -0.3143 -1.5204
10242TIP3   OH252140   5.223   3.351  10.162  0.2610 -0.1579 -0.0635
10242TIP3    H152141   5.133   3.383  10.167  0.5160  0.4536  0.8824
10242TIP3    H252142   5.214   3.256  10.161 -0.3651 -0.1721  1.9648
10243TIP3   OH252143   2.194   1.967   2.526 -0.3822 -0.8919 -0.4526
10243TIP3    H152144   2.197   1.948   2.620  0.2229 -0.0176 -0.2803
10243TIP3    H252145   2.122   1.913   2.493 -1.0356 -0.7301  0.6294
10244TIP3   OH252146   5.658   0.249  11.372  0.7070 -0.6605  0.3814
10244TIP3    H152147   5.743   0.237  11.329  0.4063 -0.6699 -0.2179
10244TIP3    H252148   5.600   0.186  11.329  0.3974 -0.6622  0.7945
10245TIP3   OH252149   1.430   3.365   4.152 -0.5617  0.4533 -0.4555
10245TIP3    H152150   1.503   3.407   4.107 -0.2947  0.7998  0.2879
10245TIP3    H252151   1.472   3.305   4.213 -0.7631  2.4004  1.7424
10246TIP3   OH252152   0.343   5.063  11.373 -0.3583  0.3887 -0.6351
10246TIP3    H152153   0.424   5.013  11.376  0.4629  1.7121  1.0246
10246TIP3    H252154   0.311   5.063  11.463 -0.4571  2.5545 -0.6121
10247TIP3   OH252155   0.612   6.001   2.040  0.1221  0.3482  0.3539
10247TIP3    H152156   0.632   6.093   2.058 -0.2163  0.6198 -0.6059
10247TIP3    H252157   0.689   5.968   1.994  0.1680  0.1928  0.5389
10248TIP3   OH252158   3.988   0.679  10.482  0.0038 -0.1762 -0.0870
10248TIP3    H152159   4.036   0.616  10.427 -2.0438 -1.3963 -0.5919
10248TIP3    H252160   3.931   0.625  10.535  0.5051  1.1313  1.8714
10249TIP3   OH252161   3.807   2.921   3.366  0.4742  0.2883 -0.2600
10249TIP3    H152162   3.896   2.885   3.361  0.4798  0.4384 -1.6141
10249TIP3    H252163   3.775   2.893   3.451  1.6658 -0.1313  0.0796
10250TIP3   OH252164   6.242   0.606  13.412 -0.1153  0.7502  0.2096
10250TIP3    H152165   6.328   0.568  13.393 -0.5853 -0.1516 -0.1998
10250TIP3    H252166   6.259   0.671  13.480  1.1348  1.7812 -1.0356
10251TIP3   OH252167   6.251   2.678  14.768  0.2460 -0.4544  0.3778
10251TIP3    H152168   6.180   2.636  14.719  1.0923 -2.8076  1.0457
10251TIP3    H252169   6.328   2.668  14.711  0.9460 -1.9781  1.5404
10252TIP3   OH252170   5.627   3.469  15.155 -0.1035  0.2569  0.8468
10252TIP3    H152171   5.673   3.549  15.182  0.8913 -0.4912  1.4631
10252TIP3    H252172   5.577   3.495  15.078  0.2221  1.4695  1.0182
10253TIP3   OH252173   6.659   6.321   5.369  0.1686 -0.3093  0.1622
10253TIP3    H152174   6.593   6.270   5.416  0.1786 -0.1478  0.3527
10253TIP3    H252175   6.716   6.255   5.328  0.8609 -0.4714  1.3398
10254TIP3   OH252176   5.121   4.350  16.246 -0.0459  0.1227 -0.0038
10254TIP3    H152177   5.055   4.282  16.228 -0.1822  0.4485 -0.8007
10254TIP3    H252178   5.095   4.388  16.329 -1.1552  0.5766 -0.5462
10255TIP3   OH252179   4.877   1.742   5.254  0.0700  0.5749 -0.3574
10255TIP3    H152180   4.843   1.831   5.242  0.2280  0.6680 -0.1329
10255TIP3    H252181   4.896   1.711   5.165 -1.9458 -0.0287 -0.6073
10256TIP3   OH252182   1.994   1.049   5.292  0.4659  0.0026  0.4113
10256TIP3    H152183   2.021   1.140   5.285  2.4883 -0.5515  0.3574
10256TIP3    H252184   1.959   1.027   5.205  2.6884 -0.0399 -0.5320
10257TIP3   OH252185   6.697   5.458   2.286 -0.2188 -0.3289  0.4293
10257TIP3    H152186   6.660   5.409   2.212 -0.3402 -0.2283  0.4232
10257TIP3    H252187   6.663   5.413   2.364 -1.9588  0.9157  0.4545
10258TIP3   OH252188   6.247   3.823  15.862  0.3119 -0.7615  0.1588
10258TIP3    H152189   6.303   3.880  15.808 -0.6642 -0.7684 -0.9041
10258TIP3    H252190   6.266   3.849  15.952  1.6042 -0.3825 -0.2059
10259TIP3   OH252191   4.133   4.834  12.917  0.1445  0.5387 -0.2879
10259TIP3    H152192   4.047   4.792  12.916  0.6124 -0.4506 -0.4865
10259TIP3    H252193   4.194   4.762  12.931  0.9132  1.2904  0.3301
10260TIP3   OH252194   0.660   1.000  10.430  0.0058  0.1637  0.2758
10260TIP3    H152195   0.597   0.939  10.469 -2.0325  1.7106 -0.3762
10260TIP3    H252196   0.687   1.057  10.502  0.2837 -0.2200  0.4716
10261TIP3   OH252197   4.310   5.338   4.345  0.1234  0.6324  0.1376
10261TIP3    H152198   4.270   5.299   4.267  0.5807 -0.8025  0.5806
10261TIP3    H252199   4.236   5.367   4.398 -0.2399  0.3817 -0.2256
10262TIP3   OH252200   4.971   4.381  16.870  0.1713 -0.1985 -0.7916
10262TIP3    H152201   4.955   4.475  16.866 -3.3967 -0.6797 -1.5916
10262TIP3    H252202   4.995   4.364  16.961 -1.5107  1.2429 -0.0124
10263TIP3   OH252203   3.455   1.047   5.007  0.2282  0.3182 -0.7267
10263TIP3    H152204   3.402   1.124   5.030 -0.6599 -0.3371 -0.5274
10263TIP3    H252205   3.483   1.011   5.091 -0.4551 -0.3116 -0.7508
10264TIP3   OH252206   0.116   4.543   5.105  0.0617  0.0564  0.7888
10264TIP3    H152207   0.035   4.544   5.054  0.7444  0.1121 -0.3411
10264TIP3    H252208   0.101   4.477   5.173  0.0887 -2.1798 -1.2100
10265TIP3   OH252209   3.124   1.628  14.871 -0.2544  0.5060  0.0655
10265TIP3    H152210   3.171   1.681  14.935  1.3827  0.3638 -0.9656
10265TIP3    H252211   3.124   1.539  14.908  0.0543  0.5631  0.2028
10266TIP3   OH252212   5.191   3.678   6.186 -0.0114  0.9224  1.3331
10266TIP3    H152213   5.270   3.627   6.166 -1.7833 -1.1240 -1.1113
10266TIP3    H252214   5.161   3.643   6.269 -1.6642 -3.0086 -0.6655
10267TIP3   OH252215   5.003   4.621   2.918 -0.7437 -0.3553 -0.0284
10267TIP3    H152216   4.929   4.653   2.968  0.6610  2.3484  0.5079
10267TIP3    H252217   5.076   4.619   2.980  0.1452 -0.8237 -1.0318
10268TIP3   OH252218   4.562   3.743  14.342 -0.7305 -0.3003 -0.0541
10268TIP3    H152219   4.556   3.652  14.372 -1.8140  0.2010  1.3285
10268TIP3    H252220   4.478   3.759  14.300  0.1054 -0.4355 -1.8728
10269TIP3   OH252221   1.055   4.617   1.896 -0.3291 -0.1365  0.6412
10269TIP3    H152222   1.040   4.529   1.860 -0.3579 -0.5232  1.5533
10269TIP3    H252223   1.092   4.667   1.824 -0.4497 -0.8651  0.0659
10270TIP3   OH252224   3.444   6.495  12.551 -0.4302  0.3576 -0.0665
10270TIP3    H152225   3.484   6.535  12.474 -0.5176 -0.2208 -0.4192
10270TIP3    H252226   3.362   6.457  12.519 -0.5007  0.1733  0.3262
10271TIP3   OH252227   3.092   6.527   4.579 -0.1825 -0.9083 -0.4163
10271TIP3    H152228   3.136   6.484   4.506 -1.1771 -1.2497 -0.8408
10271TIP3    H252229   3.162   6.552   4.639  0.6514 -0.6304 -1.4861
10272TIP3   OH252230   5.355   1.697  14.233  0.0930  0.2666  0.3987
10272TIP3    H152231   5.363   1.731  14.143 -0.3413 -1.3639 -0.2918
10272TIP3    H252232   5.393   1.766  14.288  0.0641  1.4517 -0.9967
10273TIP3   OH252233   6.612   6.308  14.169 -0.4553 -0.0500  0.2304
10273TIP3    H152234   6.686   6.271  14.216  1.6132 -0.3341 -2.9146
10273TIP3    H252235   6.583   6.237  14.110 -1.5877  0.8552 -0.3472
10274TIP3   OH252236   3.950   5.818  15.950 -0.1172  0.2626  0.2966
10274TIP3    H152237   4.007   5.867  15.891  0.5794 -0.3825  0.4111
10274TIP3    H252238   3.874   5.794  15.896  0.7939 -0.8532 -0.5312
10275TIP3   OH252239   1.060   6.770  16.410  0.6107  0.6822 -0.1816
10275TIP3    H152240   1.156   6.762  16.408  0.6625  1.3388 -0.3432
10275TIP3    H252241   1.041   6.806  16.497  0.4350 -0.3235  0.2150
10276TIP3   OH252242   2.900   4.865   4.026  0.1042  0.0163  0.4782
10276TIP3    H152243   2.995   4.878   4.025 -0.0779  1.7554  1.7455
10276TIP3    H252244   2.867   4.933   3.967 -0.3602 -0.9032 -0.3550
10277TIP3   OH252245   4.290   6.574   3.061  0.6586 -0.1384  0.1070
10277TIP3    H152246   4.377   6.551   3.095  0.8540  1.5329  0.8637
10277TIP3    H252247   4.263   6.649   3.115 -0.6223  0.2894 -1.0848
10278TIP3   OH252248   5.108   0.177   4.429  0.4902  0.2867  1.1494
10278TIP3    H152249   5.156   0.126   4.495 -0.7186 -0.6171  1.3502
10278TIP3    H252250   5.172   0.191   4.359  0.6677 -2.1258  0.7684
10279TIP3   OH252251   4.916   3.025   5.664  0.0239  0.5841  0.5377
10279TIP3    H152252   5.003   2.989   5.647 -1.2061 -1.9642 -0.9224
10279TIP3    H252253   4.903   3.012   5.758  1.0771  0.6694  0.7059
10280TIP3   OH252254   3.632   3.272   3.529  0.5278  0.1315 -0.5458
10280TIP3    H152255   3.701   3.223   3.484  1.0111  1.0998 -0.8777
10280TIP3    H252256   3.646   3.255   3.622  0.7882 -0.2144 -0.6466
10281TIP3   OH252257   0.984   1.803   3.167  0.1983 -0.2229 -0.1266
10281TIP3    H152258   0.911   1.843   3.216 -1.9681 -2.9746 -0.8351
10281TIP3    H252259   0.993   1.857   3.089  0.6968  1.6453  1.1720
10282TIP3   OH252260   3.962   4.377  12.127 -0.5261  0.2641 -0.8562
10282TIP3    H152261   3.959   4.459  12.078 -0.2629 -0.0262 -1.3648
10282TIP3    H252262   4.024   4.322  12.079 -1.2416 -0.4909 -0.9397
10283TIP3   OH252263   2.054   2.660  15.453 -0.0829 -0.3634 -0.2213
10283TIP3    H152264   2.085   2.621  15.371 -0.4323  1.0670 -1.0934
10283TIP3    H252265   1.978   2.608  15.478 -1.9785  1.0222 -2.6143
10284TIP3   OH252266   5.225   0.941   1.414 -0.2166 -0.4324 -0.6756
10284TIP3    H152267   5.188   0.924   1.501  0.9855  0.4842  0.0454
10284TIP3    H252268   5.255   0.855   1.384  0.4102 -0.5858  0.3346
10285TIP3   OH252269   4.352   5.845   4.577  0.0082  0.1102  0.5603
10285TIP3    H152270   4.316   5.932   4.598  0.9170  0.3228  1.2495
10285TIP3    H252271   4.286   5.784   4.609 -1.7845  0.5282 -1.9940
10286TIP3   OH252272   1.304   6.071   1.765 -0.1741  0.0841 -0.2552
10286TIP3    H152273   1.234   6.128   1.732 -0.7794  0.0409  0.9021
10286TIP3    H252274   1.284   6.060   1.858  0.2715 -1.5211 -0.3205
10287TIP3   OH252275   0.717   6.529  13.809 -0.2007  0.1661 -0.3279
10287TIP3    H152276   0.641   6.496  13.762 -0.3323 -0.3475  0.2436
10287TIP3    H252277   0.750   6.454  13.858  0.0973  0.6226  0.1862
10288TIP3   OH252278   6.304   6.145   5.667 -0.2696 -0.0816 -0.0134
10288TIP3    H152279   6.357   6.196   5.605  2.8618 -1.5749  1.1875
10288TIP3    H252280   6.317   6.190   5.751  0.0704 -1.1095  0.5065
10289TIP3   OH252281   1.458   4.795  12.351  0.0772  0.1059 -0.3122
10289TIP3    H152282   1.431   4.728  12.288  0.0396 -1.0760  0.9280
10289TIP3    H252283   1.404   4.871  12.329 -1.3620 -0.9186 -0.4729
10290TIP3   OH252284   0.652   2.263  16.329 -0.0933  0.4917  0.1660
10290TIP3    H152285   0.583   2.212  16.286  1.4197 -0.4542 -1.2659
10290TIP3    H252286   0.643   2.242  16.422 -0.8365 -0.7120 -0.1523
10291TIP3   OH252287   4.908   6.449  17.125  0.2625 -0.1139  0.9449
10291TIP3    H152288   4.962   6.516  17.167  1.9360 -1.3091  0.8154
10291TIP3    H252289   4.822   6.459  17.165  0.9155  0.9902  2.1675
10292TIP3   OH252290   2.321   2.619  10.874 -0.0859 -0.3999  0.4112
10292TIP3    H152291   2.386   2.680  10.910 -0.5290  1.0437 -1.1108
10292TIP3    H252292   2.237   2.653  10.904 -0.2721 -1.0736  0.6729
10293TIP3   OH252293   1.038   1.118   0.937  0.0733 -0.3343 -0.4284
10293TIP3    H152294   1.087   1.200   0.934  0.2475 -0.4273 -0.1740
10293TIP3    H252295   1.085   1.060   0.877 -0.2631 -0.1356 -0.8901
10294TIP3   OH252296   4.081   4.704   5.289 -0.4125 -0.1561 -0.0485
10294TIP3    H152297   4.162   4.705   5.239 -0.2602  0.7901  0.2054
10294TIP3    H252298   4.075   4.615   5.323  0.7161 -0.1356  0.2506
10295TIP3   OH252299   0.987   4.023  12.749 -0.4287 -0.7741  0.2271
10295TIP3    H152300   1.014   4.027  12.657 -2.2786  0.3347 -0.3288
10295TIP3    H252301   0.923   3.952  12.752 -0.4631 -0.7271  0.6136
10296TIP3   OH252302   0.645   1.565  13.199  0.1422  0.1936 -0.6300
10296TIP3    H152303   0.617   1.477  13.225 -0.6319  0.7636  0.5727
10296TIP3    H252304   0.639   1.565  13.104  0.1486 -1.0515 -0.6472
10297TIP3   OH252305   5.823   0.888  11.307 -0.2396  0.2624 -0.4611
10297TIP3    H152306   5.774   0.898  11.226 -0.3911 -1.4594 -0.6187
10297TIP3    H252307   5.912   0.864  11.279 -0.9241 -3.0231 -0.1946
10298TIP3   OH252308   4.220   4.917  11.132  0.7087 -0.1728 -0.0672
10298TIP3    H152309   4.202   4.847  11.195 -0.5863 -0.5224 -0.7990
10298TIP3    H252310   4.198   4.997  11.179  1.2179 -0.3144  0.4289
10299TIP3   OH252311   2.868   0.310  10.663  0.3252  0.1902 -0.1998
10299TIP3    H152312   2.829   0.340  10.744 -1.2098  0.3232 -0.9564
10299TIP3    H252313   2.816   0.351  10.594  0.6963 -1.0212 -1.2520
10300TIP3   OH252314   3.327   3.485  10.722  0.4193  0.2726  0.1638
10300TIP3    H152315   3.418   3.510  10.705  0.6763 -0.1774  0.8229
10300TIP3    H252316   3.313   3.406  10.671  0.6190 -0.0542  0.6149
10301TIP3   OH252317   5.730   2.069  12.456 -0.1454 -0.2710  0.7119
10301TIP3    H152318   5.758   1.997  12.513 -0.7167 -0.7562  0.3943
10301TIP3    H252319   5.683   2.129  12.514 -1.1358 -0.9935  0.6827
10302TIP3   OH252320   3.676   2.725   5.095 -0.3145  0.0045 -0.2082
10302TIP3    H152321   3.699   2.814   5.067 -0.7288  0.5963  1.2287
10302TIP3    H252322   3.739   2.705   5.165 -1.1778 -0.1993  0.5359
10303TIP3   OH252323   0.609   0.757  15.108  0.6923  0.1660  0.3315
10303TIP3    H152324   0.548   0.775  15.179 -0.1867 -1.5850  0.0554
10303TIP3    H252325   0.571   0.683  15.060  1.2708  1.2340 -1.9476
10304TIP3   OH252326   0.625   2.969   4.926 -0.2107 -0.0555 -0.0060
10304TIP3    H152327   0.549   2.913   4.944 -1.4307  1.8106  0.8818
10304TIP3    H252328   0.659   2.991   5.012  0.0893  0.7741 -0.3313
10305TIP3   OH252329   4.174   3.507  15.266  0.4529  0.5824 -0.1696
10305TIP3    H152330   4.121   3.469  15.195  0.9658 -0.9510  0.2144
10305TIP3    H252331   4.229   3.571  15.223 -1.3791  1.9155 -0.6499
10306TIP3   OH252332   2.559   3.855   3.114 -0.1804  0.1202 -0.7938
10306TIP3    H152333   2.549   3.934   3.168 -0.3316  0.1947 -0.9316
10306TIP3    H252334   2.518   3.877   3.031 -0.8676 -0.3541 -0.5883
10307TIP3   OH252335   6.752   5.597  15.082  0.2062 -0.3745 -0.5866
10307TIP3    H152336   6.819   5.579  15.016 -0.1259 -1.5755 -0.6301
10307TIP3    H252337   6.675   5.548  15.052  0.2827 -1.6111  1.0599
10308TIP3   OH252338   2.675   4.603   3.827  0.3074  0.2426  0.1028
10308TIP3    H152339   2.758   4.575   3.866 -0.1810  0.0901  1.0636
10308TIP3    H252340   2.688   4.696   3.807  0.7634  0.1761  0.0697
10309TIP3   OH252341   6.123   3.351  11.515  0.0372  0.6557  0.0672
10309TIP3    H152342   6.079   3.311  11.440 -0.4271  1.0855  0.1049
10309TIP3    H252343   6.098   3.443  11.511  0.6073  0.8236  0.3301
10310TIP3   OH252344   3.358   3.429  16.134  0.0136  0.8142 -0.5534
10310TIP3    H152345   3.264   3.411  16.131  0.0073  0.8899 -0.7978
10310TIP3    H252346   3.388   3.385  16.214  0.2528 -1.3943 -1.8015
10311TIP3   OH252347   0.565   1.338  15.353  0.1678  0.1715 -0.2338
10311TIP3    H152348   0.496   1.340  15.419  0.4786  0.8228  0.0826
10311TIP3    H252349   0.529   1.385  15.279  0.6291  1.4428  0.3132
10312TIP3   OH252350   3.936   4.528   4.864  0.3646  0.2783 -0.4676
10312TIP3    H152351   3.902   4.591   4.927 -0.5701  1.0341 -1.6972
10312TIP3    H252352   4.013   4.570   4.827  0.4624  0.1549 -0.4099
10313TIP3   OH252353   3.710   0.189   5.648 -0.0227 -0.4146 -0.1111
10313TIP3    H152354   3.790   0.235   5.675 -0.0880 -1.8384  3.0161
10313TIP3    H252355   3.642   0.256   5.649  0.8213  0.4887 -1.2252
10314TIP3   OH252356   6.348   2.951   4.907 -0.2866 -0.3575  0.1020
10314TIP3    H152357   6.400   2.885   4.861 -0.7891  0.2178 -1.3360
10314TIP3    H252358   6.260   2.940   4.873 -0.7709 -0.1901  1.2621
10315TIP3   OH252359   4.925   5.490   3.344  0.1414 -0.1036 -0.7459
10315TIP3    H152360   4.970   5.561   3.389  1.9816 -1.3975 -0.4262
10315TIP3    H252361   4.865   5.454   3.409 -0.2321  0.6351 -0.6711
10316TIP3   OH252362   3.795   5.050  14.228 -0.1428  0.5805 -0.1269
10316TIP3    H152363   3.855   5.025  14.158 -1.1798 -5.3147  0.5275
10316TIP3    H252364   3.850   5.059  14.306  0.3209 -2.2239 -0.0346
10317TIP3   OH252365   2.075   5.479  11.294 -0.3158  0.2193 -0.1120
10317TIP3    H152366   2.060   5.568  11.325 -0.7446  0.5841 -1.3062
10317TIP3    H252367   2.144   5.445  11.351 -0.7058  1.0273  0.8712
10318TIP3   OH252368   2.540   5.499  14.472 -0.6801  0.4216  0.3593
10318TIP3    H152369   2.582   5.414  14.457 -1.5628 -0.1315  0.8975
10318TIP3    H252370   2.509   5.494  14.562  1.0092  2.1149  1.1007
10319TIP3   OH252371   3.769   1.914   2.041 -0.3193  0.5669  0.6401
10319TIP3    H152372   3.836   1.852   2.071  0.2368  0.2767 -1.0789
10319TIP3    H252373   3.705   1.917   2.112  1.0033  0.0826  1.9047
10320TIP3   OH252374   4.002   4.017   0.136 -0.0292  0.5146  0.1219
10320TIP3    H152375   3.961   4.090   0.090  0.6428 -0.3050 -1.9003
10320TIP3    H252376   3.961   3.939   0.099 -0.1162 -0.1734  1.6105
10321TIP3   OH252377   5.176   6.120   5.918 -0.6196  0.2482  0.3062
10321TIP3    H152378   5.233   6.166   5.980  0.4507  0.2968 -0.7061
10321TIP3    H252379   5.118   6.068   5.974  0.0190  0.6510  1.3679
10322TIP3   OH252380   6.073   4.200   4.675  0.1271 -0.4639  0.4374
10322TIP3    H152381   6.166   4.179   4.685  0.5404  1.2504  0.5663
10322TIP3    H252382   6.061   4.214   4.581  0.4986  1.2727  0.6161
10323TIP3   OH252383   6.744   5.417   4.039  0.0600  0.5205  0.0814
10323TIP3    H152384   6.744   5.512   4.029  2.3203  0.7295  1.2424
10323TIP3    H252385   6.689   5.401   4.115  0.4785  1.0294  0.5033
10324TIP3   OH252386   0.010   3.962  12.601 -0.4000 -0.5183 -0.4954
10324TIP3    H152387   0.028   3.906  12.677 -0.9121 -1.3768 -0.9857
10324TIP3    H252388   0.080   4.027  12.602  2.1133 -3.0073 -1.6922
10325TIP3   OH252389   1.172   4.128   2.415 -1.0300 -0.7260 -0.1277
10325TIP3    H152390   1.214   4.204   2.374  0.9918 -1.5756  0.2895
10325TIP3    H252391   1.090   4.163   2.451  0.3070  1.5160  0.9587
10326TIP3   OH252392   0.651   1.552   0.925  0.2958 -0.0419  0.2934
10326TIP3    H152393   0.618   1.601   0.849 -1.9448  1.4672  2.0722
10326TIP3    H252394   0.603   1.469   0.922 -0.2485  0.2613  0.3522
10327TIP3   OH252395   6.749   3.455  14.669  0.1986  0.3499 -0.1765
10327TIP3    H152396   6.665   3.475  14.628 -0.7619  0.5742  1.7515
10327TIP3    H252397   6.815   3.484  14.606 -1.1576  0.7103 -1.4926
10328TIP3   OH252398   1.374   5.247   4.629 -0.1870  1.0177  0.3168
10328TIP3    H152399   1.286   5.279   4.613  0.1021  1.8133  0.2789
10328TIP3    H252400   1.368   5.198   4.711 -0.9229 -0.0172 -0.3383
10329TIP3   OH252401   0.475   6.421   3.593  0.4497  0.1547 -0.4551
10329TIP3    H152402   0.434   6.474   3.525  1.7357 -0.0946 -1.4704
10329TIP3    H252403   0.535   6.363   3.545 -0.2879 -1.6360  0.6898
10330TIP3   OH252404   4.155   2.026  15.549  0.1909 -0.0330 -0.2911
10330TIP3    H152405   4.152   1.966  15.624  0.6121 -0.7586 -0.8432
10330TIP3    H252406   4.248   2.038  15.531  0.0938  0.0754 -0.7461
10331TIP3   OH252407   0.675   0.233   5.948  0.8778  0.4221  0.1113
10331TIP3    H152408   0.714   0.174   6.012  0.4974  0.3487  0.2757
10331TIP3    H252409   0.700   0.196   5.863  0.5922 -0.0106  0.2121
10332TIP3   OH252410   3.797   0.854  13.066 -0.3518 -0.8028  0.5749
10332TIP3    H152411   3.726   0.818  13.012 -1.3368  0.7142  0.7694
10332TIP3    H252412   3.752   0.912  13.128  1.1598  1.3448 -0.2252
10333TIP3   OH252413   6.616   2.840  11.426  0.1022 -0.6402 -0.1347
10333TIP3    H152414   6.606   2.875  11.338 -1.6721  0.8947  0.5970
10333TIP3    H252415   6.570   2.903  11.482  0.5418 -1.9442  1.7963
10334TIP3   OH252416   3.020   5.918  15.228 -0.1812  0.5896 -0.3281
10334TIP3    H152417   2.958   5.880  15.290 -0.7415  0.4392 -0.9629
10334TIP3    H252418   3.063   5.989  15.276 -1.0466  0.8798  0.0357
10335TIP3   OH252419   5.068   1.469   4.188  0.0402  0.7324  0.1552
10335TIP3    H152420   5.078   1.481   4.094  1.6955  0.2297  0.2297
10335TIP3    H252421   5.040   1.378   4.198  0.5420  0.5775  0.1715
10336TIP3   OH252422   6.659   0.479   4.642 -0.6910  0.7483  0.2029
10336TIP3    H152423   6.651   0.472   4.546  0.5761  0.4743  0.0994
10336TIP3    H252424   6.608   0.406   4.676  0.9231 -0.7286 -0.3848
10337TIP3   OH252425   4.567   6.016  12.440  0.4514 -0.0461 -0.2169
10337TIP3    H152426   4.535   5.938  12.395  1.6121 -0.0438 -1.0974
10337TIP3    H252427   4.490   6.073  12.446 -0.1320 -0.7748 -0.6272
10338TIP3   OH252428   6.445   3.004  15.229 -0.1146  0.2316  0.4024
10338TIP3    H152429   6.491   3.077  15.273 -0.4066  0.1934  0.7792
10338TIP3    H252430   6.514   2.941  15.209 -0.2268 -0.7415  2.7689
10339TIP3   OH252431   1.539   4.814   5.017 -0.0831 -0.0580  0.1756
10339TIP3    H152432   1.606   4.810   4.949 -0.2206 -1.2635  0.0780
10339TIP3    H252433   1.569   4.883   5.077 -0.4907  1.7410 -1.6155
10340TIP3   OH252434   5.351   3.001   3.163 -0.7769 -0.6061 -0.5074
10340TIP3    H152435   5.334   3.072   3.102  0.8795 -0.8803 -1.3423
10340TIP3    H252436   5.343   2.922   3.111  2.7365 -0.7727 -1.0364
10341TIP3   OH252437   4.628   5.773   2.515  0.0427  0.6723  0.6883
10341TIP3    H152438   4.644   5.833   2.442 -1.2947  0.3131  0.0691
10341TIP3    H252439   4.634   5.828   2.593 -0.1714  1.4036  0.1961
10342TIP3   OH252440   5.024   3.884  15.240  0.3703  0.0745  0.2295
10342TIP3    H152441   5.022   3.804  15.187 -0.0333  0.2270  0.0112
10342TIP3    H252442   5.079   3.944  15.190 -0.2047  0.3003 -0.1406
10343TIP3   OH252443   3.327   0.273   0.768 -0.0603  0.3491 -0.0812
10343TIP3    H152444   3.325   0.310   0.856 -2.8358  0.4359 -0.0851
10343TIP3    H252445   3.407   0.220   0.765 -0.7798 -1.1434  3.1123
10344TIP3   OH252446   4.818   2.574   4.595  0.4337 -0.1410 -0.1362
10344TIP3    H152447   4.823   2.610   4.506 -0.9292 -0.6786 -0.4553
10344TIP3    H252448   4.894   2.515   4.601  1.5702  1.2387 -0.2840
10345TIP3   OH252449   0.922   4.087   2.735 -0.2279 -0.0006 -0.2120
10345TIP3    H152450   0.861   4.025   2.774 -0.6664  0.5880  0.0613
10345TIP3    H252451   1.008   4.053   2.757 -0.4369  0.6821  1.9691
10346TIP3   OH252452   0.007   3.480  13.934  0.8978  0.5095 -0.4290
10346TIP3    H152453  -0.033   3.489  14.021  2.7947  1.7403  0.3649
10346TIP3    H252454   0.089   3.432  13.950  0.7460 -0.2431 -1.7318
10347TIP3   OH252455   3.180   2.568   6.047  0.5687 -0.3217  0.5045
10347TIP3    H152456   3.230   2.496   6.084  0.2445 -0.2220  1.1568
10347TIP3    H252457   3.106   2.580   6.107 -0.1684 -0.3755 -0.3565
10348TIP3   OH252458   2.260   3.615   6.021  0.2077  0.4046 -0.1813
10348TIP3    H152459   2.323   3.638   6.090 -0.9780  1.0196  0.7189
10348TIP3    H252460   2.174   3.627   6.061 -0.5121 -1.3411 -1.0893
10349TIP3   OH252461   6.508   3.436  11.105 -0.1500 -0.0896  0.4214
10349TIP3    H152462   6.604   3.432  11.103 -0.1222  0.6056 -0.7799
10349TIP3    H252463   6.480   3.351  11.074  0.0441 -0.7089  1.8595
10350TIP3   OH252464   5.257   1.510  12.235  0.3581 -0.0836 -0.0483
10350TIP3    H152465   5.192   1.446  12.205 -0.7774  0.4440  1.1595
10350TIP3    H252466   5.258   1.577  12.166  0.3293 -0.5687 -0.5270
10351TIP3   OH252467   4.733   5.016  12.834 -0.1556 -0.6282 -0.2871
10351TIP3    H152468   4.682   5.094  12.813 -0.3130 -0.4895  0.5452
10351TIP3    H252469   4.707   4.952  12.768  1.6886  0.6825 -2.3993
10352TIP3   OH252470   3.553   5.567  16.637 -0.2177 -0.0325  0.4734
10352TIP3    H152471   3.502   5.538  16.561 -0.8456  0.4806  0.6947
10352TIP3    H252472   3.636   5.598  16.600 -0.2204 -0.4832  0.0758
10353TIP3   OH252473   5.055   1.735   3.611 -0.9770 -0.7395  0.5520
10353TIP3    H152474   5.014   1.776   3.687  0.9931 -1.3466  2.0053
10353TIP3    H252475   5.120   1.675   3.647  2.5487  1.4368 -1.4875
10354TIP3   OH252476   6.226   2.489  14.479 -0.3669  0.0729 -0.1363
10354TIP3    H152477   6.200   2.569  14.433  0.1192  0.0556 -0.4406
10354TIP3    H252478   6.176   2.492  14.561  0.9041  1.5605  0.6563
10355TIP3   OH252479   2.937   6.163   3.204 -0.1468  0.9658 -0.0125
10355TIP3    H152480   2.993   6.159   3.126 -0.3216 -1.8679 -0.0889
10355TIP3    H252481   2.848   6.168   3.169 -0.2380 -0.4958 -0.0702
10356TIP3   OH252482   5.741   0.271   0.852  0.5029 -0.2106  0.1371
10356TIP3    H152483   5.719   0.338   0.917 -2.1281  0.4369 -1.2925
10356TIP3    H252484   5.690   0.194   0.878 -1.8308  0.5379 -1.9111
10357TIP3   OH252485   2.647   3.093  15.492 -0.0902  0.2565  0.3975
10357TIP3    H152486   2.660   3.060  15.581  0.5707 -1.3524 -0.2682
10357TIP3    H252487   2.573   3.044  15.459 -0.0772  0.5596 -0.0916
10358TIP3   OH252488   6.770   6.556  11.965 -0.3228  0.2092 -0.0480
10358TIP3    H152489   6.813   6.474  11.940 -1.6181 -0.3056 -0.6929
10358TIP3    H252490   6.754   6.546  12.059 -0.1225 -0.1098 -0.0460
10359TIP3   OH252491   5.876   4.726   2.701 -0.4508  0.0324 -0.1946
10359TIP3    H152492   5.830   4.660   2.650 -1.0883 -0.9790  1.6208
10359TIP3    H252493   5.809   4.767   2.754  0.0084  1.9012 -0.9834
10360TIP3   OH252494   1.115   6.363   5.147 -0.5241  0.4884  0.2164
10360TIP3    H152495   1.062   6.410   5.211  1.7588  0.5342  2.2274
10360TIP3    H252496   1.206   6.387   5.169  0.4794 -1.4439 -1.4707
10361TIP3   OH252497   0.671   4.994  12.492 -0.2053 -0.1144  0.0575
10361TIP3    H152498   0.740   5.057  12.470  0.1376 -0.6536 -0.4210
10361TIP3    H252499   0.713   4.931  12.549 -0.2573 -0.5310 -0.3599
10362TIP3   OH252500   4.008   4.379   4.594 -0.1390 -0.2714  0.1191
10362TIP3    H152501   4.010   4.376   4.499  0.5662 -1.4487  0.1417
10362TIP3    H252502   3.915   4.383   4.616 -0.2931  0.3890 -0.6123
10363TIP3   OH252503   0.621   2.925   0.781 -0.5683 -0.8646  0.1534
10363TIP3    H152504   0.582   2.974   0.854 -2.2948 -0.8679 -0.7209
10363TIP3    H252505   0.559   2.935   0.709  1.9088  0.6579 -1.9582
10364TIP3   OH252506   4.686   1.305   5.996 -0.5797  0.0382 -0.7581
10364TIP3    H152507   4.698   1.214   6.022 -2.4817 -0.1165 -0.2982
10364TIP3    H252508   4.592   1.315   5.984 -0.2372  1.4022 -2.9109
10365TIP3   OH252509   2.353   3.230  14.707 -0.0157 -0.2282 -0.1844
10365TIP3    H152510   2.433   3.275  14.681 -1.5660  2.5026 -0.6302
10365TIP3    H252511   2.346   3.156  14.646  1.2890  0.4563 -1.2181
10366TIP3   OH252512   5.511   0.953   2.728  0.5035  0.5433  0.2207
10366TIP3    H152513   5.592   0.999   2.705  1.0711  0.9280  2.7022
10366TIP3    H252514   5.506   0.959   2.823 -1.9742 -0.3183  0.2238
10367TIP3   OH252515   2.203   3.289   4.710  0.2172  0.5616  0.2860
10367TIP3    H152516   2.129   3.322   4.761 -0.3967  0.2811 -0.4060
10367TIP3    H252517   2.168   3.214   4.662  1.5111 -0.9791  1.6130
10368TIP3   OH252518   3.888   1.872   2.400  0.7962 -0.1676  0.8731
10368TIP3    H152519   3.900   1.839   2.311 -1.2139  0.3998  0.3325
10368TIP3    H252520   3.976   1.896   2.429  1.8638 -2.6463 -0.0000
10369TIP3   OH252521   4.041   0.253   3.440  0.1828 -0.2650 -0.1760
10369TIP3    H152522   4.099   0.185   3.406 -0.8479 -1.0382 -0.4089
10369TIP3    H252523   4.101   0.324   3.464  1.0987 -0.3405 -2.0156
10370TIP3   OH252524   0.624   1.443   4.398 -0.0264  0.4000 -0.3021
10370TIP3    H152525   0.625   1.488   4.482 -0.6529  0.3708 -0.2785
10370TIP3    H252526   0.716   1.421   4.382  0.0722  0.2029  0.4833
10371TIP3   OH252527   5.317   5.377   3.645 -0.2723  0.5988 -0.7053
10371TIP3    H152528   5.300   5.457   3.595 -0.2610  1.9021  1.2777
10371TIP3    H252529   5.413   5.372   3.649 -0.2741  0.8193 -0.3417
10372TIP3   OH252530   1.508   5.830  12.023 -0.9016 -0.3427  0.0499
10372TIP3    H152531   1.521   5.748  11.976 -0.4055 -0.9246  1.1578
10372TIP3    H252532   1.534   5.898  11.961 -0.4769 -1.0733 -0.5866
10373TIP3   OH252533   0.780   4.316  10.702  0.7118 -0.2790 -0.1309
10373TIP3    H152534   0.753   4.388  10.644  0.5381 -0.9530 -0.9078
10373TIP3    H252535   0.864   4.288  10.668  1.3069  0.2656  0.8497
10374TIP3   OH252536   0.182   2.496   4.912 -0.1824 -0.1537 -0.0934
10374TIP3    H152537   0.210   2.580   4.949 -3.4495  1.2034 -0.3411
10374TIP3    H252538   0.189   2.508   4.817  1.1574 -0.9287 -0.1210
10375TIP3   OH252539   3.420   1.091   3.229 -0.3089  0.0129 -0.4012
10375TIP3    H152540   3.414   1.001   3.260  2.0172  0.0195  0.2573
10375TIP3    H252541   3.444   1.084   3.136 -0.5424 -0.0401 -0.4575
10376TIP3   OH252542   4.664   2.989   5.806 -0.0613 -0.3069 -0.0506
10376TIP3    H152543   4.664   3.014   5.898  1.4040  2.5057 -0.7325
10376TIP3    H252544   4.586   3.031   5.769  1.3175  1.7219 -0.7863
10377TIP3   OH252545   3.478   1.640   4.964 -0.0322 -0.1215 -0.9898
10377TIP3    H152546   3.495   1.637   5.058 -2.2451 -0.4656 -0.5427
10377TIP3    H252547   3.452   1.551   4.942 -1.9471  0.4966 -1.3827
10378TIP3   OH252548   6.438   2.297   5.882  0.4585  0.1642 -0.0710
10378TIP3    H152549   6.518   2.264   5.841  0.9064 -0.1332  1.0095
10378TIP3    H252550   6.461   2.307   5.974 -0.1273  2.0552 -0.0873
10379TIP3   OH252551   5.591   2.829  16.123 -0.2463 -0.0960  0.2759
10379TIP3    H152552   5.552   2.742  16.115 -1.8759  0.6696 -0.4646
10379TIP3    H252553   5.542   2.871  16.194 -0.0993  0.5390  0.0043
10380TIP3   OH252554   1.597   4.720  12.086 -0.0198  0.2951  0.3328
10380TIP3    H152555   1.648   4.697  12.164  0.9378 -0.2226 -0.4261
10380TIP3    H252556   1.517   4.669  12.094  0.8743 -1.2206  0.0711
10381TIP3   OH252557   4.266   4.089  13.508 -0.3179  0.1205  0.2249
10381TIP3    H152558   4.247   4.036  13.585  1.3482 -0.2249  0.4180
10381TIP3    H252559   4.324   4.035  13.454 -1.5505  0.2957 -1.3696
10382TIP3   OH252560   6.669   5.254  13.145  0.0057 -0.0136 -0.9032
10382TIP3    H152561   6.592   5.290  13.187  0.3288  0.4955 -0.7493
10382TIP3    H252562   6.697   5.321  13.083  0.3815 -0.1570 -0.8929
10383TIP3   OH252563   1.391   3.945   3.654 -0.2536 -0.3412  0.6475
10383TIP3    H152564   1.384   4.040   3.660 -0.8639 -0.3598  0.2703
10383TIP3    H252565   1.481   3.930   3.626 -0.6706  0.2124 -1.0803
10384TIP3   OH252566   3.166   1.380  11.788  0.0482  0.0538  0.2849
10384TIP3    H152567   3.227   1.397  11.859 -0.6538  0.9626  0.6943
10384TIP3    H252568   3.210   1.415  11.710  0.0401  0.7632  0.5873
10385TIP3   OH252569   4.330   0.986   3.260  0.0127  0.4404 -0.2795
10385TIP3    H152570   4.284   0.964   3.341 -0.9161 -0.9502 -1.1286
10385TIP3    H252571   4.261   1.016   3.200  0.5438  0.5830 -0.8323
10386TIP3   OH252572   2.865   1.957   5.634 -0.4905  0.7316 -0.6762
10386TIP3    H152573   2.778   1.985   5.664 -1.2577 -1.9735 -0.1509
10386TIP3    H252574   2.900   1.907   5.707  0.9319  0.5934 -1.4333
10387TIP3   OH252575   4.321   5.681  13.651  0.0534  0.4740  0.5166
10387TIP3    H152576   4.277   5.599  13.674  1.3806 -0.6322 -0.6600
10387TIP3    H252577   4.336   5.674  13.556  1.3329  1.4865  0.6168
10388TIP3   OH252578   2.450   5.410   5.972  0.2183 -0.3359  0.2885
10388TIP3    H152579   2.468   5.332   6.025  0.8350 -0.1251  0.3833
10388TIP3    H252580   2.495   5.481   6.016  0.3347 -0.0690 -0.2501
10389TIP3   OH252581   3.657   3.251   0.770 -0.2940 -0.1347 -0.5789
10389TIP3    H152582   3.708   3.332   0.764  0.4844 -0.5453  0.3393
10389TIP3    H252583   3.646   3.223   0.679  0.4833  0.3568 -0.8332
10390TIP3   OH252584   1.337   0.844   0.105 -0.4590 -0.1739  0.1092
10390TIP3    H152585   1.245   0.822   0.089 -0.4046  0.0894 -0.5836
10390TIP3    H252586   1.336   0.891   0.188 -1.0341  0.3744 -0.1964
10391TIP3   OH252587   4.265   4.274  17.151 -0.2524 -0.2279 -0.1453
10391TIP3    H152588   4.282   4.325  17.072  0.3390  1.0048  0.7270
10391TIP3    H252589   4.340   4.294  17.208 -2.2809  1.7444  2.0869
10392TIP3   OH252590   1.727   2.807  16.472  0.2037 -0.1347  0.3664
10392TIP3    H152591   1.658   2.871  16.452 -0.8380 -0.8890  1.3896
10392TIP3    H252592   1.760   2.834  16.558 -0.8728 -1.4505  1.2310
10393TIP3   OH252593   1.948   0.443   2.911 -0.3928  0.2446 -0.4573
10393TIP3    H152594   1.922   0.360   2.951  0.4463  0.6879  1.0763
10393TIP3    H252595   2.033   0.463   2.949 -0.3093  1.5349 -1.2462
10394TIP3   OH252596   4.194   2.677  14.060  0.1562  0.3371 -0.0753
10394TIP3    H152597   4.286   2.661  14.081  0.3157  1.0312 -0.2269
10394TIP3    H252598   4.176   2.620  13.985  1.0197  1.6411 -1.3201
10395TIP3   OH252599   3.012   3.702   3.928 -0.7095  0.4887 -0.3398
10395TIP3    H152600   3.045   3.788   3.956 -0.3490  0.1621  0.2619
10395TIP3    H252601   3.062   3.639   3.981 -0.8347 -0.0992 -0.9151
10396TIP3   OH252602   3.905   2.955  15.849 -0.2237  0.1168  0.3347
10396TIP3    H152603   3.848   3.027  15.875  1.0494  0.7181  1.5942
10396TIP3    H252604   3.892   2.948  15.754 -2.6221 -0.0270  0.6161
10397TIP3   OH252605   2.023   6.074  13.432 -0.5384 -0.0065  0.8367
10397TIP3    H152606   2.114   6.105  13.439 -0.2612 -0.5972 -0.0203
10397TIP3    H252607   1.973   6.137  13.484  0.2786  0.6885  0.8135
10398TIP3   OH252608   0.299   2.557  16.004  0.0235 -0.2051 -0.3081
10398TIP3    H152609   0.316   2.514  15.920  1.3514  0.8520 -0.6064
10398TIP3    H252610   0.353   2.636  16.003 -0.6776  0.3397  1.1441
10399TIP3   OH252611   0.124   2.460  11.619 -0.0774  0.4283 -0.3851
10399TIP3    H152612   0.056   2.458  11.552 -0.8975  1.0776  0.4019
10399TIP3    H252613   0.122   2.549  11.654 -1.2232 -0.4240  1.9933
10400TIP3   OH252614   3.194   6.796   2.451 -0.6062 -0.2311  0.3124
10400TIP3    H152615   3.228   6.710   2.475 -1.2203 -0.3247  0.8928
10400TIP3    H252616   3.102   6.780   2.430 -0.3439  0.0308 -1.1371
10401TIP3   OH252617   3.938   0.597  15.949  0.3881 -0.3745 -0.5262
10401TIP3    H152618   3.976   0.585  15.862 -0.8215  0.3742 -1.1886
10401TIP3    H252619   3.873   0.527  15.958  0.5165 -0.4588 -0.2128
10402TIP3   OH252620   5.566   5.992   5.379 -0.6742 -0.1042 -0.3329
10402TIP3    H152621   5.523   6.053   5.439  0.0025  0.1976 -0.1454
10402TIP3    H252622   5.526   6.011   5.294 -3.1338 -1.9408  0.3107
10403TIP3   OH252623   0.341   5.466   1.363  0.6108 -0.0987 -0.3662
10403TIP3    H152624   0.417   5.451   1.308  0.8035 -1.5939  0.2740
10403TIP3    H252625   0.285   5.525   1.312  1.7726  0.2875 -1.2131
10404TIP3   OH252626   6.445   3.434  11.393 -0.0225 -0.8433 -0.1807
10404TIP3    H152627   6.538   3.413  11.408  0.8481  1.4444 -1.7899
10404TIP3    H252628   6.425   3.501  11.458  0.2966  0.6018 -1.5205
10405TIP3   OH252629   1.008   3.528   4.732  0.4017  0.1449  0.0441
10405TIP3    H152630   0.983   3.572   4.651 -0.4117 -0.3909 -0.0134
10405TIP3    H252631   1.095   3.494   4.714  0.4430  0.4764 -0.4228
10406TIP3   OH252632   3.066   5.670  11.755 -0.2484  0.1923 -0.2238
10406TIP3    H152633   2.979   5.631  11.763 -0.0086 -0.2059  0.4391
10406TIP3    H252634   3.049   5.765  11.760 -0.8007  0.1988 -1.6200
10407TIP3   OH252635   4.009   0.352   5.957 -0.3745  0.1285  0.2842
10407TIP3    H152636   3.959   0.396   6.025  0.1067  1.7942 -0.3807
10407TIP3    H252637   3.952   0.355   5.880  1.2020  3.5350 -0.9532
10408TIP3   OH252638   3.310   6.339  15.044 -0.4510 -0.3272  0.0066
10408TIP3    H152639   3.347   6.398  14.978  0.9055 -0.3371  0.7225
10408TIP3    H252640   3.268   6.397  15.107  0.4016 -0.1440  0.4199
10409TIP3   OH252641   6.357   1.914  14.931 -0.0235 -0.0009 -0.5680
10409TIP3    H152642   6.309   1.995  14.949  0.6194  0.0722  1.0661
10409TIP3    H252643   6.432   1.917  14.991  0.4772 -1.4106 -1.0740
10410TIP3   OH252644   3.259   1.022   2.749 -0.4134  0.0354 -0.1302
10410TIP3    H152645   3.295   1.031   2.661  0.4231  2.0255  0.3664
10410TIP3    H252646   3.191   1.090   2.755 -1.2753 -0.8306  0.4027
10411TIP3   OH252647   4.662   3.609  12.370 -0.8803  0.0103 -0.3820
10411TIP3    H152648   4.696   3.577  12.286 -2.5573  1.2677 -1.5979
10411TIP3    H252649   4.740   3.623  12.424  0.3717  0.7489 -2.2993
10412TIP3   OH252650   4.040   0.603  16.595 -0.3364  0.4872  0.3621
10412TIP3    H152651   3.962   0.639  16.552  0.3211  0.2027 -1.1365
10412TIP3    H252652   4.022   0.611  16.689 -2.3757 -0.0118  0.0637
10413TIP3   OH252653   0.336   1.985   5.071 -0.3061 -0.4839 -0.2798
10413TIP3    H152654   0.293   2.071   5.063 -0.5613 -0.7563 -2.7676
10413TIP3    H252655   0.264   1.923   5.084 -0.3213 -0.5367 -0.6091
10414TIP3   OH252656   0.540   5.380  14.874 -0.6522 -0.0918  0.8506
10414TIP3    H152657   0.542   5.469  14.840 -1.3832 -0.3261  0.1691
10414TIP3    H252658   0.478   5.383  14.947 -0.5170  0.0049  0.9610
10415TIP3   OH252659   5.344   5.432   3.919  0.1800 -0.1464  0.7444
10415TIP3    H152660   5.335   5.403   3.828  0.9445 -1.1452  0.9597
10415TIP3    H252661   5.255   5.453   3.947 -0.3702 -1.8184  0.3816
10416TIP3   OH252662   0.357   2.385  13.150 -0.9494 -0.0790  0.0840
10416TIP3    H152663   0.327   2.379  13.240 -0.8278  1.0127  0.2095
10416TIP3    H252664   0.431   2.447  13.153 -0.4498 -0.6182 -0.6403
10417TIP3   OH252665   0.256   4.039  10.842  0.4016  0.0046  0.0477
10417TIP3    H152666   0.195   3.967  10.825  2.3306 -1.3443 -1.7305
10417TIP3    H252667   0.262   4.086  10.759  1.7893  0.0443  0.1415
10418TIP3   OH252668   4.387   2.658   0.125 -0.4457 -0.1171 -0.1331
10418TIP3    H152669   4.369   2.569   0.096 -1.1798 -0.0783  0.1833
10418TIP3    H252670   4.360   2.659   0.217  1.1525 -0.0359  0.3588
10419TIP3   OH252671   1.109   1.639  15.306 -0.0529 -0.4690  0.1201
10419TIP3    H152672   1.197   1.670  15.287 -0.7728  2.0960  0.5207
10419TIP3    H252673   1.109   1.621  15.400  0.1606 -0.8666  0.0418
10420TIP3   OH252674   1.448   4.062   2.817 -0.6070 -0.2383 -0.3573
10420TIP3    H152675   1.521   4.101   2.771 -0.7336 -1.0916 -1.3193
10420TIP3    H252676   1.472   3.970   2.827 -0.3586  0.0141  1.7494
10421TIP3   OH252677   6.667   0.276  14.903 -0.0219 -0.3623 -0.3190
10421TIP3    H152678   6.633   0.365  14.908 -0.1550 -0.4791  1.8114
10421TIP3    H252679   6.598   0.225  14.861 -0.5454  0.2595 -0.2169
10422TIP3   OH252680   3.828   4.909  11.635 -0.0975  0.4941 -0.4083
10422TIP3    H152681   3.746   4.956  11.617 -0.1841 -0.4291 -2.7527
10422TIP3    H252682   3.857   4.878  11.549 -0.5280 -4.5778  0.9856
10423TIP3   OH252683   2.407   0.284   2.212 -0.2856  0.1813  0.0854
10423TIP3    H152684   2.425   0.355   2.274  2.5840 -0.7509  0.4746
10423TIP3    H252685   2.390   0.328   2.129  1.8668  1.3868  0.2119
10424TIP3   OH252686   5.433   4.866   2.605  0.3035  0.3705 -0.0504
10424TIP3    H152687   5.348   4.843   2.642  0.0675 -0.8695 -1.2895
10424TIP3    H252688   5.460   4.944   2.653 -1.5990  0.8749  0.2710
10425TIP3   OH252689   6.794   0.300  13.795  0.6474 -0.3157  0.1344
10425TIP3    H152690   6.864   0.236  13.788 -0.4945 -1.4313 -2.2567
10425TIP3    H252691   6.746   0.292  13.713 -2.4744  0.1573  1.7495
10426TIP3   OH252692   5.806   4.017   2.346 -0.6124  0.2873  0.5057
10426TIP3    H152693   5.874   3.967   2.391  0.7694  1.0491 -0.6378
10426TIP3    H252694   5.810   4.104   2.385  0.1771  0.7786 -0.6372
10427TIP3   OH252695   3.104   3.260  13.194 -0.5038  0.6110 -0.4620
10427TIP3    H152696   3.098   3.167  13.173  3.2668  0.3893 -1.3510
10427TIP3    H252697   3.098   3.264  13.289  0.4983 -0.7433 -0.3181
10428TIP3   OH252698   1.584   1.082   5.604  0.5103  0.2083  0.1846
10428TIP3    H152699   1.634   1.132   5.540  0.9469 -0.5426 -0.0682
10428TIP3    H252700   1.492   1.095   5.577  0.7374 -1.3804 -1.6090
10429TIP3   OH252701   3.723   4.381   6.137  0.4366  0.0201  0.0186
10429TIP3    H152702   3.661   4.318   6.174  1.6892 -0.3287  1.6447
10429TIP3    H252703   3.807   4.334   6.135  1.7859  1.9998  2.7883
10430TIP3   OH252704   3.414   5.096   0.138 -0.1204 -0.2439  0.2566
10430TIP3    H152705   3.423   5.023   0.199 -3.7136 -1.6994 -0.6804
10430TIP3    H252706   3.354   5.157   0.181 -0.5265  0.0381 -0.6666
10431TIP3   OH252707   6.362   5.266   0.391 -0.9505 -0.2033  0.0928
10431TIP3    H152708   6.352   5.278   0.486 -0.9666 -0.3517  0.1093
10431TIP3    H252709   6.356   5.355   0.356  1.1710  0.1017  0.4045
10432TIP3   OH252710   3.431   6.511  14.818 -0.2254 -0.0849 -0.4722
10432TIP3    H152711   3.519   6.487  14.847 -0.4046  0.2020  0.3677
10432TIP3    H252712   3.427   6.487  14.726  1.4445  1.7822 -1.0896
10433TIP3   OH252713   0.269   1.429  13.219  0.2688 -0.2728 -0.0148
10433TIP3    H152714   0.283   1.338  13.245 -0.7786  0.0379  1.7976
10433TIP3    H252715   0.307   1.481  13.290 -0.8202  0.6664 -0.0765
10434TIP3   OH252716   1.893   4.339  15.804  0.0203  0.6353 -0.3369
10434TIP3    H152717   1.964   4.276  15.795 -0.2911  0.1990  0.1662
10434TIP3    H252718   1.825   4.307  15.744 -1.0100 -0.7860  1.4531
10435TIP3   OH252719   6.177   1.110  16.096  0.1157  0.5360  0.4000
10435TIP3    H152720   6.142   1.054  16.165  0.5268 -0.5108 -0.2245
10435TIP3    H252721   6.216   1.184  16.142 -1.1683  0.7529  1.1999
10436TIP3   OH252722   2.786   3.035  11.563 -0.0866  0.0928 -0.3169
10436TIP3    H152723   2.857   3.006  11.505 -1.3468  0.5124 -2.1649
10436TIP3    H252724   2.779   2.966  11.629  2.3841  0.3185  0.2767
10437TIP3   OH252725   2.179   0.498   3.034  0.4212  0.6532  0.2637
10437TIP3    H152726   2.265   0.516   2.997  1.2570 -0.0255  1.8098
10437TIP3    H252727   2.195   0.435   3.104 -1.1043  1.8079  1.7341
10438TIP3   OH252728   4.364   1.921  13.114 -0.1179  0.1220 -0.6224
10438TIP3    H152729   4.317   1.997  13.148 -0.0115 -0.2538  0.3804
10438TIP3    H252730   4.296   1.854  13.102 -0.3872  0.6827 -2.4977
10439TIP3   OH252731   5.510   5.497  11.231 -0.3882 -0.2042  0.9868
10439TIP3    H152732   5.419   5.511  11.204 -0.2273  0.0004  0.5261
10439TIP3    H252733   5.507   5.489  11.326 -0.9331 -0.5661  0.9397
10440TIP3   OH252734   1.511   1.495  15.787  0.5046  0.4662 -0.8307
10440TIP3    H152735   1.567   1.489  15.710 -0.0159  3.8026 -1.5968
10440TIP3    H252736   1.555   1.558  15.845 -0.3711 -0.0816  0.4858
10441TIP3   OH252737   2.352   4.694   4.929 -0.2987  0.1640 -0.2619
10441TIP3    H152738   2.281   4.655   4.878  1.0942 -2.4643 -0.3682
10441TIP3    H252739   2.310   4.764   4.979 -2.1248  1.4710 -3.3368
10442TIP3   OH252740   2.763   6.460  15.799  0.4658 -0.1482  0.2487
10442TIP3    H152741   2.772   6.389  15.735  0.3068 -0.0993  0.1712
10442TIP3    H252742   2.677   6.446  15.837 -0.0983  0.7299 -0.6535
10443TIP3   OH252743   2.152   1.439  12.630 -0.0897 -0.1193 -0.2302
10443TIP3    H152744   2.102   1.439  12.712 -0.6647  0.0339 -0.5774
10443TIP3    H252745   2.233   1.392  12.652 -0.4045 -0.4173  0.3252
10444TIP3   OH252746   3.182   1.111  10.553  0.7882 -0.2696  0.0298
10444TIP3    H152747   3.200   1.191  10.504 -3.1153 -0.6563 -2.4371
10444TIP3    H252748   3.193   1.041  10.489  0.6591 -1.3833  1.1808
10445TIP3   OH252749   1.358   0.571   0.990 -0.1139 -0.2627 -0.5923
10445TIP3    H152750   1.442   0.542   0.955  0.0104  0.0037 -0.5203
10445TIP3    H252751   1.352   0.663   0.964  0.7841  0.4544  1.5802
10446TIP3   OH252752   0.071   5.523   1.700  0.2449 -0.0627 -0.1107
10446TIP3    H152753   0.066   5.548   1.608  0.9250  0.7492  0.0624
10446TIP3    H252754  -0.006   5.562   1.740 -0.1188 -0.5191 -0.3436
10447TIP3   OH252755   3.841   2.421   0.228  0.6390 -0.4069  0.4258
10447TIP3    H152756   3.756   2.382   0.204 -1.3651  2.4802  2.2264
10447TIP3    H252757   3.894   2.411   0.149 -2.4029  0.3148 -1.9345
10448TIP3   OH252758   2.994   1.468  14.574  0.2674 -0.5233  0.6436
10448TIP3    H152759   2.932   1.404  14.540  1.5831 -1.4889 -0.0165
10448TIP3    H252760   2.989   1.542  14.513  0.7744 -1.1895 -0.2262
10449TIP3   OH252761   4.685   4.404   4.905 -0.2838 -0.0458  0.1053
10449TIP3    H152762   4.702   4.494   4.934  0.0780 -0.0854  0.0109
10449TIP3    H252763   4.743   4.390   4.831 -1.3750  0.1301 -0.8233
10450TIP3   OH252764   6.701   5.114  12.724 -0.0564 -0.0508  0.6133
10450TIP3    H152765   6.685   5.020  12.715 -1.5894  0.2636 -0.3400
10450TIP3    H252766   6.733   5.142  12.638  0.0469  0.3616  0.7810
10451TIP3   OH252767   5.462   0.329  16.834 -0.5227 -0.5085  0.1692
10451TIP3    H152768   5.527   0.259  16.830  0.7640  0.5073  1.8379
10451TIP3    H252769   5.413   0.322  16.753  0.7663 -2.2013 -0.5009
10452TIP3   OH252770   5.168   0.902  12.408  0.5423  0.2110 -0.4610
10452TIP3    H152771   5.148   0.976  12.351  0.2467 -0.0254 -0.6646
10452TIP3    H252772   5.207   0.837  12.350  0.7481  0.1847 -0.2923
10453TIP3   OH252773   5.636   1.093  14.057  0.0168 -0.1100 -0.0713
10453TIP3    H152774   5.646   1.011  14.008  1.5097 -0.1428  0.2411
10453TIP3    H252775   5.584   1.070  14.133  0.9717 -0.9239  0.3490
10454TIP3   OH252776   1.287   0.638   5.595 -0.2048 -0.3684 -0.1987
10454TIP3    H152777   1.258   0.709   5.538 -0.7583 -1.2457 -1.0313
10454TIP3    H252778   1.207   0.601   5.631  0.1458  0.4599  1.5618
10455TIP3   OH252779   2.389   0.566  15.218  0.1618  0.0955 -0.1536
10455TIP3    H152780   2.392   0.481  15.261 -0.8178  0.6594  1.1025
10455TIP3    H252781   2.462   0.615  15.256  0.1427  0.1306 -0.1614
10456TIP3   OH252782   0.263   6.492  14.111  0.2822  0.1079  0.5585
10456TIP3    H152783   0.330   6.456  14.169 -1.9095 -2.3002  1.8072
10456TIP3    H252784   0.189   6.511  14.168 -0.7381  1.0582 -0.9964
10457TIP3   OH252785   4.667   2.972  15.113 -0.0861 -0.2602  0.6158
10457TIP3    H152786   4.602   3.041  15.103  0.8294  0.5827  0.3967
10457TIP3    H252787   4.627   2.910  15.175 -2.0800 -0.9962 -1.2884
10458TIP3   OH252788   1.704   0.825  13.381 -0.6065  0.5794  0.5226
10458TIP3    H152789   1.783   0.771  13.388 -0.5859  0.6756  1.1372
10458TIP3    H252790   1.734   0.914  13.393 -0.7040  0.6915 -0.0422
10459TIP3   OH252791   3.437   1.689   0.009  0.1108  0.3049 -0.0052
10459TIP3    H152792   3.514   1.675  -0.046 -0.8298  0.1090 -1.2917
10459TIP3    H252793   3.372   1.627  -0.023 -0.7963  0.8748  0.6764
10460TIP3   OH252794   0.300   3.765   4.064  0.1940 -0.2075  0.0075
10460TIP3    H152795   0.286   3.685   4.013 -3.1037  0.7357 -0.7786
10460TIP3    H252796   0.366   3.813   4.015 -0.0921 -1.0564 -1.2681
10461TIP3   OH252797   5.612   2.393  15.446 -0.1590  0.6313  0.3301
10461TIP3    H152798   5.675   2.322  15.459 -2.5364 -1.7448 -0.3875
10461TIP3    H252799   5.543   2.376  15.510 -1.2616  1.7279 -0.5172
10462TIP3   OH252800   2.873   0.120  16.069  0.0787  0.0852  0.0316
10462TIP3    H152801   2.829   0.115  15.984  0.8916  0.1341 -0.4043
10462TIP3    H252802   2.865   0.032  16.105 -3.0747  0.8013  1.3871
10463TIP3   OH252803   6.080   3.713   2.257 -0.0787 -0.3263  0.0890
10463TIP3    H152804   6.122   3.707   2.171  0.4688  1.0868  0.2231
10463TIP3    H252805   6.143   3.760   2.311 -1.2278  0.5801  0.7018
10464TIP3   OH252806   5.587   2.034   6.416  0.1940 -0.0939 -0.0856
10464TIP3    H152807   5.660   2.046   6.354  0.6346  0.0638  0.4543
10464TIP3    H252808   5.570   1.940   6.414  1.5501 -0.3926  1.0298
10465TIP3   OH252809   4.447   5.403   0.508 -0.4385  0.0442 -0.1401
10465TIP3    H152810   4.470   5.417   0.416 -2.2923  0.0010 -0.6543
10465TIP3    H252811   4.527   5.369   0.548  0.6229  0.7922 -1.5534
10466TIP3   OH252812   5.422   3.458   4.875  0.3262  0.2505  0.1002
10466TIP3    H152813   5.403   3.386   4.936 -0.2273  0.1314 -0.1969
10466TIP3    H252814   5.346   3.459   4.816 -0.3117  1.9329  0.9076
10467TIP3   OH252815   6.604   3.412   2.870  0.1451 -0.6020  0.2489
10467TIP3    H152816   6.632   3.365   2.791 -0.2860  0.1463 -0.3633
10467TIP3    H252817   6.529   3.363   2.902 -1.2102  0.4151 -1.1998
10468TIP3   OH252818   6.765   6.651  16.160 -0.9389  0.5285  0.1327
10468TIP3    H152819   6.772   6.743  16.185  2.5853  0.3239  0.4089
10468TIP3    H252820   6.751   6.653  16.065  2.4939  1.5224 -0.4970
10469TIP3   OH252821   2.875   4.900  14.631 -0.2720 -0.4360  0.2958
10469TIP3    H152822   2.914   4.968  14.575  0.1577  0.1602  1.2764
10469TIP3    H252823   2.814   4.854  14.574 -0.1877  0.4429 -0.5412
10470TIP3   OH252824   6.565   4.452  12.079 -0.1457 -0.1724 -0.1140
10470TIP3    H152825   6.531   4.449  12.168 -1.1831  3.6941 -0.2238
10470TIP3    H252826   6.660   4.444  12.089 -0.3854 -2.6356  0.9647
10471TIP3   OH252827   5.352   0.115   3.436 -0.3799 -0.1256  0.0520
10471TIP3    H152828   5.318   0.030   3.463  1.6810 -0.8434  0.5696
10471TIP3    H252829   5.444   0.100   3.418  0.1528  2.0871  0.5806
10472TIP3   OH252830   2.526   2.447   0.222  0.5283 -0.2881 -0.3553
10472TIP3    H152831   2.439   2.459   0.258  0.8032 -0.1513  0.2891
10472TIP3    H252832   2.563   2.535   0.218  0.7717 -0.3847 -0.2722
10473TIP3   OH252833   0.983   6.557   5.300 -0.1280 -0.2802 -0.2019
10473TIP3    H152834   0.910   6.495   5.304 -0.3483 -0.1715 -1.7157
10473TIP3    H252835   1.018   6.559   5.388 -1.0861 -1.3996  0.2315
10474TIP3   OH252836   4.697   2.203  15.354  0.3204 -0.0389  0.5191
10474TIP3    H152837   4.742   2.138  15.300  1.4828  0.5477  0.7516
10474TIP3    H252838   4.736   2.194  15.441  1.1459  1.5427  0.3481
10475TIP3   OH252839   5.249   4.638   2.275 -0.2490 -0.4117 -0.0204
10475TIP3    H152840   5.236   4.686   2.193 -1.2455  1.8678  1.3953
10475TIP3    H252841   5.333   4.669   2.308  0.5454 -1.9273 -0.4930
10476TIP3   OH252842   1.755   4.233   3.482  0.0688 -0.3854 -0.1629
10476TIP3    H152843   1.806   4.275   3.412  0.2643 -0.5243 -0.1039
10476TIP3    H252844   1.756   4.296   3.554  1.2291 -0.9060  0.3019
10477TIP3   OH252845   5.613   4.695   1.351 -0.1019 -0.3425  0.1389
10477TIP3    H152846   5.554   4.757   1.309  0.0216  0.3772  1.0042
10477TIP3    H252847   5.678   4.675   1.284 -0.0491  0.5873 -0.0986
10478TIP3   OH252848   0.034   2.763  11.616  0.0190 -0.2304 -0.2346
10478TIP3    H152849   0.109   2.784  11.673  0.3558  0.8780 -1.0619
10478TIP3    H252850   0.040   2.825  11.544 -0.9991 -0.9452 -0.9660
10479TIP3   OH252851   1.635   1.850  14.414 -0.3818  0.2502 -0.2483
10479TIP3    H152852   1.641   1.825  14.507 -0.8633  1.2487  0.0695
10479TIP3    H252853   1.590   1.777  14.373 -1.8195  0.5884  0.6607
10480TIP3   OH252854   3.932   5.566  15.305  0.6393 -0.6973  0.2364
10480TIP3    H152855   3.924   5.529  15.217 -0.4615 -0.6101  0.2942
10480TIP3    H252856   3.851   5.541  15.349  1.1995 -0.7791  1.2510
10481TIP3   OH252857   4.939   1.698  15.195 -0.0733  0.3596  0.1050
10481TIP3    H152858   5.007   1.734  15.139 -0.7876  0.0850 -0.9901
10481TIP3    H252859   4.940   1.604  15.176 -0.7940  0.3632  0.0284
10482TIP3   OH252860   6.771   5.783   2.798 -0.0531  0.0955  0.4327
10482TIP3    H152861   6.791   5.695   2.829 -0.8588 -0.3175 -0.1924
10482TIP3    H252862   6.714   5.820   2.866 -0.7814 -0.3457  0.0682
10483TIP3   OH252863   3.771   5.584  13.492  0.4525 -0.3309  0.9224
10483TIP3    H152864   3.709   5.589  13.565 -0.2434 -1.9966  0.4900
10483TIP3    H252865   3.731   5.635  13.422  0.8109  0.7180  1.4523
10484TIP3   OH252866   1.412   4.169  15.776  0.5575  0.7750  0.3122
10484TIP3    H152867   1.501   4.169  15.812  0.2561 -1.4409  1.1840
10484TIP3    H252868   1.362   4.225  15.836  1.2175  1.5941  0.1230
10485TIP3   OH252869   6.321   2.465  13.539 -0.4471  0.3104 -0.0285
10485TIP3    H152870   6.296   2.450  13.630  0.7806  1.9945  0.6532
10485TIP3    H252871   6.363   2.551  13.541  0.9110 -0.2669 -1.9401
10486TIP3   OH252872   0.537   1.017  16.888  0.4302 -0.4531 -0.1560
10486TIP3    H152873   0.496   0.956  16.827 -0.1002 -0.3788  0.1248
10486TIP3    H252874   0.520   0.979  16.975 -0.4418  0.4064  0.0599
10487TIP3   OH252875   1.384   0.322   5.983 -0.6323 -0.3607 -0.1778
10487TIP3    H152876   1.352   0.286   5.900  0.5056  0.5388 -1.0548
10487TIP3    H252877   1.456   0.381   5.957 -0.6420  0.4022  1.3996
10488TIP3   OH252878   5.247   5.083  15.349  0.5402 -0.0449  0.7517
10488TIP3    H152879   5.198   5.127  15.418  0.2329  2.7204 -1.0624
10488TIP3    H252880   5.217   4.992  15.352 -3.0919  1.0052  1.1385
10489TIP3   OH252881   4.415   2.490   1.718 -0.0938 -0.1949 -0.5192
10489TIP3    H152882   4.340   2.438   1.690 -0.2970  0.4303 -1.1655
10489TIP3    H252883   4.467   2.502   1.638 -0.2236  0.8759 -0.4489
10490TIP3   OH252884   2.376   6.274   2.873  0.1096  0.2659 -0.1731
10490TIP3    H152885   2.381   6.348   2.934  0.3305  0.4038 -0.3575
10490TIP3    H252886   2.403   6.311   2.789  1.9673 -0.4082  0.0767
10491TIP3   OH252887   0.975   4.061  14.614 -0.5420 -0.1851  0.1388
10491TIP3    H152888   0.883   4.035  14.624 -0.5709 -0.1946 -0.1374
10491TIP3    H252889   0.972   4.134  14.552 -0.1312 -1.8817 -2.0200
10492TIP3   OH252890   5.989   6.718  11.501  0.2196  0.5292  0.1636
10492TIP3    H152891   5.936   6.756  11.432  1.4833  1.3579 -0.3799
10492TIP3    H252892   6.059   6.671  11.455  1.9404  2.3125  0.8042
10493TIP3   OH252893   6.117   0.038  10.768 -0.2154 -0.5971 -0.1745
10493TIP3    H152894   6.032   0.080  10.753  0.3997  1.6181  1.8446
10493TIP3    H252895   6.179   0.111  10.777  2.0754 -2.1317 -2.1404
10494TIP3   OH252896   6.222   3.451   5.355  0.4405 -0.7159  0.0217
10494TIP3    H152897   6.212   3.526   5.296 -0.9018 -1.8447 -1.2308
10494TIP3    H252898   6.147   3.456   5.413  0.8072 -0.6331  0.5005
10495TIP3   OH252899   3.005   3.852   5.964  0.0061  0.1824  0.1877
10495TIP3    H152900   2.936   3.890   5.909 -0.1698  1.2526  1.1187
10495TIP3    H252901   2.985   3.883   6.052  0.7447 -0.8556  0.7434
10496TIP3   OH252902   6.600   3.182  15.358 -0.5193 -0.2721  0.2742
10496TIP3    H152903   6.693   3.178  15.335 -0.4253 -0.1804  0.6304
10496TIP3    H252904   6.573   3.271  15.336 -0.9530 -0.7891 -1.4216
10497TIP3   OH252905   3.757   2.428  15.914  0.0098 -0.3876  0.0686
10497TIP3    H152906   3.767   2.523  15.920 -1.6098 -0.1289 -0.5898
10497TIP3    H252907   3.803   2.403  15.834  1.9959 -0.4621  1.1818
10498TIP3   OH252908   1.244   1.374   1.964  0.1670 -0.2669 -0.1758
10498TIP3    H152909   1.221   1.420   2.045 -0.0392  2.1148 -1.5009
10498TIP3    H252910   1.331   1.406   1.942 -0.2495  0.0127 -1.4825
10499TIP3   OH252911   4.544   4.096   5.588  0.2541 -0.0506 -0.0937
10499TIP3    H152912   4.635   4.126   5.592  0.4851 -0.7573  0.2389
10499TIP3    H252913   4.511   4.129   5.504  0.3061  1.5861  0.4952
10500TIP3   OH252914   5.868   1.906   2.059 -0.0695 -0.1008  0.1979
10500TIP3    H152915   5.900   1.903   1.969 -2.1964 -0.6317 -0.6013
10500TIP3    H252916   5.891   1.993   2.090  0.5774  0.1325 -0.9061
10501TIP3   OH252917   5.808   4.097  13.532  0.5231  0.7406  0.4185
10501TIP3    H152918   5.780   4.138  13.614 -2.0856  1.3266 -0.6541
10501TIP3    H252919   5.896   4.131  13.516  0.1660  2.4304  1.8130
10502TIP3   OH252920   2.583   4.477   6.033 -0.3469  0.0992 -0.5573
10502TIP3    H152921   2.541   4.480   6.119  2.5957  2.6448  0.9938
10502TIP3    H252922   2.522   4.524   5.975 -1.4845  0.0745  0.5784
10503TIP3   OH252923   3.833   0.707  16.431 -0.0759  0.2436 -0.0342
10503TIP3    H152924   3.909   0.727  16.375  1.1252  0.0745  1.4576
10503TIP3    H252925   3.770   0.665  16.372  1.0077  0.3421 -1.3184
10504TIP3   OH252926   4.368   4.953  12.382 -0.0526  0.3301 -0.4086
10504TIP3    H152927   4.316   4.999  12.316 -0.6301  1.4894  0.8063
10504TIP3    H252928   4.440   4.913  12.333  0.0969  1.9758 -1.6208
10505TIP3   OH252929   0.457   1.805  12.607  0.1698 -0.5888 -0.3497
10505TIP3    H152930   0.545   1.774  12.587 -0.3763 -2.0771 -0.5227
10505TIP3    H252931   0.449   1.887  12.558  0.8709 -1.2972 -1.7035
10506TIP3   OH252932   4.095   5.429   0.816 -0.2253 -0.4523  0.3507
10506TIP3    H152933   4.059   5.342   0.830 -2.0466  0.3850  1.2491
10506TIP3    H252934   4.018   5.486   0.807  0.9086  1.0237 -0.4545
10507TIP3   OH252935   6.594   6.751  15.413 -0.4939 -0.1001 -0.1405
10507TIP3    H152936   6.638   6.712  15.489  1.1309 -0.2047 -1.0878
10507TIP3    H252937   6.620   6.844  15.416 -1.5960  0.2120  0.2105
10508TIP3   OH252938   0.601   0.387   4.288  0.4402 -0.1934 -0.0406
10508TIP3    H152939   0.567   0.476   4.277 -2.3131 -1.1175  0.0832
10508TIP3    H252940   0.687   0.399   4.327  0.1818  2.4158 -0.0792
10509TIP3   OH252941   5.558   0.743  13.465  0.2665 -0.5278 -0.0454
10509TIP3    H152942   5.514   0.676  13.413  1.3636 -1.0499 -0.3436
10509TIP3    H252943   5.535   0.826  13.423  0.7194 -0.9023 -1.0598
10510TIP3   OH252944   3.473   6.586  13.640  0.2732  0.3091 -0.3325
10510TIP3    H152945   3.435   6.548  13.719  0.1370 -2.6585 -1.6960
10510TIP3    H252946   3.567   6.595  13.660  0.0567  0.7321  0.5341
10511TIP3   OH252947   3.050   1.844   5.846 -0.4278 -0.2123  0.3447
10511TIP3    H152948   3.047   1.796   5.929  1.3648 -0.0515  0.5399
10511TIP3    H252949   3.102   1.922   5.865 -0.2439 -0.0245 -0.8657
10512TIP3   OH252950   3.256   5.786   3.785  0.5297  0.3032 -0.8794
10512TIP3    H152951   3.180   5.792   3.844  2.0946  0.9921  1.1671
10512TIP3    H252952   3.241   5.706   3.735 -0.9395 -0.2246  0.3188
10513TIP3   OH252953   1.821   0.002  15.910  0.0772  0.7368 -0.6962
10513TIP3    H152954   1.762  -0.061  15.952 -0.6598  0.1027 -2.6059
10513TIP3    H252955   1.875  -0.051  15.852  0.4053  1.6937 -1.2834
10514TIP3   OH252956   4.877   4.985   2.677  0.4975  0.0019 -0.2724
10514TIP3    H152957   4.968   4.966   2.656  0.0095  0.3333 -3.0211
10514TIP3    H252958   4.855   5.061   2.624 -1.1189  0.5862  1.1265
10515TIP3   OH252959   3.413   3.462   0.671 -0.6945 -0.2127 -0.1275
10515TIP3    H152960   3.488   3.474   0.729 -0.3188 -1.7970 -0.2567
10515TIP3    H252961   3.443   3.493   0.586 -1.1470  1.8235  0.3766
10516TIP3   OH252962   6.360   6.155  14.111 -0.0645  0.1353  0.6189
10516TIP3    H152963   6.267   6.138  14.124  0.0734 -0.5938  0.6932
10516TIP3    H252964   6.363   6.219  14.041 -0.6339  0.4418  0.8655
10517TIP3   OH252965   1.868   0.884   0.764 -0.1297 -0.0061  0.0227
10517TIP3    H152966   1.867   0.974   0.798 -1.9674 -0.2484  0.7580
10517TIP3    H252967   1.833   0.892   0.675 -1.8898 -0.1312  0.6583
10518TIP3   OH252968   2.880   5.883  11.808  0.4874 -0.3657  0.4370
10518TIP3    H152969   2.886   5.949  11.739 -1.6549  0.4361  0.9231
10518TIP3    H252970   2.839   5.929  11.881 -1.0917 -2.2014  0.8022
10519TIP3   OH252971   5.538   2.671  16.899 -0.0711 -0.4070  0.1902
10519TIP3    H152972   5.576   2.742  16.951 -1.8632  2.4236 -2.1045
10519TIP3    H252973   5.614   2.627  16.861  1.1315 -0.3773  2.3564
10520TIP3   OH252974   4.684   1.932  15.658 -0.2340  0.5242 -0.2719
10520TIP3    H152975   4.750   1.932  15.589  0.0048  0.8255 -0.0469
10520TIP3    H252976   4.711   2.002  15.717  0.3537 -0.6140  0.8822
10521TIP3   OH252977   5.536   3.821  14.493  0.7541 -0.4494  0.0928
10521TIP3    H152978   5.598   3.750  14.476 -0.2889 -1.6717  1.2052
10521TIP3    H252979   5.473   3.815  14.421  2.5588  1.6835 -1.8562
10522TIP3   OH252980   2.435   6.247   1.191  0.0514  0.7051  0.0597
10522TIP3    H152981   2.474   6.168   1.155 -1.4804 -0.3978  0.7195
10522TIP3    H252982   2.504   6.286   1.244  2.0935  1.9332 -3.2124
10523TIP3   OH252983   0.551   1.259  14.308 -0.1878  0.1538  0.1599
10523TIP3    H152984   0.584   1.348  14.315  1.3782 -0.2968 -0.8499
10523TIP3    H252985   0.463   1.268  14.271  0.0956  1.2650 -0.2712
10524TIP3   OH252986   2.359   4.114  14.689  0.0308  0.4188  0.2826
10524TIP3    H152987   2.385   4.105  14.597  1.2323 -1.3025  0.7447
10524TIP3    H252988   2.265   4.132  14.686 -0.2012 -0.8426 -1.2480
10525TIP3   OH252989   1.563   3.357   0.646 -0.2437  0.5200  0.2328
10525TIP3    H152990   1.582   3.426   0.582  2.4612 -0.7150 -0.4819
10525TIP3    H252991   1.492   3.307   0.606 -0.4669  1.3649 -0.4807
10526TIP3   OH252992   2.638   2.934  16.781  0.8686 -0.0284  0.2419
10526TIP3    H152993   2.674   3.020  16.801  0.0524  0.2797  0.4398
10526TIP3    H252994   2.573   2.919  16.850  1.1455 -0.8906  0.3229
10527TIP3   OH252995   1.695   4.218  17.086  0.3229  0.0017  0.1455
10527TIP3    H152996   1.669   4.307  17.109 -0.4158 -0.1041 -0.2433
10527TIP3    H252997   1.627   4.163  17.126 -0.2858 -0.2575 -1.2137
10528TIP3   OH252998   1.423   1.000   2.894  0.3776 -0.3324 -0.1249
10528TIP3    H152999   1.335   0.965   2.910  0.3777  0.6029  2.4663
10528TIP3    H253000   1.472   0.927   2.856 -0.6553 -1.9448  1.4848
10529TIP3   OH253001   6.069   4.400   5.649 -0.3340  0.0485  0.3160
10529TIP3    H153002   6.091   4.468   5.713  1.1714 -0.2670  0.1612
10529TIP3    H253003   6.032   4.329   5.701 -1.0394  0.5859  0.5810
10530TIP3   OH253004   1.514   4.087  13.092  0.4128  0.3003  0.3167
10530TIP3    H153005   1.585   4.111  13.152 -0.3550  0.1041  1.3202
10530TIP3    H253006   1.547   4.011  13.045  0.5847 -0.2706  1.3357
10531TIP3   OH253007   0.590   4.606  16.729  0.0312  0.2788 -0.1557
10531TIP3    H153008   0.636   4.534  16.685 -1.3636  0.0586 -1.3219
10531TIP3    H253009   0.499   4.596  16.702 -0.4020  1.7575  0.6791
10532TIP3   OH253010   1.024   5.881   4.567 -0.5977 -0.9979  0.3567
10532TIP3    H153011   0.934   5.908   4.546 -0.4023 -0.5893  0.0281
10532TIP3    H253012   1.016   5.789   4.592 -0.9147 -1.4035 -1.1187
10533TIP3   OH253013   3.170   2.530   4.503 -0.5421  0.1550 -0.2797
10533TIP3    H153014   3.095   2.491   4.457  0.0449 -0.3485 -0.8372
10533TIP3    H253015   3.201   2.461   4.561 -1.5573  0.9378  1.2520
10534TIP3   OH253016   1.408   2.900   4.011 -0.3702  0.0282  0.3260
10534TIP3    H153017   1.481   2.945   4.052 -0.7431  0.2902  0.7079
10534TIP3    H253018   1.392   2.948   3.930  0.8165 -0.9052 -0.4992
10535TIP3   OH253019   6.191   1.275   2.430 -0.1992 -0.3528 -0.8545
10535TIP3    H153020   6.099   1.256   2.450 -0.1407 -1.0161 -1.2016
10535TIP3    H253021   6.209   1.357   2.477 -0.5602 -0.9559  0.3817
10536TIP3   OH253022   1.361   2.247  12.109 -0.7365  0.3054  0.5170
10536TIP3    H153023   1.397   2.316  12.054 -1.0647  1.7603  2.0363
10536TIP3    H253024   1.267   2.267  12.114 -1.0291 -0.9092  0.0859
10537TIP3   OH253025   5.359   2.486   2.881  0.4440 -0.3124  0.3363
10537TIP3    H153026   5.341   2.522   2.968  3.2963  1.0515  0.4723
10537TIP3    H253027   5.296   2.528   2.823  0.6347  1.2923  1.2553
10538TIP3   OH253028   5.003   2.746   1.529 -0.8229 -0.6282 -0.2787
10538TIP3    H153029   4.961   2.682   1.586  0.7870 -2.2114 -0.7805
10538TIP3    H253030   4.940   2.818   1.524 -2.5772 -2.0160  0.5604
10539TIP3   OH253031   6.658   2.692   5.661 -0.4064  0.4413  0.5362
10539TIP3    H153032   6.607   2.770   5.638 -1.6842 -0.3146  0.7091
10539TIP3    H253033   6.593   2.629   5.692  0.6408 -0.5749  0.7361
10540TIP3   OH253034   0.918   3.531   5.388  0.3166 -0.0009  0.3231
10540TIP3    H153035   0.982   3.543   5.318 -0.0309 -0.3422 -0.0535
10540TIP3    H253036   0.883   3.619   5.404  1.7578  0.4219  1.3928
10541TIP3   OH253037   6.054   5.574   1.723  0.1520 -0.3990 -0.6846
10541TIP3    H153038   6.092   5.600   1.806  0.6859 -0.4018 -0.9242
10541TIP3    H253039   5.960   5.590   1.733  0.3966  1.0946 -0.6385
10542TIP3   OH253040   6.626   1.372  16.475  0.5559 -0.4073 -0.6217
10542TIP3    H153041   6.580   1.423  16.408  1.3413  1.2699  0.0436
10542TIP3    H253042   6.568   1.373  16.550 -0.2930 -2.2288 -1.1992
10543TIP3   OH253043   2.638   5.134   2.191 -0.1059  0.0268  0.3308
10543TIP3    H153044   2.590   5.113   2.110  0.1920 -0.0937  0.1836
10543TIP3    H253045   2.696   5.059   2.204 -0.7748 -0.3587  1.1433
10544TIP3   OH253046   4.346   0.783  13.700 -0.1802 -0.1403 -0.4428
10544TIP3    H153047   4.435   0.757  13.726 -0.4673  0.0886  0.8474
10544TIP3    H253048   4.358   0.827  13.616  0.8618 -0.5615 -0.5349
10545TIP3   OH253049   6.139   5.475   3.097  0.0346  0.5415  0.1916
10545TIP3    H153050   6.104   5.403   3.150  0.2094 -0.6232 -1.2161
10545TIP3    H253051   6.065   5.503   3.044  0.5046 -0.1308 -0.8632
10546TIP3   OH253052   5.403   5.089  14.113 -0.0358 -0.6502  0.4462
10546TIP3    H153053   5.368   5.163  14.063 -0.4168 -0.9710  0.2390
10546TIP3    H253054   5.390   5.013  14.057  2.8179 -0.5478 -0.5650
10547TIP3   OH253055   0.489   0.921  17.145  0.2163 -0.2741  0.3306
10547TIP3    H153056   0.494   0.982  17.219  1.7908 -0.7077  0.6091
10547TIP3    H253057   0.405   0.877  17.157  1.2178 -1.6648  2.9752
10548TIP3   OH253058   0.443   1.241   1.440 -0.4237 -0.4331 -0.5733
10548TIP3    H153059   0.362   1.195   1.465 -0.5952  1.4058  2.7587
10548TIP3    H253060   0.511   1.174   1.448 -1.1152 -1.0275  0.6126
10549TIP3   OH253061   1.732   4.082   3.123 -0.2288  0.0391  0.1588
10549TIP3    H153062   1.656   4.137   3.106 -0.1924  0.1481  0.3448
10549TIP3    H253063   1.718   4.049   3.211  0.6374  1.2119  0.7647
10550TIP3   OH253064   2.513   4.949  15.053  0.0173 -0.0946  0.9320
10550TIP3    H153065   2.555   4.954  14.967 -0.9077  2.3382  0.5248
10550TIP3    H253066   2.558   4.878  15.098 -0.0358 -2.0146 -1.8299
10551TIP3   OH253067   4.611   5.688   3.228 -0.2603 -0.0052 -0.5865
10551TIP3    H153068   4.564   5.728   3.155 -2.0974 -1.6182 -0.3672
10551TIP3    H253069   4.635   5.601   3.196  0.5866 -0.0363  0.1016
10552TIP3   OH253070   2.356   3.065   4.494  0.2935  0.1271 -0.4015
10552TIP3    H153071   2.319   3.071   4.406 -0.2987  2.1436 -0.0717
10552TIP3    H253072   2.418   3.138   4.500 -0.1488  0.4343  1.0415
10553TIP3   OH253073   1.916   6.426  13.639  0.0599 -0.2805  0.3910
10553TIP3    H153074   1.903   6.461  13.551  0.5617  0.5551  0.6306
10553TIP3    H253075   1.835   6.447  13.685  0.4534  0.8582  0.6092
10554TIP3   OH253076   2.055   0.716  16.996 -0.5941 -0.2458 -0.6517
10554TIP3    H153077   2.000   0.639  16.986 -1.4679  0.2384  0.2154
10554TIP3    H253078   2.019   0.761  17.073  0.7569  0.3034 -0.3185
10555TIP3   OH253079   6.242   2.366  12.574 -0.0768 -0.4655  0.4603
10555TIP3    H153080   6.148   2.351  12.583 -0.2333  0.8799  1.5511
10555TIP3    H253081   6.282   2.308  12.639 -0.0476 -1.8521 -0.7656
10556TIP3   OH253082   4.597   0.257  12.853  0.6691  0.0629  0.2065
10556TIP3    H153083   4.580   0.313  12.929 -1.0083 -0.6337  0.4081
10556TIP3    H253084   4.584   0.168  12.887  2.3271 -0.4032 -0.3296
10557TIP3   OH253085   5.790   1.498  10.634  0.4231 -0.2041  0.2481
10557TIP3    H153086   5.862   1.528  10.689  0.5873 -1.4103  0.6956
10557TIP3    H253087   5.826   1.427  10.582 -0.6617 -1.4259  1.1060
10558TIP3   OH253088   1.218   3.465  13.208 -0.1382 -0.3801  0.2448
10558TIP3    H153089   1.175   3.546  13.180 -0.6655 -0.7469 -0.0181
10558TIP3    H253090   1.305   3.493  13.236 -0.1507  0.2155 -0.2786
10559TIP3   OH253091   3.419   0.578  14.190 -0.4117 -0.4797 -0.1314
10559TIP3    H153092   3.496   0.634  14.181 -0.0244 -1.0970 -0.8092
10559TIP3    H253093   3.346   0.632  14.161 -0.3773  0.4023  1.3356
10560TIP3   OH253094   0.242   0.173  15.768  0.5075  0.4226 -0.2201
10560TIP3    H153095   0.273   0.185  15.678  1.3438 -1.5641 -0.2628
10560TIP3    H253096   0.321   0.154  15.818  0.0509  1.5061  0.9523
10561TIP3   OH253097   0.018   6.686   6.036 -0.0298 -0.1631 -0.6710
10561TIP3    H153098  -0.000   6.717   5.947  2.1890 -0.9910 -1.4958
10561TIP3    H253099   0.054   6.598   6.023  0.5594 -0.1975  1.0248
10562TIP3   OH253100   3.488   6.402   5.827 -0.1481  0.5798  0.3182
10562TIP3    H153101   3.543   6.376   5.901 -3.9073  1.2743  3.7157
10562TIP3    H253102   3.519   6.490   5.804  2.2895 -0.3772 -0.2987
10563TIP3   OH253103   6.750   6.293   4.891  0.3855  0.3052  1.0452
10563TIP3    H153104   6.783   6.347   4.819 -1.8992  1.7627  0.9859
10563TIP3    H253105   6.827   6.277   4.946  1.3927  2.6935  0.4654
10564TIP3   OH253106   3.625   6.275  12.642 -0.1045 -0.4066  0.2112
10564TIP3    H153107   3.591   6.216  12.710  0.8158  0.2412  1.2737
10564TIP3    H253108   3.567   6.351  12.645  0.2676 -0.1364  0.6747
10565TIP3   OH253109   5.803   0.359  10.547 -0.2685 -0.2809 -0.2861
10565TIP3    H153110   5.739   0.367  10.477 -0.2901 -1.0245 -0.3606
10565TIP3    H253111   5.858   0.437  10.539 -1.6253  0.7831  0.2702
10566TIP3   OH253112   2.942   0.265   3.530 -0.5126  0.5193 -0.4977
10566TIP3    H153113   2.946   0.350   3.575  0.8904  0.7507 -1.0383
10566TIP3    H253114   2.901   0.285   3.446  0.9286  0.9219 -1.1390
10567TIP3   OH253115   4.066   4.393   0.530  0.4244 -0.3338  0.0440
10567TIP3    H153116   4.000   4.398   0.461  0.2737  2.0865  0.2684
10567TIP3    H253117   4.149   4.407   0.486  0.4138  0.3278  0.2268
10568TIP3   OH253118   3.201   1.363   3.862 -0.1511 -0.0366  0.2939
10568TIP3    H153119   3.149   1.407   3.795  0.2318 -0.7277 -0.4597
10568TIP3    H253120   3.261   1.431   3.893  1.1030 -0.2543 -1.5459
10569TIP3   OH253121   5.672   5.386  13.473  0.3130 -0.4062 -0.2385
10569TIP3    H153122   5.713   5.434  13.400  1.1398 -0.0996  0.4167
10569TIP3    H253123   5.698   5.434  13.551 -1.9884  0.3027  0.1782
10570TIP3   OH253124   0.935   1.580  12.469  0.1982  0.1673  0.0471
10570TIP3    H153125   1.007   1.518  12.458  1.2373  1.6960 -2.7345
10570TIP3    H253126   0.872   1.557  12.401 -0.5242  0.7300  0.4991
10571TIP3   OH253127   2.174   5.120  15.315 -0.2281 -0.2131 -0.1833
10571TIP3    H153128   2.247   5.172  15.283  0.3790 -0.5198  0.6676
10571TIP3    H253129   2.157   5.057  15.245  0.2877 -0.1064 -0.4090
10572TIP3   OH253130   4.342   5.425   1.043  0.1290  0.1388  0.0720
10572TIP3    H153131   4.278   5.371   1.090 -0.9492  2.4927  1.4888
10572TIP3    H253132   4.305   5.436   0.955 -3.2515  3.9410  1.6743
10573TIP3   OH253133   0.078   5.511   0.378 -0.2037 -0.2635 -0.5608
10573TIP3    H153134   0.096   5.589   0.431 -2.7602 -0.2469  0.4293
10573TIP3    H253135   0.152   5.505   0.318  1.2460  1.5419  0.9252
10574TIP3   OH253136   6.097   6.330   1.080 -0.0479 -0.0710 -0.0971
10574TIP3    H153137   6.013   6.293   1.104  0.6415 -0.3871  2.0275
10574TIP3    H253138   6.092   6.421   1.108  0.7839 -0.4547  1.4300
10575TIP3   OH253139   2.988   0.232   6.147  0.3782 -0.1504 -0.3792
10575TIP3    H153140   3.030   0.164   6.200 -0.5298 -1.5635 -1.3937
10575TIP3    H253141   2.985   0.309   6.205  1.3745 -0.9802  0.8294
10576TIP3   OH253142   0.286   4.939   4.578  0.5986  0.1753 -0.2489
10576TIP3    H153143   0.280   4.900   4.666 -1.0819  0.6727 -0.1154
10576TIP3    H253144   0.310   5.030   4.594 -1.0393  0.6232 -0.1870
10577TIP3   OH253145   3.796   2.133   4.614  0.7983  1.1754 -0.0137
10577TIP3    H153146   3.834   2.096   4.535  1.0543  1.1157  0.1364
10577TIP3    H253147   3.751   2.212   4.584  2.1292  1.9546 -0.0088
10578TIP3   OH253148   1.520   4.616  12.968  0.2559 -0.4572  0.2081
10578TIP3    H153149   1.569   4.695  12.942 -0.7295  0.6912  1.6609
10578TIP3    H253150   1.516   4.563  12.888  2.3532  0.1884 -0.3951
10579TIP3   OH253151   0.466   1.471   0.534 -0.1033 -0.4689  0.2544
10579TIP3    H153152   0.460   1.378   0.553 -1.5906 -0.4966 -0.2049
10579TIP3    H253153   0.517   1.475   0.453  0.4536 -0.8358  0.5819
10580TIP3   OH253154   1.302   2.612  11.277  0.9123 -0.7607  0.5516
10580TIP3    H153155   1.306   2.517  11.290  3.6018 -0.6436  1.2323
10580TIP3    H253156   1.305   2.622  11.182 -2.6337 -1.3205  0.2449
10581TIP3   OH253157   2.434   0.721  15.832 -0.2932 -0.4377  0.9043
10581TIP3    H153158   2.507   0.658  15.826 -1.7159 -2.1049  0.2537
10581TIP3    H253159   2.380   0.701  15.756 -0.8876  1.5212  0.7786
10582TIP3   OH253160   6.432   6.390  13.769  0.1051 -0.4944  0.7266
10582TIP3    H153161   6.469   6.324  13.710 -0.1781 -1.5615  1.7096
10582TIP3    H253162   6.438   6.472  13.720  0.6663 -1.2075 -0.4396
10583TIP3   OH253163   3.358   5.613   4.614 -0.1111 -0.5456  0.3806
10583TIP3    H153164   3.322   5.537   4.570  0.7596 -0.5521 -0.3511
10583TIP3    H253165   3.312   5.688   4.575 -0.0722 -0.6197  0.1917
10584TIP3   OH253166   0.631   4.503   5.670 -0.1065  0.7970 -0.3232
10584TIP3    H153167   0.724   4.506   5.689 -0.0055  0.8401 -0.8098
10584TIP3    H253168   0.626   4.495   5.575 -0.6033  1.2149 -0.3400
10585TIP3   OH253169   6.503   6.483   1.687  0.0002 -0.4234 -0.2640
10585TIP3    H153170   6.574   6.545   1.703  0.2222 -0.4949 -0.9597
10585TIP3    H253171   6.536   6.425   1.620  0.2810 -2.0876  1.2386
10586TIP3   OH253172   2.124   0.840  15.209  0.0870  0.0386  0.3228
10586TIP3    H153173   2.193   0.870  15.151  2.4640 -1.7702  2.0310
10586TIP3    H253174   2.159   0.852  15.297 -1.5967 -1.3143  1.2569
10587TIP3   OH253175   1.257   4.523   0.834  0.3863  0.2334 -0.3826
10587TIP3    H153176   1.338   4.479   0.807 -0.6759 -0.8799 -2.0047
10587TIP3    H253177   1.192   4.452   0.837 -0.4418  1.0204  1.3702
10588TIP3   OH253178   2.886   0.029  13.195  0.1889 -0.1206 -0.0863
10588TIP3    H153179   2.848   0.074  13.120  0.7337  1.2655  0.4219
10588TIP3    H253180   2.855   0.079  13.271  0.2507 -1.0400  0.5544
10589TIP3   OH253181   6.292   2.920  12.480  0.5551  0.0881  0.2480
10589TIP3    H153182   6.254   2.925  12.392  1.1670 -0.5407 -0.0615
10589TIP3    H253183   6.337   2.836  12.482  0.7982  0.2299  1.0646
10590TIP3   OH253184   1.013   5.368  13.563 -0.1355 -0.2056  0.5351
10590TIP3    H153185   0.928   5.363  13.519  0.7663  3.1392 -2.1385
10590TIP3    H253186   1.001   5.435  13.631  0.1761 -0.1343  0.5227
10591TIP3   OH253187   3.758   4.838  13.581  0.1182 -0.4457 -0.3210
10591TIP3    H153188   3.784   4.802  13.496  0.0173 -0.7787 -0.2144
10591TIP3    H253189   3.675   4.883  13.564  0.5458  0.2687 -0.5795
10592TIP3   OH253190   4.107   2.921   2.336  0.2305  0.3094  0.1929
10592TIP3    H153191   4.077   2.966   2.257  1.1609  0.0688 -0.3119
10592TIP3    H253192   4.192   2.960   2.355  0.0946  0.2451  0.9856
10593TIP3   OH253193   1.996   5.052   1.029 -0.1981  0.6821  0.0971
10593TIP3    H153194   1.953   4.977   1.071  0.2130  0.5764  0.3337
10593TIP3    H253195   1.928   5.089   0.972 -0.7876  0.8584  0.8889
10594TIP3   OH253196   1.660   3.883   1.417  0.3008  0.2112  0.2735
10594TIP3    H153197   1.651   3.849   1.506 -0.9527 -0.1474  0.0322
10594TIP3    H253198   1.596   3.834   1.366 -0.9306  2.2804 -0.2750
10595TIP3   OH253199   4.834   5.028  15.463 -0.0621 -0.6523  0.5453
10595TIP3    H153200   4.790   5.010  15.546  0.3840 -0.1051  0.9049
10595TIP3    H253201   4.775   5.089  15.417  1.6765  2.6658  2.3624
10596TIP3   OH253202   6.212   1.998   0.072  0.1665 -0.1656 -0.6562
10596TIP3    H153203   6.119   2.011   0.085  0.2958 -0.9542  1.3889
10596TIP3    H253204   6.243   2.079   0.031 -1.0237  1.0741  0.7998
10597TIP3   OH253205   5.360   4.110   1.438 -1.1034 -0.2804 -0.3498
10597TIP3    H153206   5.284   4.158   1.471 -1.3159  0.4825 -1.8473
10597TIP3    H253207   5.332   4.077   1.352  0.5452  0.9130 -1.4216
10598TIP3   OH253208   2.408   4.565   0.561  0.2231  0.2082  0.2358
10598TIP3    H153209   2.364   4.491   0.519  1.7547 -0.3076 -0.5656
10598TIP3    H253210   2.448   4.613   0.489 -0.8661  1.9444  0.7351
10599TIP3   OH253211   5.038   3.653   0.974  0.3057  0.1479  0.1845
10599TIP3    H153212   5.010   3.637   0.884  2.9705  1.2988 -0.9603
10599TIP3    H253213   5.085   3.574   0.999  1.0725  0.4999 -0.1140
10600TIP3   OH253214   6.064   1.023  15.316  0.4010 -0.2715  0.3218
10600TIP3    H153215   6.025   1.026  15.229  1.7487 -1.2716 -0.3509
10600TIP3    H253216   6.001   0.976  15.370  0.0467 -0.6215 -0.3923
10601TIP3   OH253217   1.474   0.158   6.688  0.3565 -0.1945 -0.2035
10601TIP3    H153218   1.567   0.182   6.686  0.4024 -0.3382  0.2335
10601TIP3    H253219   1.467   0.084   6.627  0.3149  0.5583 -1.1361
10602TIP3   OH253220   5.645   3.567  13.196 -0.7044  0.1201  0.3574
10602TIP3    H153221   5.604   3.601  13.276 -1.0179 -0.9579  0.6635
10602TIP3    H253222   5.678   3.646  13.151 -0.2538  0.7295  1.6857
10603TIP3   OH253223   4.318   5.874   6.495  0.7231 -0.3374 -0.0838
10603TIP3    H153224   4.282   5.913   6.415  0.4781  0.0296  0.1999
10603TIP3    H253225   4.383   5.937   6.524 -0.5087  0.4760  1.0302
10604TIP3   OH253226   5.877   2.485   2.844  0.3988 -0.4212 -0.2970
10604TIP3    H153227   5.807   2.419   2.846 -0.1050 -0.0142 -2.0634
10604TIP3    H253228   5.946   2.449   2.899 -1.4602 -0.4907  2.1739
10605TIP3   OH253229   2.351   4.208   3.033 -0.6421 -0.0232 -0.1484
10605TIP3    H153230   2.275   4.250   2.992  0.6084  1.5852 -0.9428
10605TIP3    H253231   2.367   4.130   2.980 -1.6612 -0.3128 -0.0439
10606TIP3   OH253232   3.463   3.431  11.565  0.7455 -0.1632  0.0768
10606TIP3    H153233   3.477   3.340  11.536  0.6220 -0.0340 -0.4055
10606TIP3    H253234   3.550   3.462  11.590  0.7139 -0.5697  0.7165
10607TIP3   OH253235   3.409   6.522   0.489  0.0808  0.1537  0.1285
10607TIP3    H153236   3.481   6.547   0.431 -0.8847 -3.4814 -2.9790
10607TIP3    H253237   3.444   6.450   0.541 -1.0205 -1.1793 -0.9120
10608TIP3   OH253238   3.621   3.115   4.635  0.3629 -0.4537 -0.5977
10608TIP3    H153239   3.671   3.056   4.691 -0.0549 -1.0890 -0.8838
10608TIP3    H253240   3.562   3.161   4.694  1.7968  0.8722 -0.1394
10609TIP3   OH253241   1.220   1.435   3.857  0.5384  0.3898  0.3277
10609TIP3    H153242   1.281   1.429   3.930  1.5504 -0.1974 -0.5254
10609TIP3    H253243   1.243   1.360   3.801  1.2853  2.0338 -1.6882
10610TIP3   OH253244   5.442   3.462   1.629  0.1179  0.4322  0.3358
10610TIP3    H153245   5.389   3.480   1.706  0.0713  0.6745  0.2466
10610TIP3    H253246   5.422   3.371   1.607  0.1431  0.3572  0.6177
10611TIP3   OH253247   5.144   1.403   5.480 -0.3798  0.4829 -0.4787
10611TIP3    H153248   5.171   1.422   5.570 -2.5589 -0.4433  0.4486
10611TIP3    H253249   5.176   1.314   5.463 -0.8878  0.2401 -0.1968
10612TIP3   OH253250   3.672   3.091  13.886  0.4588  0.1912 -0.0747
10612TIP3    H153251   3.763   3.071  13.904  0.7636  1.7064  0.2367
10612TIP3    H253252   3.674   3.179  13.849 -0.8061 -0.0824 -0.8450
10613TIP3   OH253253   2.103   0.177   2.096 -0.8019  0.7290  0.0450
10613TIP3    H153254   2.130   0.193   2.006  1.6692  1.7809  0.8883
10613TIP3    H253255   2.050   0.253   2.119  0.4015  1.5723  0.1235
10614TIP3   OH253256   2.575   3.129   5.640 -0.2533  0.2821 -0.4099
10614TIP3    H153257   2.610   3.215   5.663  0.4002  0.1688 -0.9388
10614TIP3    H253258   2.629   3.101   5.566 -0.1965 -0.7517  0.0059
10615TIP3   OH253259   1.348   5.136   5.469  0.2858 -0.2746  0.2758
10615TIP3    H153260   1.423   5.141   5.528  1.0623  0.9123 -0.7438
10615TIP3    H253261   1.319   5.226   5.459  0.2159 -0.4224 -1.1659
10616TIP3   OH253262   0.653   6.185  14.527  0.6405 -0.2096  0.1855
10616TIP3    H153263   0.625   6.124  14.596  0.6915 -0.5015 -0.0529
10616TIP3    H253264   0.666   6.268  14.573 -1.8879  0.2934  0.1116
10617TIP3   OH253265   2.542   3.083   1.680 -0.1974 -1.0515  0.3530
10617TIP3    H153266   2.587   3.167   1.668 -0.5476 -0.9693 -0.4023
10617TIP3    H253267   2.463   3.090   1.626 -0.9703 -1.3159  1.4108
10618TIP3   OH253268   5.678   2.653   6.719  0.4147  0.6152 -0.6282
10618TIP3    H153269   5.584   2.649   6.737  0.3910 -3.0420 -0.8891
10618TIP3    H253270   5.684   2.662   6.624  0.4431  2.4598 -0.5047
10619TIP3   OH253271   5.786   2.235   2.551 -0.4724  0.6551  0.2191
10619TIP3    H153272   5.706   2.263   2.596 -0.3908  1.2936 -0.0261
10619TIP3    H253273   5.806   2.306   2.491  0.7574  0.8901  0.8837
10620TIP3   OH253274   3.546   5.536   5.720  0.0973 -0.0258  0.7227
10620TIP3    H153275   3.592   5.616   5.694 -2.0343  1.3107  0.7976
10620TIP3    H253276   3.574   5.470   5.656  2.4494  0.5274  1.0888
10621TIP3   OH253277   5.097   3.361  13.732  0.0313 -0.4114 -0.3470
10621TIP3    H153278   5.073   3.350  13.823 -1.4025 -1.5806 -0.8368
10621TIP3    H253279   5.186   3.325  13.726  0.7437  1.0199  0.8352
10622TIP3   OH253280   1.124   5.773  13.314  0.2060 -0.3935  0.3377
10622TIP3    H153281   1.163   5.714  13.250 -1.2287 -0.7159 -0.2956
10622TIP3    H253282   1.149   5.738  13.399 -0.8027 -2.0898 -0.0187
10623TIP3   OH253283   2.751   4.297   3.755 -0.4371 -0.4858 -0.8827
10623TIP3    H153284   2.823   4.255   3.802 -1.2323 -0.0326  0.8255
10623TIP3    H253285   2.788   4.321   3.670  1.6546  0.4010  0.2110
10624TIP3   OH253286   4.810   3.968   4.012  0.5383  0.5237  0.7367
10624TIP3    H153287   4.743   4.025   4.049 -0.8584 -1.4913  1.5448
10624TIP3    H253288   4.770   3.932   3.933  0.4815 -0.9401  1.3891
10625TIP3   OH253289   2.593   6.742   2.758  0.2906 -0.4564 -1.2664
10625TIP3    H153290   2.555   6.790   2.685  0.0130  1.3431 -0.0067
10625TIP3    H253291   2.628   6.810   2.816 -1.9851 -1.5354  1.6554
10626TIP3   OH253292   3.074   6.739   1.066 -0.8974 -0.7632  0.5166
10626TIP3    H153293   3.158   6.696   1.054  1.3376  3.0777  0.5889
10626TIP3    H253294   3.047   6.763   0.977  0.7060  2.1192  0.6546
10627TIP3   OH253295   6.096   0.758   4.463  0.6474  0.6688  0.6240
10627TIP3    H153296   6.061   0.838   4.502 -2.3195 -1.0457  1.8918
10627TIP3    H253297   6.124   0.705   4.537  0.1917 -0.4365  0.0409
10628TIP3   OH253298   2.870   0.092   1.197 -0.1458  0.5318 -0.2597
10628TIP3    H153299   2.941   0.035   1.169 -1.6268 -0.2891 -2.6272
10628TIP3    H253300   2.828   0.044   1.269 -0.7221 -0.9400 -1.5233
10629TIP3   OH253301   3.611   2.740   1.035 -0.2140 -0.3855  0.2380
10629TIP3    H153302   3.695   2.695   1.048  0.0093 -0.7670 -1.9786
10629TIP3    H253303   3.634   2.818   0.983 -0.8958  1.1156  2.0766
10630TIP3   OH253304   3.249   6.512   2.431 -0.8346 -0.3749  0.5677
10630TIP3    H153305   3.211   6.486   2.515 -0.2219 -2.3310  0.3003
10630TIP3    H253306   3.233   6.437   2.374 -0.1585  0.4215 -0.7029
10631TIP3   OH253307   0.141   3.409  16.861  0.2235  0.4153 -0.5635
10631TIP3    H153308   0.057   3.437  16.824  1.3172  2.3828 -1.6880
10631TIP3    H253309   0.205   3.425  16.792  1.6555 -0.3993  0.5072
10632TIP3   OH253310   1.648   5.666  13.343 -0.4768 -0.6779 -1.0931
10632TIP3    H153311   1.665   5.587  13.291  1.1019 -0.6491 -0.6461
10632TIP3    H253312   1.733   5.691  13.379 -1.1687  0.5283 -0.2130
10633TIP3   OH253313   2.618   2.148  13.700  0.4485 -0.0332 -0.6117
10633TIP3    H153314   2.548   2.141  13.765  0.3416 -0.9005 -0.8154
10633TIP3    H253315   2.620   2.063  13.657  2.9565 -0.7679  0.7393
10634TIP3   OH253316   3.797   4.848  12.929  0.0916 -0.2118 -0.5324
10634TIP3    H153317   3.821   4.940  12.921  0.5910 -0.2384  0.5273
10634TIP3    H253318   3.743   4.844  13.008 -0.5441 -0.7120 -0.9851
10635TIP3   OH253319   0.198   2.365   4.395  0.0415  0.2577  0.6707
10635TIP3    H153320   0.179   2.457   4.378  1.7107  0.8118  1.5936
10635TIP3    H253321   0.246   2.336   4.317  1.0052  0.6774  1.0834
10636TIP3   OH253322   0.115   5.484   1.977 -0.3617 -0.4955 -0.1166
10636TIP3    H153323   0.122   5.570   2.018  0.3266 -0.5313 -0.1392
10636TIP3    H253324   0.162   5.493   1.894  1.0958 -1.2966  0.5783
10637TIP3   OH253325   4.047   2.526  12.161  0.0235  0.2264 -0.5808
10637TIP3    H153326   4.071   2.615  12.138 -1.1463  0.8491  0.5302
10637TIP3    H253327   4.080   2.514  12.251  0.7249 -0.6927 -0.9351
10638TIP3   OH253328   2.542   3.883   2.425 -0.3774 -0.0643  0.4517
10638TIP3    H153329   2.461   3.838   2.450 -0.5552  1.7581  3.5985
10638TIP3    H253330   2.602   3.868   2.498  1.0475  1.2499 -0.3850
10639TIP3   OH253331   2.251   3.537   0.967  0.0753 -0.4230  0.1901
10639TIP3    H153332   2.305   3.557   0.890  2.3296 -1.3856  1.4354
10639TIP3    H253333   2.193   3.613   0.976  0.7359  0.3561 -1.5877
10640TIP3   OH253334   3.095   0.144  16.773  0.2417  0.0098  0.3733
10640TIP3    H153335   3.009   0.176  16.800  0.4715  1.8532 -0.8817
10640TIP3    H253336   3.148   0.224  16.765  1.5037 -0.9078 -0.8204
10641TIP3   OH253337   3.072   2.359  10.610  0.4517  0.4546 -0.3012
10641TIP3    H153338   2.996   2.413  10.633 -0.1049 -0.6644  0.5878
10641TIP3    H253339   3.112   2.405  10.537  1.7227  3.6843  2.1711
10642TIP3   OH253340   1.933   5.324   1.881  0.2860  0.4930  0.1288
10642TIP3    H153341   1.860   5.348   1.824 -0.5802 -0.8726  0.6005
10642TIP3    H253342   1.976   5.252   1.835 -0.7165 -0.9627  1.3299
10643TIP3   OH253343   3.075   2.161  12.067  0.0115 -0.2716  0.2452
10643TIP3    H153344   3.046   2.150  12.158  2.3159 -0.4104  1.0121
10643TIP3    H253345   3.089   2.072  12.036  2.6721 -0.1976  0.9990
10644TIP3   OH253346   0.160   5.747   0.520  0.1962 -0.0648 -0.0006
10644TIP3    H153347   0.221   5.765   0.592 -1.2539 -0.3411  1.3609
10644TIP3    H253348   0.083   5.799   0.540  0.0745  0.5320 -1.8691
10645TIP3   OH253349   1.410   1.609   1.885  0.2974  0.2017  0.0437
10645TIP3    H153350   1.432   1.670   1.956  0.7258 -1.9784  1.9227
10645TIP3    H253351   1.324   1.637   1.855 -0.9646 -0.0368  3.0392
10646TIP3   OH253352   6.766   6.097  11.885  0.1757  0.2128  0.0226
10646TIP3    H153353   6.824   6.101  11.961  2.6176  0.4314 -1.7353
10646TIP3    H253354   6.751   6.003  11.872  0.7408  0.1078  0.0908
10647TIP3   OH253355   5.339   4.323   5.407 -0.0588  0.1183  0.4441
10647TIP3    H153356   5.433   4.307   5.409 -0.2278 -0.8700  1.1231
10647TIP3    H253357   5.305   4.258   5.345 -0.3831 -0.0369  0.7822
10648TIP3   OH253358   0.193   4.670  16.207  0.3002 -0.0487 -0.1645
10648TIP3    H153359   0.196   4.704  16.297  0.0386 -0.3669 -0.0346
10648TIP3    H253360   0.283   4.645  16.189  0.2801 -0.3723  0.1639
10649TIP3   OH253361   2.396   0.274  14.178  0.0872 -0.1744 -0.0685
10649TIP3    H153362   2.444   0.270  14.260 -0.2434 -0.1618  0.1302
10649TIP3    H253363   2.457   0.241  14.112 -0.0633 -1.3911  0.3722
10650TIP3   OH253364   2.063   6.587   5.023 -0.0089 -0.4377 -0.2342
10650TIP3    H153365   1.987   6.568   4.969 -0.4622 -0.9192  0.5545
10650TIP3    H253366   2.105   6.502   5.035  1.1695 -0.0504 -1.4017
10651TIP3   OH253367   3.192   3.194  11.000 -0.7292 -0.1470  0.0275
10651TIP3    H153368   3.255   3.161  10.936 -1.4542 -2.2331  0.2948
10651TIP3    H253369   3.146   3.264  10.955  0.4045  0.0461 -0.8686
10652TIP3   OH253370   2.522   1.667  11.681  0.8515 -0.5676  0.2007
10652TIP3    H153371   2.571   1.589  11.706  2.2147  0.1850 -0.0474
10652TIP3    H253372   2.501   1.653  11.588 -2.9910 -2.7105  1.1449
10653TIP3   OH253373   5.453   1.308   4.856 -0.0818 -0.9891  0.4625
10653TIP3    H153374   5.364   1.331   4.882 -1.3689 -4.0797 -0.6857
10653TIP3    H253375   5.445   1.287   4.763  2.1694 -0.1214  0.0246
10654TIP3   OH253376   3.789   2.776   1.752  0.1416 -0.4487 -0.0080
10654TIP3    H153377   3.819   2.719   1.682 -3.6146  0.9519 -3.1011
10654TIP3    H253378   3.694   2.769   1.750 -0.2876  2.4495  2.5368
10655TIP3   OH253379   2.158   5.055  11.249  0.6958 -0.1267  0.0225
10655TIP3    H153380   2.175   5.028  11.159  1.2338 -0.1744  0.1351
10655TIP3    H253381   2.071   5.018  11.269  0.5999 -0.1650 -0.4528
10656TIP3   OH253382   6.675   2.279   5.377 -1.1323  0.0877  0.0783
10656TIP3    H153383   6.708   2.283   5.287 -0.1686 -0.4098  0.4006
10656TIP3    H253384   6.604   2.344   5.379 -0.5286  0.7953 -0.7798
10657TIP3   OH253385   0.580   5.158  15.056 -0.4481 -0.2947  0.1116
10657TIP3    H153386   0.538   5.159  14.970  0.7783 -1.9962 -0.5474
10657TIP3    H253387   0.507   5.158  15.119 -1.3553  0.6138 -0.9005
10658TIP3   OH253388   2.499   6.675  10.362 -0.8535  0.3288  0.0169
10658TIP3    H153389   2.511   6.745  10.298 -1.0908  1.7554  1.4628
10658TIP3    H253390   2.569   6.613  10.343  0.1285  1.5654 -0.5445
10659TIP3   OH253391   3.765   6.518   2.814  0.0906 -0.2873  0.1003
10659TIP3    H153392   3.822   6.447   2.786 -0.9054 -0.0784 -2.8034
10659TIP3    H253393   3.701   6.477   2.871  0.0971 -1.5526 -0.7746
10660TIP3   OH253394   2.584   1.822  16.829  0.3808 -0.1668  0.2032
10660TIP3    H153395   2.638   1.744  16.813  0.6628 -0.1925  1.1976
10660TIP3    H253396   2.500   1.787  16.859  0.5782 -0.0993  0.8604
10661TIP3   OH253397   3.584   5.106  14.954 -0.5841 -0.2062 -0.7345
10661TIP3    H153398   3.599   5.019  14.990 -0.0769 -0.4370 -1.4796
10661TIP3    H253399   3.669   5.134  14.921 -0.6358  0.7751 -0.0777
10662TIP3   OH253400   6.750   2.202  13.217  0.2248  0.1057  0.5670
10662TIP3    H153401   6.804   2.144  13.270  0.6635 -0.2512 -0.2557
10662TIP3    H253402   6.777   2.290  13.243  0.4875 -0.0624  0.8684
10663TIP3   OH253403   4.959   0.047   0.586 -0.5204  0.3109 -0.4611
10663TIP3    H153404   4.903   0.044   0.663  0.7688  0.8677  0.5299
10663TIP3    H253405   4.975   0.141   0.572  1.7335  0.1361  0.4950
10664TIP3   OH253406   4.969   3.376   4.298  0.1084  0.6366  0.1035
10664TIP3    H153407   5.027   3.301   4.310  0.3818  0.3629 -2.3311
10664TIP3    H253408   4.989   3.435   4.370  1.1190 -0.8614  1.0952
10665TIP3   OH253409   1.996   4.700   3.497 -0.3340  0.4656 -0.0710
10665TIP3    H153410   2.009   4.725   3.405  0.1414 -1.5013 -0.5829
10665TIP3    H253411   2.082   4.712   3.537  0.6675 -2.7169 -0.9788
10666TIP3   OH253412   0.581   4.103   3.099 -0.1922 -0.3325 -0.5598
10666TIP3    H153413   0.554   4.183   3.144 -0.2669 -0.7954  0.2435
10666TIP3    H253414   0.537   4.106   3.014 -0.2320  0.4497 -0.5145
10667TIP3   OH253415   5.318   4.302   6.374 -0.4256  0.1750 -0.3700
10667TIP3    H153416   5.363   4.380   6.407  0.3086 -0.3524 -0.1096
10667TIP3    H253417   5.333   4.304   6.279  0.5348 -0.2244 -0.2383
10668TIP3   OH253418   6.355   4.583  16.411  0.2449  0.5157  0.1744
10668TIP3    H153419   6.381   4.673  16.433 -0.0625  1.0565 -1.5428
10668TIP3    H253420   6.266   4.574  16.447  0.6780  0.5093  1.2846
10669TIP3   OH253421   1.062   3.013  16.861 -0.2764 -0.0944 -0.1974
10669TIP3    H153422   1.135   3.054  16.908 -0.1435  0.0577 -0.5262
10669TIP3    H253423   1.020   3.086  16.815 -0.2896 -0.2663 -0.4570
10670TIP3   OH253424   5.011   1.060   1.891 -0.6736  0.2914  0.1250
10670TIP3    H153425   4.956   0.995   1.846  0.6186 -0.4342 -0.4584
10670TIP3    H253426   4.956   1.092   1.962 -2.0195 -0.0553 -0.7183
10671TIP3   OH253427   3.405   4.705   5.897 -0.2673 -0.4881 -0.2402
10671TIP3    H153428   3.394   4.612   5.919 -0.4688 -0.3546  0.2436
10671TIP3    H253429   3.469   4.737   5.961 -2.0653  0.2878  1.2846
10672TIP3   OH253430   6.079   0.181   5.998  0.2278 -0.1777 -0.3139
10672TIP3    H153431   5.993   0.140   6.011  0.9444 -1.5752  0.3028
10672TIP3    H253432   6.067   0.272   6.025 -0.8910 -0.5177  0.4136
10673TIP3   OH253433   2.059   3.325   1.215  0.0213  0.3762 -0.0951
10673TIP3    H153434   1.977   3.372   1.198 -0.3487 -0.4168 -0.5944
10673TIP3    H253435   2.119   3.392   1.247 -0.7153  1.0411 -0.0618
10674TIP3   OH253436   2.747   2.635  13.764 -0.3088  0.5499  0.2817
10674TIP3    H153437   2.657   2.610  13.786 -0.4596  1.5255  0.8129
10674TIP3    H253438   2.753   2.618  13.669  0.3182 -3.5686  0.8386
10675TIP3   OH253439   6.151   1.887   2.909 -0.7688 -0.1991  0.2882
10675TIP3    H153440   6.138   1.821   2.977 -1.2310 -2.0679 -1.5212
10675TIP3    H253441   6.067   1.893   2.865 -0.4220  0.8546 -0.2723
10676TIP3   OH253442   1.118   0.140   6.522  0.1437  0.3696 -0.3313
10676TIP3    H153443   1.035   0.093   6.508  0.4395 -0.3406  0.2368
10676TIP3    H253444   1.167   0.084   6.583 -0.1508  2.1855  1.6903
10677TIP3   OH253445   2.393   2.388  16.042 -0.4020  0.0738 -0.5625
10677TIP3    H153446   2.369   2.327  15.973 -0.6261  0.0975 -0.5054
10677TIP3    H253447   2.313   2.399  16.094 -0.5055  0.8231 -0.8793
10678TIP3   OH253448   4.150   5.790   1.759  0.3814 -0.5502 -0.5312
10678TIP3    H153449   4.228   5.736   1.748  0.6647 -0.3421  0.4349
10678TIP3    H253450   4.182   5.880   1.759 -0.0649 -0.3571 -1.8908
10679TIP3   OH253451   2.617   4.235  13.435  0.5839 -0.1383  0.4625
10679TIP3    H153452   2.534   4.243  13.387  0.4202  1.8697  0.9800
10679TIP3    H253453   2.614   4.306  13.499  1.9519 -1.1330  1.6783
10680TIP3   OH253454   2.007   3.573  12.407  0.1047 -0.3179  0.2596
10680TIP3    H153455   2.033   3.487  12.375 -2.0135 -0.8314 -0.2102
10680TIP3    H253456   2.005   3.628  12.329  0.4508 -0.0829  0.4096
10681TIP3   OH253457   6.272   2.603   0.302 -0.1372 -0.9148 -0.2133
10681TIP3    H153458   6.199   2.554   0.264  1.3262 -2.4828 -1.1605
10681TIP3    H253459   6.317   2.642   0.227 -0.4673  0.7790  0.4226
10682TIP3   OH253460   0.342   0.953   2.410 -0.6935  0.3993  0.4041
10682TIP3    H153461   0.304   0.906   2.485 -1.9291  0.5431 -0.1048
10682TIP3    H253462   0.390   1.026   2.449  1.1308 -1.1623  1.2025
10683TIP3   OH253463   0.765   3.853   5.909  0.0281 -1.5687  0.0747
10683TIP3    H153464   0.769   3.909   5.987  1.1640 -2.2189  0.5107
10683TIP3    H253465   0.837   3.791   5.921  1.0016 -0.9389 -2.0580
10684TIP3   OH253466   0.704   3.094  13.229  0.2041  0.2568 -0.5683
10684TIP3    H153467   0.784   3.041  13.231  0.9901  1.2638 -2.3570
10684TIP3    H253468   0.728   3.175  13.274 -0.4011 -0.1112  0.4639
10685TIP3   OH253469   4.110   1.605   0.592 -0.0559 -0.1192 -0.5647
10685TIP3    H153470   4.129   1.653   0.511  0.3349  1.2158  0.2954
10685TIP3    H253471   4.019   1.625   0.610  0.4863  1.5597  0.5662
10686TIP3   OH253472   1.343   6.575   3.820 -0.3727 -0.6111 -0.1124
10686TIP3    H153473   1.328   6.496   3.872 -0.4670 -0.3989  0.1884
10686TIP3    H253474   1.337   6.546   3.729  2.0001 -1.4642 -0.0921
10687TIP3   OH253475   0.932   1.267  14.015 -0.0920  0.5304 -0.2342
10687TIP3    H153476   0.930   1.177  14.045 -1.6505  0.6089 -0.0279
10687TIP3    H253477   0.846   1.281  13.973  0.4807  1.6233 -1.1166
10688TIP3   OH253478   3.176   5.001   0.771 -0.1862 -0.2885 -0.1093
10688TIP3    H153479   3.155   5.078   0.823 -0.3515 -1.1013  1.0776
10688TIP3    H253480   3.199   5.035   0.685  1.1057  1.1917  0.7764
10689TIP3   OH253481   1.708   5.134  13.165 -0.2788  0.3522 -0.4053
10689TIP3    H153482   1.781   5.186  13.201  2.0546 -1.1491 -2.6076
10689TIP3    H253483   1.710   5.052  13.214  0.6118 -0.3040 -1.4817
10690TIP3   OH253484   6.367   1.048   0.105 -0.0939 -0.3214 -0.1318
10690TIP3    H153485   6.444   1.008   0.146  0.6144  1.5046  0.4322
10690TIP3    H253486   6.321   1.090   0.178  0.7277  2.2632 -1.0140
10691TIP3   OH253487   1.575   5.198   5.657 -0.0763 -0.3887 -0.0105
10691TIP3    H153488   1.605   5.267   5.716  0.3089 -1.7373  1.4342
10691TIP3    H253489   1.651   5.141   5.646 -1.1610 -2.2071  1.2918
10692TIP3   OH253490   1.312   3.653   3.471  0.0268 -0.2683  0.2018
10692TIP3    H153491   1.359   3.677   3.551  0.3818 -1.8025  0.4901
10692TIP3    H253492   1.261   3.576   3.496 -1.4611  0.4337 -0.5289
10693TIP3   OH253493   6.438   4.857   4.445 -0.0175  0.1216  0.2236
10693TIP3    H153494   6.514   4.903   4.483 -1.0855  1.1899  1.1331
10693TIP3    H253495   6.431   4.776   4.496 -0.4293  0.7698  1.2434
10694TIP3   OH253496   0.248   6.747  12.163  0.9180 -0.7535  0.1504
10694TIP3    H153497   0.284   6.659  12.178  2.1013 -0.4960 -0.9427
10694TIP3    H253498   0.314   6.790  12.109 -0.3523  0.3057 -0.6019
10695TIP3   OH253499   1.024   3.125   3.980 -0.0696 -0.0051 -0.5347
10695TIP3    H153500   1.108   3.171   3.985 -0.2837  0.4995 -1.4199
10695TIP3    H253501   1.026   3.081   3.895 -1.2630  1.1616 -1.2144
10696TIP3   OH253502   2.730   2.565   5.900 -0.1016  0.3312  0.5854
10696TIP3    H153503   2.704   2.631   5.964  0.5378  0.2327  0.9529
10696TIP3    H253504   2.689   2.593   5.818  2.6183  2.8972 -0.0399
10697TIP3   OH253505   6.198   3.524   4.880 -0.8049  0.0977 -0.3531
10697TIP3    H153506   6.143   3.583   4.828 -0.4471  1.2240  0.4852
10697TIP3    H253507   6.139   3.489   4.947 -0.1435  3.4824  2.3628
10698TIP3   OH253508   0.425   6.283   0.352  0.8182 -0.4242 -0.3109
10698TIP3    H153509   0.375   6.206   0.325 -1.8851  0.5753  1.4385
10698TIP3    H253510   0.468   6.256   0.433 -0.0987 -0.1547  0.2818
10699TIP3   OH253511   0.318   4.103   0.559  0.1596  0.0838 -0.0238
10699TIP3    H153512   0.240   4.047   0.560  0.9943 -1.1094 -0.9928
10699TIP3    H253513   0.346   4.105   0.651 -0.5905 -0.0412  0.2236
10700TIP3   OH253514   3.040   1.248  13.883  0.2751 -0.4144  0.1699
10700TIP3    H153515   3.015   1.166  13.925  0.8932 -0.3256  0.7329
10700TIP3    H253516   3.117   1.277  13.932  0.2182  0.3660 -0.1915
10701TIP3   OH253517   2.015   0.799   3.323  0.8362 -0.2660  0.1959
10701TIP3    H153518   1.984   0.765   3.239  0.7240  0.5643 -0.1078
10701TIP3    H253519   2.101   0.758   3.335  0.1102 -1.7707  0.5452
10702TIP3   OH253520   5.739   2.823  13.466 -0.1551 -0.1539 -0.5654
10702TIP3    H153521   5.698   2.801  13.549 -1.3938 -0.0032 -1.1066
10702TIP3    H253522   5.774   2.740  13.433  1.1432 -0.0569  0.4998
10703TIP3   OH253523   2.344   2.805  16.394 -0.4015 -0.3584 -0.4100
10703TIP3    H153524   2.439   2.801  16.389 -0.2689  0.2756  1.0053
10703TIP3    H253525   2.322   2.895  16.368 -0.4664 -0.0450  0.6617
10704TIP3   OH253526   4.179   0.440  12.050  0.5039 -0.2885  0.8616
10704TIP3    H153527   4.208   0.483  11.969 -1.8264 -0.8027 -0.3191
10704TIP3    H253528   4.220   0.491  12.120  2.0721  0.5665 -0.6040
10705TIP3   OH253529   5.961   0.425  11.878 -0.0112  0.0801 -0.0269
10705TIP3    H153530   5.926   0.513  11.865  1.2437  1.1099  2.7844
10705TIP3    H253531   6.043   0.439  11.926  0.9725 -2.5826 -0.7355
10706TIP3   OH253532   4.343   0.209  11.128  0.5278  0.5455 -0.0061
10706TIP3    H153533   4.404   0.202  11.054 -0.3438 -1.0923 -0.6288
10706TIP3    H253534   4.371   0.139  11.187  1.0272  1.6529  1.1065
10707TIP3   OH253535   5.444   4.086   5.095  0.8315  0.1838  0.0377
10707TIP3    H153536   5.351   4.109   5.093 -0.1701 -3.2211  0.7986
10707TIP3    H253537   5.489   4.170   5.094 -2.2308  1.9920 -0.1664
10708TIP3   OH253538   5.101   5.247  15.089 -0.6453 -0.1604 -0.3936
10708TIP3    H153539   5.057   5.237  15.173 -0.8054 -0.9932 -0.5674
10708TIP3    H253540   5.031   5.241  15.023 -0.2035 -2.9693 -0.7552
10709TIP3   OH253541   6.438   3.787   3.230 -0.0716  0.2098 -0.4540
10709TIP3    H153542   6.475   3.700   3.217  2.3121  1.3367 -1.8189
10709TIP3    H253543   6.479   3.819   3.310 -0.9671  0.1076  0.0621
10710TIP3   OH253544   4.708   5.986   3.770  0.2854  0.5756  0.2958
10710TIP3    H153545   4.631   5.997   3.825 -0.1976 -1.5099  0.1127
10710TIP3    H253546   4.775   5.951   3.828  0.0435 -0.7948 -0.2101
10711TIP3   OH253547   2.046   5.594  13.521 -0.2646 -0.1343  0.4319
10711TIP3    H153548   2.129   5.616  13.564  0.4728 -1.8185 -0.0262
10711TIP3    H253549   2.044   5.649  13.443  0.6520 -0.3708  0.2267
10712TIP3   OH253550   0.388   6.431  16.709 -0.2049 -0.2566 -0.0340
10712TIP3    H153551   0.348   6.480  16.781 -1.3137 -0.7298 -0.3023
10712TIP3    H253552   0.462   6.387  16.748 -0.1153  0.4036  0.5588
10713TIP3   OH253553   3.962   5.647   5.617  0.2418  0.5686 -0.2175
10713TIP3    H153554   3.904   5.673   5.689 -0.0825 -0.0511 -0.2516
10713TIP3    H253555   4.026   5.719   5.611 -0.0220  0.8603  0.3631
10714TIP3   OH253556   1.099   2.679   6.487 -1.1926 -0.3394 -0.5535
10714TIP3    H153557   1.108   2.593   6.527 -1.4433 -0.4502 -0.7291
10714TIP3    H253558   1.129   2.741   6.554 -0.5594 -0.5918 -0.5997
10715TIP3   OH253559   2.531   3.752   0.982 -0.0780  0.2514  0.0529
10715TIP3    H153560   2.491   3.700   0.913  0.2084 -3.4136  2.3755
10715TIP3    H253561   2.617   3.777   0.946 -1.9395  3.4070 -2.8383
10716TIP3   OH253562   6.566   1.779   4.834  0.6850 -0.3274 -0.0312
10716TIP3    H153563   6.600   1.695   4.866 -0.4239 -0.1077  1.8716
10716TIP3    H253564   6.544   1.827   4.913  0.1962  1.3119 -1.1255
10717TIP3   OH253565   6.258   4.239   1.902  0.2902  0.4355  0.4995
10717TIP3    H153566   6.211   4.183   1.840  2.6060  0.2953 -1.2254
10717TIP3    H253567   6.252   4.327   1.865 -1.6902  1.1411  2.2308
10718TIP3   OH253568   1.300   2.933   3.368  0.1005 -0.5313  0.2720
10718TIP3    H153569   1.338   2.848   3.347 -0.3306 -0.7328  0.2948
10718TIP3    H253570   1.308   2.938   3.464 -1.0934 -1.1440  0.4197
10719TIP3   OH253571   0.793   1.725  13.799  0.2055 -0.4567 -0.0815
10719TIP3    H153572   0.867   1.677  13.834  0.2123  0.7032  1.5817
10719TIP3    H253573   0.719   1.666  13.808  0.1555 -0.1107  2.2189
10720TIP3   OH253574   3.020   2.739  16.104 -0.1493  0.6920  0.5008
10720TIP3    H153575   2.993   2.801  16.171 -0.8083  0.6624  0.2689
10720TIP3    H253576   3.109   2.714  16.129 -0.7528 -0.1341  1.9644
10721TIP3   OH253577   3.756   4.025  14.773 -0.1552 -0.6093 -0.9050
10721TIP3    H153578   3.799   3.947  14.738 -0.5295 -1.4353  0.4057
10721TIP3    H253579   3.690   3.991  14.834 -0.5243  0.7166 -0.5325
10722TIP3   OH253580   2.146   0.912  16.795  0.1193  0.0038 -0.2513
10722TIP3    H153581   2.055   0.938  16.786  0.1382  0.7613  1.3617
10722TIP3    H253582   2.142   0.823  16.832  0.0583 -0.3217 -1.0146
10723TIP3   OH253583   6.551   5.953  14.291  0.2602  0.1873 -0.4595
10723TIP3    H153584   6.620   5.989  14.347 -0.3449 -0.1024  0.4945
10723TIP3    H253585   6.582   5.970  14.202  0.7849  1.5434 -0.0496
10724TIP3   OH253586   5.882   1.608  14.869  0.0493  0.6299 -0.3860
10724TIP3    H153587   5.834   1.588  14.949  1.2875 -3.5877 -0.4154
10724TIP3    H253588   5.967   1.641  14.900  0.2403 -0.2466  0.0786
10725TIP3   OH253589   0.941   0.863   3.875 -0.3447 -0.0822 -0.2682
10725TIP3    H153590   0.968   0.820   3.956 -0.1441 -0.5238 -0.5690
10725TIP3    H253591   0.906   0.793   3.820 -1.2364  0.3349 -0.2566
10726TIP3   OH253592   4.194   0.247  11.639 -0.3862  0.3085  0.0002
10726TIP3    H153593   4.271   0.259  11.695  0.7134 -2.4978 -0.7673
10726TIP3    H253594   4.129   0.207  11.696  0.9114 -3.0429 -0.6682
10727TIP3   OH253595   0.510   1.933  16.617 -0.2769 -0.8061 -0.1306
10727TIP3    H153596   0.459   1.873  16.563 -2.0161 -0.4240  1.0002
10727TIP3    H253597   0.471   1.926  16.704  0.4812  0.8271  0.3826
10728TIP3   OH253598   0.258   4.189   3.621  0.8316  0.9249 -0.4923
10728TIP3    H153599   0.314   4.134   3.675 -1.8564 -1.7961 -0.1901
10728TIP3    H253600   0.218   4.251   3.682 -0.3487 -0.5463  0.2852
10729TIP3   OH253601   1.487   3.345  16.663 -0.3033 -0.1794 -0.3361
10729TIP3    H153602   1.525   3.369  16.579 -2.4221 -0.7853 -1.5424
10729TIP3    H253603   1.479   3.250  16.660  0.1202 -0.2703  0.8132
10730TIP3   OH253604   1.610   3.097  15.278  0.1329  0.8396  0.0387
10730TIP3    H153605   1.688   3.130  15.322  1.1527  0.0555 -1.1146
10730TIP3    H253606   1.571   3.173  15.236  0.1697  1.2626  0.7513
10731TIP3   OH253607   1.167   2.856   5.339 -0.1209  0.2661 -0.2826
10731TIP3    H153608   1.204   2.915   5.405  1.3732 -0.5651 -0.3125
10731TIP3    H253609   1.228   2.862   5.265 -1.3811  0.6370 -1.3318
10732TIP3   OH253610   1.977   5.674  14.168  0.0194  0.2545  0.3276
10732TIP3    H153611   2.045   5.653  14.232  1.1317  1.4112 -0.4487
10732TIP3    H253612   1.968   5.594  14.116 -1.0099 -0.7641  1.9472
10733TIP3   OH253613   3.963   3.496  15.518  0.0194  0.0124  0.2581
10733TIP3    H153614   3.889   3.556  15.524  0.6611  0.7571  0.9422
10733TIP3    H253615   4.018   3.532  15.449 -0.3903 -0.7190 -0.4764
10734TIP3   OH253616   3.064   1.093   6.292  0.3939 -0.2431 -0.0010
10734TIP3    H153617   2.991   1.093   6.230  0.8470  1.0018 -0.5544
10734TIP3    H253618   3.048   1.168   6.349  0.1802 -1.1595  1.1967
10735TIP3   OH253619   0.190   1.002  14.580  0.2052 -0.6465  0.1844
10735TIP3    H153620   0.264   0.942  14.580  1.3529  0.7106  0.2826
10735TIP3    H253621   0.173   1.019  14.487  0.0381 -0.9281  0.1627
10736TIP3   OH253622   1.268   5.951  12.760 -0.0409  0.7521  0.1564
10736TIP3    H153623   1.286   5.857  12.762  2.6157  1.1709 -0.1356
10736TIP3    H253624   1.176   5.958  12.785  0.0123 -1.8327  1.4481
10737TIP3   OH253625   5.147   4.720   2.698  0.0673  0.1379  0.0843
10737TIP3    H153626   5.074   4.708   2.759 -0.1135 -0.7626 -0.2837
10737TIP3    H253627   5.125   4.800   2.650 -0.5556  0.0152  0.1512
10738TIP3   OH253628   1.943   5.469  14.002  0.1887 -0.0410  0.1338
10738TIP3    H153629   1.883   5.395  13.989 -0.9429  0.7486  0.6856
10738TIP3    H253630   1.930   5.523  13.924  0.1124  0.1766  0.2963
10739TIP3   OH253631   5.737   2.163   1.819  0.1258 -0.8827 -0.0375
10739TIP3    H153632   5.666   2.106   1.849  1.2260 -1.0080  2.5875
10739TIP3    H253633   5.811   2.104   1.804  1.0466 -0.2995  1.9518
10740TIP3   OH253634   0.629   6.192   5.855 -0.2850  0.0222  0.3171
10740TIP3    H153635   0.698   6.254   5.877 -1.5348  1.3293  0.6724
10740TIP3    H253636   0.639   6.178   5.761  0.8174 -0.2778  0.4626
10741TIP3   OH253637   6.327   1.170  15.048  0.4252  0.7967  0.0726
10741TIP3    H153638   6.333   1.231  14.974 -0.0594 -0.0436 -0.6784
10741TIP3    H253639   6.342   1.225  15.125  1.5992  1.5739 -0.6747
10742TIP3   OH253640   2.573   0.471  16.870  0.0530  0.2938 -0.3576
10742TIP3    H153641   2.600   0.562  16.857  1.6032 -0.2299 -1.2035
10742TIP3    H253642   2.484   0.466  16.836  0.2737  1.3203 -1.1307
10743TIP3   OH253643   5.724   3.806   0.461  0.3765  0.0628 -0.0611
10743TIP3    H153644   5.641   3.848   0.438  0.9774  0.4009 -1.7394
10743TIP3    H253645   5.703   3.752   0.537 -1.1366  0.9363  0.1868
10744TIP3   OH253646   6.193   5.652  12.160 -0.1420 -0.1804  0.2654
10744TIP3    H153647   6.098   5.660  12.162 -0.1808 -0.5457  0.0444
10744TIP3    H253648   6.222   5.719  12.099 -0.2357  0.1084  0.5349
10745TIP3   OH253649   5.331   3.660  12.453 -0.1937 -0.3389  0.2158
10745TIP3    H153650   5.325   3.588  12.516 -1.2755  0.9120  1.6133
10745TIP3    H253651   5.243   3.665  12.415  0.6881 -1.7468 -2.2742
10746TIP3   OH253652   2.674   1.434   0.767  0.3271  0.0385 -0.2403
10746TIP3    H153653   2.651   1.342   0.782 -1.8875  0.2401 -1.8774
10746TIP3    H253654   2.735   1.455   0.838  1.7488 -2.9645 -0.4257
10747TIP3   OH253655   4.813   1.123   4.838 -0.0045  1.1636 -0.2198
10747TIP3    H153656   4.889   1.075   4.871 -1.5789 -2.4951 -1.3285
10747TIP3    H253657   4.833   1.138   4.746 -1.0008 -0.9708 -0.8497
10748TIP3   OH253658   0.708   4.574   1.706 -0.8821 -0.2028 -0.1372
10748TIP3    H153659   0.760   4.523   1.768 -0.7211  0.2074  0.0712
10748TIP3    H253660   0.661   4.637   1.761 -0.5591  0.3212 -0.4527
10749TIP3   OH253661   1.967   3.343  11.619 -0.0670 -0.6628 -0.3853
10749TIP3    H153662   1.948   3.389  11.701 -0.6382 -0.4318 -0.6405
10749TIP3    H253663   1.964   3.412  11.552 -0.0946 -0.9372 -0.6664
10750TIP3   OH253664   1.684   4.923  14.333  0.4338  0.3552 -0.2600
10750TIP3    H153665   1.602   4.883  14.304  0.6399 -0.0143 -0.3314
10750TIP3    H253666   1.709   4.874  14.411  0.4660  0.6204 -0.1029
10751TIP3   OH253667   2.097   6.420   2.053 -1.2105 -0.0252 -0.8031
10751TIP3    H153668   2.118   6.513   2.046  0.9466 -0.5052 -1.6825
10751TIP3    H253669   2.039   6.413   2.128  0.6112  1.7414  0.8705
10752TIP3   OH253670   4.456   1.375  16.660 -0.1651 -0.4798  0.2236
10752TIP3    H153671   4.419   1.462  16.647 -0.7950 -0.5638  1.3137
10752TIP3    H253672   4.382   1.316  16.648  0.2814 -0.8899 -0.6214
10753TIP3   OH253673   1.989   2.474   4.004 -1.1749 -0.7376  0.0060
10753TIP3    H153674   2.080   2.446   4.014 -0.3765  1.0412 -1.5279
10753TIP3    H253675   1.961   2.437   3.920 -1.9290 -1.3910  0.5349
10754TIP3   OH253676   3.087   1.033  11.690  0.1347 -0.5347  0.1027
10754TIP3    H153677   3.141   1.056  11.767  0.6211 -2.6271  0.4497
10754TIP3    H253678   3.020   1.101  11.687  1.1196  0.5641  1.3494
10755TIP3   OH253679   5.748   3.642   2.637  0.3182  0.6983 -0.1056
10755TIP3    H153680   5.800   3.714   2.672  0.3476  0.9508 -0.6581
10755TIP3    H253681   5.774   3.636   2.545 -0.6544  0.8584 -0.4009
10756TIP3   OH253682   6.484   6.023   1.765 -0.8444  0.5547 -0.3416
10756TIP3    H153683   6.476   5.995   1.674  0.7984 -1.8382  0.1645
10756TIP3    H253684   6.577   6.016   1.784 -1.2378  0.2873  1.7278
10757TIP3   OH253685   5.802   0.290   2.862 -0.4167  0.0005  0.2291
10757TIP3    H153686   5.872   0.237   2.823  0.5769  1.9722 -0.8471
10757TIP3    H253687   5.741   0.306   2.790 -1.0300 -0.1895  0.7019
10758TIP3   OH253688   3.569   1.887   3.785 -0.1868 -0.0025 -0.1360
10758TIP3    H153689   3.599   1.969   3.745 -0.5636  0.0257 -0.3690
10758TIP3    H253690   3.624   1.820   3.744 -0.3519  0.0613 -0.4723
10759TIP3   OH253691   6.576   1.718   2.312 -0.0800 -0.2928 -0.3086
10759TIP3    H153692   6.550   1.724   2.220 -0.6732  0.4801 -0.0953
10759TIP3    H253693   6.534   1.792   2.354 -0.1029 -0.8398  0.6655
10760TIP3   OH253694   0.975   3.946  14.012  0.0433  0.4695 -0.5767
10760TIP3    H153695   0.927   3.864  14.004 -0.7219  0.9546 -1.0930
10760TIP3    H253696   0.982   3.961  14.107 -2.5427  1.3517 -0.4525
10761TIP3   OH253697   1.644   3.641  15.565  0.1495  0.3776  0.2772
10761TIP3    H153698   1.661   3.564  15.619  0.8190 -0.0104 -0.4622
10761TIP3    H253699   1.707   3.706  15.596 -0.6345  0.7571  1.1238
10762TIP3   OH253700   3.721   1.622  12.915 -0.1815 -0.1888 -0.1697
10762TIP3    H153701   3.708   1.623  13.010 -0.6050  0.9520 -0.2223
10762TIP3    H253702   3.816   1.628  12.904  0.0223 -2.2103  0.1779
10763TIP3   OH253703   5.164   3.830  13.083 -0.0486 -0.5625 -0.5838
10763TIP3    H153704   5.120   3.792  13.159  1.6611 -0.9724  0.2389
10763TIP3    H253705   5.100   3.822  13.012 -1.6266 -0.3254  0.7364
10764TIP3   OH253706   6.654   1.140  16.310 -0.0091  0.4141 -0.0568
10764TIP3    H153707   6.745   1.144  16.283  0.2795 -2.5976  0.1472
10764TIP3    H253708   6.649   1.196  16.388  1.4400  1.2178 -0.5121
10765TIP3   OH253709   2.222   3.092   4.222 -0.1633 -0.4086 -0.3596
10765TIP3    H153710   2.196   3.022   4.282  2.1509  0.6106  1.9983
10765TIP3    H253711   2.280   3.049   4.159  0.1469 -0.8573  0.2273
10766TIP3   OH253712   0.308   3.424   5.004 -0.0727  0.4389  0.0631
10766TIP3    H153713   0.378   3.360   5.017 -0.7342 -0.5586 -1.1055
10766TIP3    H253714   0.300   3.468   5.089  0.8358 -0.5775  0.7005
10767TIP3   OH253715   5.281   3.018   3.866 -0.3208 -0.5824 -0.7796
10767TIP3    H153716   5.342   2.954   3.903 -0.1075 -0.6369 -1.2234
10767TIP3    H253717   5.256   2.981   3.781 -1.2615 -0.7440 -0.4426
10768TIP3   OH253718   2.659   3.196   4.471  0.3953  0.0974  0.2300
10768TIP3    H153719   2.697   3.169   4.554  0.7467  2.6653  0.9865
10768TIP3    H253720   2.685   3.127   4.409  3.9584  0.2940  1.2782
10769TIP3   OH253721   0.922   4.583   0.500  0.1401 -0.3210  0.7215
10769TIP3    H153722   0.947   4.498   0.536 -0.1790 -0.5145  0.4869
10769TIP3    H253723   0.852   4.563   0.438 -0.3702  0.1711  1.1212
10770TIP3   OH253724   4.351   0.186   6.649 -0.0736 -0.1035 -0.1238
10770TIP3    H153725   4.337   0.162   6.557 -0.1477  0.7911 -0.3637
10770TIP3    H253726   4.282   0.141   6.697  1.0210 -2.0024 -0.2556
10771TIP3   OH253727   1.419   6.489  17.030  0.3902  0.0656  0.5633
10771TIP3    H153728   1.471   6.511  17.107  2.0353 -0.2205 -0.4234
10771TIP3    H253729   1.446   6.401  17.007 -1.3728 -0.5341  0.6436
10772TIP3   OH253730   5.461   2.281  12.133 -0.1710  0.0532 -0.3499
10772TIP3    H153731   5.555   2.273  12.118 -0.1809  1.0869 -1.0658
10772TIP3    H253732   5.451   2.264  12.227  0.6124 -0.8785 -0.4142
10773TIP3   OH253733   6.513   6.646  15.686 -0.2678 -0.2464 -0.1963
10773TIP3    H153734   6.425   6.652  15.647 -0.5735 -0.3260  0.4686
10773TIP3    H253735   6.534   6.552  15.682 -0.2197 -0.2301 -0.3370
10774TIP3   OH253736   5.793   6.118  12.149 -0.1733 -0.8256 -0.1492
10774TIP3    H153737   5.841   6.200  12.134  0.0078 -1.0716 -0.9938
10774TIP3    H253738   5.818   6.062  12.075  0.4341 -1.9901  0.8871
10775TIP3   OH253739   3.744   5.353   6.357 -0.4130 -0.0037  0.2950
10775TIP3    H153740   3.710   5.316   6.276 -1.0407 -0.9395  0.9658
10775TIP3    H253741   3.722   5.288   6.425  0.5163  0.5323  1.1401
10776TIP3   OH253742   3.398   3.747   2.056  0.0228 -0.1941  0.7761
10776TIP3    H153743   3.408   3.809   1.984 -2.0917  1.5918  1.9339
10776TIP3    H253744   3.329   3.687   2.026  1.3196 -1.4108  0.1011
10777TIP3   OH253745   6.597   5.959   5.762 -0.2481 -0.1795  0.3692
10777TIP3    H153746   6.618   5.873   5.725  0.5223  0.6519 -1.2191
10777TIP3    H253747   6.629   6.022   5.697  0.0383  1.3441  1.9053
10778TIP3   OH253748   5.198   1.520  16.962 -0.0611  0.7530  0.2777
10778TIP3    H153749   5.137   1.580  17.006  0.1529  0.1569  1.4190
10778TIP3    H253750   5.259   1.493  17.031  0.1503 -0.3889 -0.3374
10779TIP3   OH253751   0.090   0.877  14.137 -0.1084 -0.4182  0.2433
10779TIP3    H153752   0.140   0.958  14.127  0.2672 -0.7864 -1.0169
10779TIP3    H253753   0.145   0.809  14.098 -0.5243 -1.2561  1.0647
10780TIP3   OH253754   2.858   1.544   0.918  0.5113 -0.3719 -0.2601
10780TIP3    H153755   2.938   1.493   0.904  1.8265  0.6759  2.4987
10780TIP3    H253756   2.884   1.634   0.900 -0.4967 -0.1779 -0.7799
10781TIP3   OH253757   3.011   0.081   2.823 -0.6642  0.2263 -0.3607
10781TIP3    H153758   3.040  -0.010   2.826  1.1834  0.7845  0.1870
10781TIP3    H253759   2.999   0.105   2.915 -0.2678  0.7708 -0.4426
10782TIP3   OH253760   5.285   1.941  15.819  0.0815  0.0973 -0.2890
10782TIP3    H153761   5.229   1.910  15.890 -1.7961 -1.7061 -2.3842
10782TIP3    H253762   5.262   2.034  15.809  1.1088  0.6561  1.9947
10783TIP3   OH253763   1.233   1.101  14.398  0.1924 -0.0831 -0.2050
10783TIP3    H153764   1.144   1.136  14.397 -0.0579 -0.6827 -1.3218
10783TIP3    H253765   1.227   1.020  14.448 -0.1952 -0.7965 -1.3585
10784TIP3   OH253766   0.541   3.366  13.111 -0.2818  0.3717  0.0257
10784TIP3    H153767   0.629   3.367  13.075 -0.5083  0.3010 -0.5468
10784TIP3    H253768   0.529   3.452  13.150 -0.3135  0.7500 -0.7905
10785TIP3   OH253769   3.071   1.096   1.990 -0.4373  0.3153 -0.0271
10785TIP3    H153770   3.060   1.108   1.895 -0.5973 -2.1178 -0.3780
10785TIP3    H253771   3.000   1.146   2.029 -0.7759  0.7990 -1.2141
10786TIP3   OH253772   6.675   3.153   0.297 -0.3768 -0.4544 -0.1025
10786TIP3    H153773   6.585   3.171   0.268 -0.2537 -1.6315 -1.3497
10786TIP3    H253774   6.702   3.078   0.244  0.8904 -0.9492  1.1861
10787TIP3   OH253775   6.011   3.835   3.471  0.0181 -0.1822  0.1110
10787TIP3    H153776   6.010   3.900   3.541 -1.7238  0.7600 -0.7154
10787TIP3    H253777   5.920   3.833   3.439 -0.3122 -3.8426  0.8131
10788TIP3   OH253778   4.529   3.847   0.748 -0.0877  0.3796 -0.1211
10788TIP3    H153779   4.585   3.904   0.800  0.1888  0.1199 -0.1302
10788TIP3    H253780   4.536   3.761   0.790  0.2969  0.1217 -0.6946
10789TIP3   OH253781   1.521   1.481   5.095 -0.3516 -0.2322 -0.2692
10789TIP3    H153782   1.488   1.502   5.182 -1.6473 -0.6666 -0.6408
10789TIP3    H253783   1.526   1.565   5.050 -0.0038 -0.0481  0.1063
10790TIP3   OH253784   2.309   4.560  12.862  0.1085  0.2948  0.0784
10790TIP3    H153785   2.371   4.623  12.826 -0.3922  0.3173 -0.7591
10790TIP3    H253786   2.321   4.566  12.957  0.1817  1.5192 -0.0011
10791TIP3   OH253787   3.333   1.108   3.788 -0.5152 -0.2322  0.2749
10791TIP3    H153788   3.309   1.192   3.827 -0.8820 -1.0093  1.8172
10791TIP3    H253789   3.249   1.064   3.771 -0.3257 -0.3303 -0.4687
10792TIP3   OH253790   0.409   0.514   2.387  0.5163  0.4561 -0.2868
10792TIP3    H153791   0.447   0.488   2.471 -0.5181 -0.4435 -0.0948
10792TIP3    H253792   0.464   0.470   2.322  0.8062  0.4885 -0.0704
10793TIP3   OH253793   5.951   0.866   2.620 -0.1679  0.1790 -0.2280
10793TIP3    H153794   5.926   0.852   2.529  0.3113  1.5485 -0.5983
10793TIP3    H253795   6.045   0.845   2.622 -0.4832 -1.3106  0.3134
10794TIP3   OH253796   4.537   3.843   1.456  0.1449 -0.0934  0.4841
10794TIP3    H153797   4.524   3.798   1.539  0.1484 -0.0859  0.4888
10794TIP3    H253798   4.551   3.773   1.392 -0.3907 -0.1231  0.3948
10795TIP3   OH253799   1.443   4.236   3.634  0.4859  0.2714  0.2775
10795TIP3    H153800   1.382   4.301   3.669  0.0711  0.8030 -1.3073
10795TIP3    H253801   1.529   4.276   3.643  0.3888  0.3922  0.6809
10796TIP3   OH253802   2.068   4.118  13.362  0.0009  0.6002 -0.5458
10796TIP3    H153803   2.112   4.150  13.441 -0.1366  0.9990 -0.6268
10796TIP3    H253804   2.030   4.197  13.322 -0.7772  0.2609 -0.4822
10797TIP3   OH253805   3.995   6.091   5.171 -0.6346 -0.2921  0.0480
10797TIP3    H153806   3.978   6.179   5.206 -0.7760  0.2633 -1.3814
10797TIP3    H253807   3.908   6.057   5.150 -0.4576  0.0258 -1.2676
10798TIP3   OH253808   2.478   3.510  12.454 -0.2893  0.4495  0.1937
10798TIP3    H153809   2.491   3.538  12.545 -1.2508  0.2751  0.3922
10798TIP3    H253810   2.475   3.591  12.404 -3.4711  0.8241  0.8137
10799TIP3   OH253811   2.650   4.736  13.117  0.0529  0.0613  0.0516
10799TIP3    H153812   2.684   4.810  13.067 -0.1093  0.9053  1.1526
10799TIP3    H253813   2.714   4.666  13.103 -0.5140 -0.0772 -2.1391
10800TIP3   OH253814   1.518   3.014  16.373  0.2341 -0.2962 -0.3845
10800TIP3    H153815   1.428   3.012  16.341  0.5945  1.5918 -1.7111
10800TIP3    H253816   1.558   3.087  16.326  1.3421  1.6172  3.1171
10801TIP3   OH253817   5.629   4.860   6.000 -0.2085  0.0406  0.1715
10801TIP3    H153818   5.549   4.846   6.051  0.0107  1.1353  0.8599
10801TIP3    H253819   5.683   4.917   6.055 -0.2054  1.7768 -1.5296
10802TIP3   OH253820   6.726   0.179  15.511 -0.2061 -0.4293  0.1823
10802TIP3    H153821   6.717   0.243  15.441  0.9875 -1.1831 -0.6957
10802TIP3    H253822   6.706   0.227  15.591  1.6978  1.3432 -0.3396
10803TIP3   OH253823   3.730   0.593   4.869  0.3193  0.3898  0.0081
10803TIP3    H153824   3.663   0.560   4.810  0.9663  0.0314 -0.5294
10803TIP3    H253825   3.697   0.572   4.957 -1.8320  3.0594 -0.0091
10804TIP3   OH253826   0.624   1.536   5.851  0.3776 -0.1473 -0.3969
10804TIP3    H153827   0.565   1.545   5.776  0.8338  0.4936 -0.6849
10804TIP3    H253828   0.640   1.441   5.857 -0.8816 -0.3639 -0.1446
10805TIP3   OH253829   5.284   4.273   4.104  0.5323 -0.0411  0.6661
10805TIP3    H153830   5.191   4.254   4.111 -0.0597  2.4006  0.5689
10805TIP3    H253831   5.327   4.201   4.150 -1.3358 -1.5760  0.1380
10806TIP3   OH253832   6.726   6.253  14.612 -0.0466 -0.2706  0.1644
10806TIP3    H153833   6.649   6.290  14.654  0.4149  1.5683 -0.5081
10806TIP3    H253834   6.800   6.296  14.654  0.5742 -1.0781 -0.0629
10807TIP3   OH253835   1.632   2.956  14.991 -0.1427 -0.6547 -0.1967
10807TIP3    H153836   1.623   2.999  15.076 -0.4142 -0.4834 -0.3139
10807TIP3    H253837   1.674   3.022  14.935  0.8246 -1.0532  0.0323
10808TIP3   OH253838   0.661   6.779   3.117 -0.0818 -0.2583  0.1028
10808TIP3    H153839   0.610   6.699   3.105 -0.1402 -0.2821  0.5213
10808TIP3    H253840   0.711   6.765   3.197 -2.1547  1.1886  1.7867
10809TIP3   OH253841   2.868   5.929   5.892 -0.3425  0.2488 -0.1445
10809TIP3    H153842   2.902   5.881   5.817 -0.8555 -0.9233  0.3356
10809TIP3    H253843   2.936   5.992   5.914  2.6342 -3.3034  2.0338
10810TIP3   OH253844   3.136   3.987   2.373 -0.1097  0.5989 -0.1460
10810TIP3    H153845   3.158   3.994   2.466  2.0171  1.2336 -0.6456
10810TIP3    H253846   3.162   3.898   2.349 -2.1751 -0.1601  0.1629
10811TIP3   OH253847   0.644   4.735   2.652 -0.2153  0.3775 -0.7163
10811TIP3    H153848   0.561   4.721   2.698  0.2505  0.5225  0.1931
10811TIP3    H253849   0.711   4.708   2.716  0.4068 -0.8146 -1.8287
10812TIP3   OH253850   5.823   0.175  14.530 -0.0182 -0.2443 -0.4093
10812TIP3    H153851   5.905   0.174  14.579  0.2430 -0.7420 -0.8541
10812TIP3    H253852   5.835   0.246  14.467  0.3674 -0.8009 -0.9702
10813TIP3   OH253853   3.504   3.497  14.584 -0.1355  0.0829 -0.3704
10813TIP3    H153854   3.471   3.408  14.577  0.3294 -0.0464 -0.9485
10813TIP3    H253855   3.446   3.549  14.528  0.0900  0.0066 -0.6752
10814TIP3   OH253856   3.023   2.561   4.069 -0.4745 -0.0511 -0.0423
10814TIP3    H153857   3.068   2.479   4.049 -0.4255  0.4265 -2.2208
10814TIP3    H253858   3.073   2.627   4.021 -2.3391  0.7753 -0.9450
10815TIP3   OH253859   3.275   0.653  15.684 -0.7379 -0.2378 -0.3268
10815TIP3    H153860   3.244   0.604  15.760 -0.3400 -0.0743 -0.0607
10815TIP3    H253861   3.337   0.594  15.641  0.7146  0.5031  0.6979
10816TIP3   OH253862   3.845   0.631  12.818  0.2052 -0.1775 -0.2639
10816TIP3    H153863   3.804   0.546  12.802  1.3537 -0.5387 -1.4391
10816TIP3    H253864   3.939   0.614  12.810  0.5673  0.8582  1.2346
10817TIP3   OH253865   1.760   5.074   4.262 -0.1479  0.2007  0.0747
10817TIP3    H153866   1.682   5.123   4.288 -0.5340  0.2579 -1.1323
10817TIP3    H253867   1.725   4.991   4.228  0.2839  0.3314 -0.7100
10818TIP3   OH253868   2.440   2.267  12.397 -0.1436 -0.1312  0.0801
10818TIP3    H153869   2.370   2.241  12.457  0.5229 -0.1268  0.8867
10818TIP3    H253870   2.511   2.204  12.414  0.0545 -0.1389 -0.7216
10819TIP3   OH253871   1.260   6.673  16.854 -0.0361 -0.4051  0.2753
10819TIP3    H153872   1.284   6.674  16.947  0.0169  1.8858  0.3097
10819TIP3    H253873   1.273   6.583  16.826 -0.3502 -1.2129  2.5613
10820TIP3   OH253874   6.174   1.702  16.327  0.6253  0.4125  0.5745
10820TIP3    H153875   6.094   1.726  16.279 -1.0103 -0.1306  2.8417
10820TIP3    H253876   6.177   1.607  16.322  0.1205  0.3071  1.9531
10821TIP3   OH253877   3.369   1.813   3.428  0.1895  0.3202  0.0441
10821TIP3    H153878   3.385   1.730   3.382 -0.8186 -1.5548  2.7938
10821TIP3    H253879   3.292   1.850   3.384  0.1674 -0.6123 -0.7481
10822TIP3   OH253880   0.866   4.637   0.942  0.2839 -0.4999 -0.1643
10822TIP3    H153881   0.959   4.632   0.964  0.5597 -2.2602 -1.4601
10822TIP3    H253882   0.842   4.547   0.919 -1.3481  0.1745 -1.3293
10823TIP3   OH253883   0.466   0.502  11.662 -0.1975  0.0503 -0.5786
10823TIP3    H153884   0.488   0.441  11.732  0.8370  0.9959 -0.0663
10823TIP3    H253885   0.506   0.464  11.584  2.7646  1.3145  0.1793
10824TIP3   OH253886   4.546   0.507   2.942 -0.5193  0.3008 -0.1044
10824TIP3    H153887   4.486   0.536   3.011 -1.4871  1.1552 -1.2587
10824TIP3    H253888   4.489   0.472   2.874  0.5094 -2.7301  0.4243
10825TIP3   OH253889   0.355   6.324   5.845  0.0655  0.5584 -0.1024
10825TIP3    H153890   0.390   6.235   5.844 -2.0491 -0.3328 -0.9366
10825TIP3    H253891   0.333   6.340   5.937  1.3544  0.6320  0.2117
10826TIP3   OH253892   3.347   2.588  11.535 -0.3684  0.4694 -0.0203
10826TIP3    H153893   3.289   2.643  11.588 -0.7009 -0.2812  0.4162
10826TIP3    H253894   3.291   2.515  11.506  0.1695  0.1253 -0.2182
10827TIP3   OH253895   0.978   5.934  14.343  0.6079  0.3808  0.3344
10827TIP3    H153896   0.967   6.022  14.380 -0.4227 -0.0259  1.0288
10827TIP3    H253897   0.945   5.941  14.254 -1.4850  0.2276  1.0394
10828TIP3   OH253898   2.611   2.754  16.268 -0.0359 -0.3408  0.2338
10828TIP3    H153899   2.588   2.732  16.177  0.9817  0.3066 -0.1896
10828TIP3    H253900   2.619   2.669  16.311 -1.7084 -0.6407  0.0490
10829TIP3   OH253901   1.544   5.510   3.023  0.3810 -0.1345  0.1434
10829TIP3    H153902   1.589   5.590   3.051  0.7012 -0.0951 -0.4737
10829TIP3    H253903   1.515   5.529   2.934  1.5894 -1.1641 -0.4944
10830TIP3   OH253904   2.950   4.375   5.602  0.1476 -0.3689  0.2145
10830TIP3    H153905   2.998   4.443   5.649  0.3705 -1.8986  2.3192
10830TIP3    H253906   2.859   4.386   5.629  0.0483 -0.4055 -0.0941
10831TIP3   OH253907   6.350   1.679   0.376  0.1631 -0.2141 -0.4062
10831TIP3    H153908   6.398   1.683   0.293 -0.7687  0.0531 -0.9442
10831TIP3    H253909   6.310   1.765   0.385  2.7368  0.8704  1.8855
10832TIP3   OH253910   5.607   4.634   2.700  0.1997  0.1597  0.4137
10832TIP3    H153911   5.580   4.726   2.709  0.0074  0.5452 -2.8356
10832TIP3    H253912   5.529   4.584   2.723  0.6474  0.6774  3.3680
10833TIP3   OH253913   2.056   5.333  15.828 -0.0078 -0.0807 -0.2769
10833TIP3    H153914   2.121   5.318  15.759  0.4523 -0.1653  0.1708
10833TIP3    H253915   2.093   5.404  15.881 -0.8182  0.6566 -0.6833
10834TIP3   OH253916   6.516   2.157  14.450 -0.0553  0.2274 -0.5892
10834TIP3    H153917   6.447   2.094  14.428  1.3089 -2.4943  2.1102
10834TIP3    H253918   6.595   2.119  14.412  0.7476  0.5288  0.7389
10835TIP3   OH253919   4.979   1.372   6.107 -0.5398  0.1679  0.3400
10835TIP3    H153920   4.905   1.431   6.122 -1.5068 -0.4742 -1.5864
10835TIP3    H253921   5.045   1.427   6.066 -0.5314  0.4004  0.6582
10836TIP3   OH253922   2.911   6.394   4.748  0.0514  0.5222 -0.2661
10836TIP3    H153923   2.816   6.406   4.750 -0.6336 -3.5851  1.1820
10836TIP3    H253924   2.944   6.471   4.702 -3.7325  3.2396  1.0594
10837TIP3   OH253925   6.358   0.197  11.852  0.1171  0.2283  0.2694
10837TIP3    H153926   6.416   0.126  11.879  1.2163  0.9772 -0.1065
10837TIP3    H253927   6.281   0.187  11.909 -0.5066 -2.2421 -0.8548
10838TIP3   OH253928   0.858   3.468  12.979  0.1933 -0.4204 -0.2124
10838TIP3    H153929   0.844   3.430  12.892  0.3722 -2.6715  0.6864
10838TIP3    H253930   0.943   3.510  12.974 -1.1484  2.3751 -2.0269
10839TIP3   OH253931   2.953   6.617   4.016  0.2457  0.6975 -0.1279
10839TIP3    H153932   3.009   6.675   4.068  2.6243 -1.0824 -0.5348
10839TIP3    H253933   2.904   6.566   4.080  1.4648  0.0999  0.3640
10840TIP3   OH253934   5.483   5.847   2.783 -0.4525 -0.0308  0.1881
10840TIP3    H153935   5.539   5.920   2.811 -1.2179  0.1116  1.4337
10840TIP3    H253936   5.535   5.800   2.719  0.8245  0.4924  0.8031
10841TIP3   OH253937   2.538   2.895  12.241 -0.3389 -0.1783 -0.1031
10841TIP3    H153938   2.525   2.989  12.226 -0.1771 -0.3151 -1.2206
10841TIP3    H253939   2.578   2.864  12.160 -0.8334 -1.3020  0.0653
10842TIP3   OH253940   0.022   1.909  16.793 -0.2906  0.1621 -0.3604
10842TIP3    H153941  -0.045   1.961  16.749 -2.3373 -0.9689  1.2397
10842TIP3    H253942  -0.008   1.818  16.784  1.3544 -0.4436 -0.0887
10843TIP3   OH253943   0.473   3.189  13.422  0.1372 -0.0459 -0.0310
10843TIP3    H153944   0.426   3.174  13.504 -1.4054 -0.2622 -0.9120
10843TIP3    H253945   0.542   3.251  13.445  0.9106 -1.4942  1.7890
10844TIP3   OH253946   5.591   4.843  16.464 -0.2713  0.2121  0.1565
10844TIP3    H153947   5.533   4.911  16.431  0.8186  0.5745 -1.1261
10844TIP3    H253948   5.534   4.767  16.476 -1.1114  0.7192 -0.4844
10845TIP3   OH253949   3.458   0.171   4.425 -0.0570 -0.3751 -0.2162
10845TIP3    H153950   3.427   0.262   4.424 -0.1050 -0.3900 -0.0572
10845TIP3    H253951   3.549   0.177   4.453  0.0256 -0.3489 -0.4937
10846TIP3   OH253952   5.812   0.485   6.210  0.3350 -0.6673 -0.0086
10846TIP3    H153953   5.828   0.393   6.230  0.9981 -0.6727 -0.5319
10846TIP3    H253954   5.717   0.490   6.196  0.0695 -0.9604  1.5425
10847TIP3   OH253955   4.673   2.933  11.209  0.5238  0.4560 -0.3451
10847TIP3    H153956   4.702   3.021  11.232 -1.2504  1.4423 -1.6174
10847TIP3    H253957   4.589   2.946  11.164 -0.8504 -2.0448  1.2600
10848TIP3   OH253958   2.065   3.735  14.322 -0.0987 -0.5316  0.2814
10848TIP3    H153959   2.114   3.654  14.333  1.8874  0.5998  0.3685
10848TIP3    H253960   1.978   3.708  14.294  0.2883 -2.6955  1.0338
10849TIP3   OH253961   1.248   2.562  12.286 -0.3389  0.1054 -0.0850
10849TIP3    H153962   1.193   2.517  12.350  0.5965  0.3982  0.9568
10849TIP3    H253963   1.331   2.574  12.331 -0.0560  1.4241 -0.9296
10850TIP3   OH253964   3.369   5.637   3.098 -0.8706  0.8213  0.1156
10850TIP3    H153965   3.336   5.578   3.167 -0.2565  0.9493  0.5319
10850TIP3    H253966   3.337   5.599   3.017  0.9171 -1.1133  0.2218
10851TIP3   OH253967   2.368   2.260   1.682  0.5456 -0.0723 -0.3897
10851TIP3    H153968   2.373   2.339   1.628 -0.2799 -0.7893 -1.5600
10851TIP3    H253969   2.294   2.277   1.741  0.8801  0.3378 -0.0731
10852TIP3   OH253970   5.333   6.498   1.828 -0.0042  0.3197  0.5440
10852TIP3    H153971   5.344   6.540   1.742 -0.7909 -2.3971 -1.0085
10852TIP3    H253972   5.418   6.459   1.846 -0.5213 -1.2738 -0.3024
10853TIP3   OH253973   5.020   6.757   2.346 -0.4199  0.8036 -0.1258
10853TIP3    H153974   5.011   6.676   2.397  1.1867  0.2476 -0.6586
10853TIP3    H253975   5.103   6.795   2.375  2.1358 -1.0275 -4.1319
10854TIP3   OH253976   1.385   2.280   2.430 -0.0625  0.0824 -0.1484
10854TIP3    H153977   1.477   2.261   2.413 -0.1426 -0.1408 -0.3400
10854TIP3    H253978   1.337   2.229   2.364 -0.3122  0.4079 -0.2237
10855TIP3   OH253979   3.451   6.437  11.090 -0.1103  0.3850 -0.7486
10855TIP3    H153980   3.447   6.526  11.057  1.0798  0.8551  0.2664
10855TIP3    H253981   3.540   6.408  11.071  0.3956  0.4288  1.3137
10856TIP3   OH253982   3.238   4.869  13.130  0.3548 -0.0366 -0.3732
10856TIP3    H153983   3.197   4.904  13.051  0.0865  2.3914  0.7521
10856TIP3    H253984   3.170   4.815  13.170  0.0251 -0.1509 -1.0598
10857TIP3   OH253985   2.917   0.636   1.061  0.3350 -0.4378 -0.9998
10857TIP3    H153986   2.989   0.625   0.998  0.5614  0.1061 -0.8405
10857TIP3    H253987   2.958   0.626   1.147 -0.2062 -2.5004 -0.9452
10858TIP3   OH253988   2.975   5.852  13.621 -0.4886 -0.5642  0.6455
10858TIP3    H153989   2.881   5.836  13.613 -0.6566  0.4670  0.3369
10858TIP3    H253990   2.981   5.940  13.659  0.3389 -0.1284 -0.4356
10859TIP3   OH253991   4.594   4.646   3.077 -0.5454 -0.5339  0.5057
10859TIP3    H153992   4.684   4.678   3.085  0.0200 -2.2161  1.2775
10859TIP3    H253993   4.556   4.659   3.164 -0.6984 -0.8106  0.4821
10860TIP3   OH253994   5.697   4.328  16.414 -0.3518 -0.1498 -0.0440
10860TIP3    H153995   5.601   4.320  16.415 -0.4189  0.1664  2.2186
10860TIP3    H253996   5.729   4.241  16.436 -0.0693 -0.4136 -1.4321
10861TIP3   OH253997   0.113   5.062  14.030  0.3582 -0.5104  0.9204
10861TIP3    H153998   0.131   5.155  14.015 -0.9604 -0.2931  0.6192
10861TIP3    H253999   0.047   5.039  13.965  2.4903 -2.3368 -0.7674
10862TIP3   OH254000   3.258   3.890  12.856 -0.3401 -0.2137  0.0145
10862TIP3    H154001   3.250   3.953  12.928 -0.1619 -1.0349  0.7731
10862TIP3    H254002   3.347   3.902  12.823 -0.4817  0.2878 -0.1863
10863TIP3   OH254003   3.715   0.485  11.085 -0.4720  0.4952 -0.0965
10863TIP3    H154004   3.648   0.417  11.071  0.6706 -0.6470 -0.2071
10863TIP3    H254005   3.775   0.447  11.149  0.0682  1.5162  0.0266
10864TIP3   OH254006   1.367   0.085   4.241 -0.0491 -0.3928  0.3510
10864TIP3    H154007   1.324   0.171   4.236  1.1457  0.7597  4.8312
10864TIP3    H254008   1.459   0.102   4.221 -0.0696 -0.9314 -0.2091
10865TIP3   OH254009   3.726   1.032  15.257  0.0826 -0.3022  0.1127
10865TIP3    H154010   3.721   1.049  15.351  2.1510 -0.6050  0.3259
10865TIP3    H254011   3.636   1.014  15.230 -0.7214  0.9741  1.7893
10866TIP3   OH254012   3.946   1.059  14.208  0.4723  0.5170  0.3111
10866TIP3    H154013   3.901   1.129  14.256 -1.2149  0.1422 -0.6474
10866TIP3    H254014   3.903   0.979  14.237 -0.1932  0.2308 -1.3519
10867TIP3   OH254015   6.053   3.592   2.877 -0.1856  0.6223 -0.1308
10867TIP3    H154016   6.090   3.669   2.920  0.9563  0.0175 -0.0156
10867TIP3    H254017   6.048   3.618   2.784 -0.3189  1.0271 -0.0143
10868TIP3   OH254018   4.964   6.275  13.437 -0.0737  0.4476 -0.8508
10868TIP3    H154019   4.893   6.212  13.426 -1.0940  1.1804  1.1468
10868TIP3    H254020   4.921   6.357  13.460  1.4009  0.8547  0.6736
10869TIP3   OH254021   6.166   0.439   6.596 -0.3615 -0.1816 -0.0193
10869TIP3    H154022   6.139   0.473   6.511 -2.4151 -1.2962  0.1145
10869TIP3    H254023   6.200   0.515   6.643 -0.5389  0.7343 -1.3191
10870TIP3   OH254024   1.678   5.367   3.199  0.3945 -0.0489 -0.4963
10870TIP3    H154025   1.624   5.440   3.170 -1.1218 -0.3079  1.4460
10870TIP3    H254026   1.631   5.289   3.171 -0.4709 -0.2838  1.4151
10871TIP3   OH254027   2.974   6.411  15.508  0.8095 -0.5117 -0.0088
10871TIP3    H154028   3.038   6.481  15.520 -0.9693  1.0768  0.8514
10871TIP3    H254029   3.012   6.336  15.553  2.8472 -0.2162 -1.0853
10872TIP3   OH254030   3.763   2.783  11.682 -0.1302  0.1760 -0.2702
10872TIP3    H154031   3.697   2.840  11.642  0.8643  0.4422 -1.5864
10872TIP3    H254032   3.836   2.842  11.703 -0.0984 -0.2005  0.7148
10873TIP3   OH254033   1.429   0.341  11.656 -0.3519  0.0231 -0.0455
10873TIP3    H154034   1.407   0.421  11.608  0.6550  1.1806  1.3598
10873TIP3    H254035   1.349   0.288  11.651 -0.6724  0.5935 -1.9456
10874TIP3   OH254036   2.723   3.557  11.558  0.4367 -0.0846 -0.2207
10874TIP3    H154037   2.753   3.466  11.557 -1.7752 -0.8932 -0.7922
10874TIP3    H254038   2.667   3.562  11.635 -2.0289 -0.2206 -1.8795
10875TIP3   OH254039   1.432   0.624   4.434 -0.5448  0.0066  0.2212
10875TIP3    H154040   1.457   0.609   4.343 -0.3604 -1.6661  0.5080
10875TIP3    H254041   1.468   0.710   4.455  2.4179 -1.0000 -0.2909
10876TIP3   OH254042   1.453   0.883   4.523  0.3627 -0.0383 -0.0959
10876TIP3    H154043   1.382   0.902   4.461  0.0023  1.6418  0.7605
10876TIP3    H254044   1.439   0.945   4.594  0.7299 -1.9599  1.7225
10877TIP3   OH254045   2.623   3.428   1.338 -0.1137 -0.2935 -0.1656
10877TIP3    H154046   2.681   3.379   1.395 -1.6039  0.6525  2.3279
10877TIP3    H254047   2.648   3.520   1.351 -0.3754 -0.0669 -1.1838
10878TIP3   OH254048   4.422   3.539  15.914 -0.2419 -0.2562  0.0820
10878TIP3    H154049   4.336   3.534  15.872  0.0549 -1.0804 -0.4529
10878TIP3    H254050   4.427   3.459  15.967  0.5722 -0.7157 -0.6595
10879TIP3   OH254051   0.631   5.925  12.332  0.4346 -0.2910  0.1858
10879TIP3    H154052   0.609   5.913  12.425 -1.7616 -3.3598 -0.5692
10879TIP3    H254053   0.643   5.836  12.299 -0.0951  0.6270 -2.7613
10880TIP3   OH254054   0.643   2.331   0.740 -0.7566  0.4580  0.1444
10880TIP3    H154055   0.735   2.321   0.716 -0.4822 -0.7011  1.5780
10880TIP3    H254056   0.639   2.416   0.784 -0.0531 -0.1376  1.4003
10881TIP3   OH254057   2.135   1.189  13.396 -0.3933  0.1612 -0.3921
10881TIP3    H154058   2.150   1.125  13.326 -0.4301  0.7783 -0.9793
10881TIP3    H254059   2.145   1.274  13.353  1.9054  0.5943  0.8317
10882TIP3   OH254060   4.517   3.031   2.678 -0.0227 -0.6566 -0.5665
10882TIP3    H154061   4.485   2.953   2.632 -1.1830  0.4626 -1.7412
10882TIP3    H254062   4.468   3.032   2.760 -0.4418 -0.8456 -0.8140
10883TIP3   OH254063   1.246   6.327  16.175 -0.2872  0.5281 -0.0006
10883TIP3    H154064   1.228   6.421  16.179  0.5114  0.6579  0.9418
10883TIP3    H254065   1.334   6.321  16.137  1.1215  0.4018  2.9857
10884TIP3   OH254066   4.140   5.334   5.948  0.3629  0.2812  1.1079
10884TIP3    H154067   4.174   5.402   6.005  0.4411  1.4190 -0.2479
10884TIP3    H254068   4.161   5.363   5.859 -1.4786 -0.4375  0.3695
10885TIP3   OH254069   3.492   3.987   0.679 -0.0883  0.9793 -0.9216
10885TIP3    H154070   3.554   4.010   0.749 -1.4351  3.3422 -0.4171
10885TIP3    H254071   3.537   4.015   0.599  1.1955 -1.1683 -1.0312
10886TIP3   OH254072   0.138   0.870   4.434  0.5965 -0.0305 -0.0427
10886TIP3    H154073   0.232   0.854   4.427  0.9381  2.1242 -1.4144
10886TIP3    H254074   0.098   0.783   4.430  2.5051 -0.9565  0.1594
10887TIP3   OH254075   0.922   4.305  13.095 -0.2594 -0.0981 -0.5168
10887TIP3    H154076   0.853   4.371  13.110  0.5191  0.7420 -0.5179
10887TIP3    H254077   0.985   4.322  13.165 -0.2236 -1.0953 -0.3052
10888TIP3   OH254078   1.426   4.161  11.727  0.6875 -0.4126 -0.6880
10888TIP3    H154079   1.365   4.101  11.770 -0.7030 -0.7738 -2.9888
10888TIP3    H254080   1.485   4.103  11.678  3.9404 -0.1623  2.5286
10889TIP3   OH254081   5.778   1.345   4.044 -0.1152  0.3104  0.9104
10889TIP3    H154082   5.837   1.271   4.027 -1.2868 -0.9934  2.2131
10889TIP3    H254083   5.721   1.348   3.968  0.6690  0.6522  0.3157
10890TIP3   OH254084   4.656   4.234   5.816  0.9570  0.7099  0.1672
10890TIP3    H154085   4.744   4.263   5.791  1.3706  1.2289  2.0999
10890TIP3    H254086   4.669   4.182   5.895 -0.0782 -2.6763 -1.6721
10891TIP3   OH254087   2.993   2.974  15.015  0.5209 -0.3258  0.0084
10891TIP3    H154088   2.999   2.914  15.090  2.6489 -0.2965 -0.0587
10891TIP3    H254089   3.083   2.981  14.984 -0.1887  0.3551 -2.0306
10892TIP3   OH254090   5.524   4.676   4.036 -0.1249  0.4270  0.1048
10892TIP3    H154091   5.448   4.699   3.981  0.6973 -0.5856 -1.5383
10892TIP3    H254092   5.506   4.587   4.066  1.2132 -0.6183 -1.9265
10893TIP3   OH254093   4.255   3.575   2.306  0.5102 -0.0808  0.4560
10893TIP3    H154094   4.257   3.506   2.239 -0.3801  0.4235 -0.1046
10893TIP3    H254095   4.248   3.656   2.257 -1.0850  0.2467  1.1682
10894TIP3   OH254096   3.308   1.618  12.930  0.3531  0.5813  0.8200
10894TIP3    H154097   3.216   1.642  12.934  0.1945  0.6740 -1.6192
10894TIP3    H254098   3.308   1.522  12.930  0.2103  0.5784  0.5024
10895TIP3   OH254099   1.161   6.122   4.582  0.3801  0.2023 -0.5038
10895TIP3    H154100   1.087   6.176   4.610  0.8655  0.3940  0.4470
10895TIP3    H254101   1.127   6.032   4.585  0.2796  0.2566  0.2882
10896TIP3   OH254102   3.552   4.065  15.223  0.8089  0.6392 -0.0639
10896TIP3    H154103   3.493   4.017  15.165 -0.1918  1.1225  0.5187
10896TIP3    H254104   3.567   4.149  15.179  1.8154  0.1748 -0.6423
10897TIP3   OH254105   4.455   0.648  16.238  0.1728 -0.3295 -0.1465
10897TIP3    H154106   4.527   0.663  16.299  0.4168  0.4662 -0.6034
10897TIP3    H254107   4.404   0.577  16.276  1.4041 -1.1494  0.0005
10898TIP3   OH254108   5.429   4.842   6.633 -0.5999 -0.4692  0.4265
10898TIP3    H154109   5.426   4.771   6.697 -3.7439 -0.3568  0.5757
10898TIP3    H254110   5.472   4.804   6.557 -0.8364 -2.0706  1.0566
10899TIP3   OH254111   0.689   5.920   4.795  0.1673  0.1197 -0.6837
10899TIP3    H154112   0.660   5.895   4.882 -0.7640 -1.7367 -1.4706
10899TIP3    H254113   0.784   5.923   4.800  0.1228 -0.0484  0.3604
10900TIP3   OH254114   3.470   2.455   5.835  0.7641  0.5263  0.0558
10900TIP3    H154115   3.565   2.445   5.829  0.8854  2.2466 -2.8874
10900TIP3    H254116   3.453   2.467   5.928  3.2229 -1.1729  0.8306
10901TIP3   OH254117   3.987   2.926   4.601  0.6031 -0.1096 -0.1298
10901TIP3    H154118   3.953   3.010   4.571 -1.9309 -0.4114  1.5452
10901TIP3    H254119   4.027   2.946   4.686  0.2093 -0.5496  0.1606
10902TIP3   OH254120   4.521   2.579   6.344 -0.8183 -0.1853 -0.0522
10902TIP3    H154121   4.510   2.566   6.250 -0.3890 -2.1421  0.1236
10902TIP3    H254122   4.595   2.522   6.368  1.3588  2.7921  0.9302
10903TIP3   OH254123   4.660   3.755   3.815  0.8135 -0.1750  0.2417
10903TIP3    H154124   4.586   3.810   3.790 -0.6114 -2.2509 -0.4141
10903TIP3    H254125   4.628   3.704   3.890  1.8038 -0.6577  0.3638
10904TIP3   OH254126   3.652   0.661  14.434  0.1174  0.2949 -0.2606
10904TIP3    H154127   3.578   0.689  14.380  1.0041 -1.9172 -2.8314
10904TIP3    H254128   3.622   0.581  14.476  0.0374  1.0931  1.2980
10905TIP3   OH254129   0.013   4.446  14.327 -0.2807 -0.1642  0.0724
10905TIP3    H154130   0.093   4.402  14.357 -1.2424 -0.6040  2.2017
10905TIP3    H254131  -0.043   4.374  14.296 -0.1674  0.0607 -0.6704
10906TIP3   OH254132   0.004   1.929   0.385 -0.1046 -0.1516 -0.2857
10906TIP3    H154133   0.066   1.869   0.343 -0.3507 -0.3133 -0.4157
10906TIP3    H254134   0.050   1.958   0.464 -0.4129 -1.3608  0.3569
10907TIP3   OH254135   6.588   1.285   0.837 -0.5210  0.1080  0.0238
10907TIP3    H154136   6.503   1.257   0.871 -0.7779  1.5741  0.6519
10907TIP3    H254137   6.570   1.366   0.790  0.1354 -0.9618 -2.1717
10908TIP3   OH254138   2.200   0.987   1.539  0.3317  0.1515 -0.0831
10908TIP3    H154139   2.195   0.900   1.500 -2.7792  0.6107 -0.9889
10908TIP3    H254140   2.224   1.045   1.467 -2.7214  0.6339 -0.8389
10909TIP3   OH254141   6.459   3.596   5.382 -0.5422  0.0866  0.3800
10909TIP3    H154142   6.425   3.519   5.335 -1.4821  1.1998 -0.8245
10909TIP3    H254143   6.420   3.671   5.337 -0.7859  1.2533  2.4204
10910TIP3   OH254144   4.261   3.295  12.716  0.1073 -0.0406 -0.1512
10910TIP3    H154145   4.344   3.337  12.694 -0.8326  1.5522 -0.8900
10910TIP3    H254146   4.227   3.344  12.791 -0.3662 -0.3811 -0.1338
10911TIP3   OH254147   4.942   3.934   0.168  0.3053  0.6125  0.0879
10911TIP3    H154148   4.991   3.940   0.251  0.4183 -0.1415  0.0856
10911TIP3    H254149   4.913   3.843   0.165  0.6455  0.5307 -0.9002
10912TIP3   OH254150   5.277   4.858   0.859 -0.8673  0.8905  0.3148
10912TIP3    H154151   5.184   4.875   0.844 -0.4013  2.2435 -1.2918
10912TIP3    H254152   5.321   4.894   0.782  0.7670 -2.5426 -0.5538
10913TIP3   OH254153   3.014   6.301  13.483 -0.1864  0.1539 -0.3174
10913TIP3    H154154   3.016   6.247  13.404  1.9944 -1.0265  0.4717
10913TIP3    H254155   3.104   6.301  13.514 -0.8156  1.3682  1.6745
10914TIP3   OH254156   1.199   1.971   0.367  0.9590  0.2537 -0.5381
10914TIP3    H154157   1.223   2.050   0.318  0.0841 -0.1651 -1.6872
10914TIP3    H254158   1.123   1.937   0.321  1.7133 -1.6435 -0.4589
10915TIP3   OH254159   0.198   2.619  14.752  0.4770  0.4130 -0.1284
10915TIP3    H154160   0.130   2.562  14.715 -0.2604  2.1484 -1.5981
10915TIP3    H254161   0.268   2.618  14.688  0.7157  0.6883  0.1231
10916TIP3   OH254162   5.579   3.993   4.666 -0.1626  0.2343  0.1217
10916TIP3    H154163   5.563   3.921   4.727 -1.1897 -0.6889 -1.1746
10916TIP3    H254164   5.673   4.010   4.673 -0.3854  0.8111  2.6089
10917TIP3   OH254165   6.596   6.096  14.998 -0.6324  0.1697  0.3490
10917TIP3    H154166   6.514   6.081  14.951  0.2651  0.2066 -1.3272
10917TIP3    H254167   6.625   6.008  15.023 -0.5855  0.0425 -0.1402
10918TIP3   OH254168   1.986   0.767   2.526 -0.4582 -0.2934  0.4584
10918TIP3    H154169   2.036   0.723   2.457  0.4303  2.7091 -0.9919
10918TIP3    H254170   2.032   0.745   2.606  0.4096 -1.3586 -0.3028
10919TIP3   OH254171   4.490   3.807  10.517 -0.0298  0.0447  0.5721
10919TIP3    H154172   4.428   3.854  10.461 -3.0616 -2.7449  1.2000
10919TIP3    H254173   4.439   3.785  10.595  2.2099 -1.3369  1.7539
10920TIP3   OH254174   4.715   1.326  14.134 -0.2354 -0.3685 -0.0189
10920TIP3    H154175   4.779   1.288  14.195 -0.3987 -0.3276  0.1777
10920TIP3    H254176   4.633   1.328  14.183 -0.0249  1.1374  0.3410
10921TIP3   OH254177   5.020   1.297   2.762  0.0341  0.0771 -0.5229
10921TIP3    H154178   4.933   1.261   2.776  0.1029  1.0302  3.3879
10921TIP3    H254179   5.075   1.254   2.827  0.9308  4.1536  1.7517
10922TIP3   OH254180   2.722   0.172   4.114 -0.4095  0.2732  0.6123
10922TIP3    H154181   2.816   0.161   4.102 -0.6103 -0.7188 -0.1804
10922TIP3    H254182   2.707   0.265   4.097  0.5648  0.6862  1.8334
10923TIP3   OH254183   5.747   0.742   1.502  0.3573 -0.0848  0.4768
10923TIP3    H154184   5.680   0.705   1.559 -1.1310 -0.5556 -1.4893
10923TIP3    H254185   5.743   0.837   1.519 -0.7685 -0.1126  0.4291
10924TIP3   OH254186   0.757   4.281   2.863 -0.3153 -0.6028  0.1967
10924TIP3    H154187   0.829   4.231   2.825  0.2855  1.7890 -2.1108
10924TIP3    H254188   0.708   4.314   2.788 -1.3871  1.2393  1.6117
10925TIP3   OH254189   1.124   3.242   3.685 -0.1634  0.1642 -0.3734
10925TIP3    H154190   1.187   3.184   3.727  0.5629  1.1717 -0.0188
10925TIP3    H254191   1.127   3.218   3.593 -2.4107 -2.6646  0.1566
10926TIP3   OH254192   2.604   6.689  15.488 -1.0475 -0.3966  0.0957
10926TIP3    H154193   2.697   6.709  15.498 -1.7139  2.1148  2.2586
10926TIP3    H254194   2.603   6.599  15.455  2.1198 -0.7856  0.7049
10927TIP3   OH254195   1.093   2.595  12.538 -0.1094 -0.3887 -0.1938
10927TIP3    H154196   1.038   2.673  12.524 -1.0789 -0.7094  1.5136
10927TIP3    H254197   1.174   2.630  12.577 -0.5681 -0.2097  0.6329
10928TIP3   OH254198   2.085   2.484  13.459  0.1033 -0.5483 -0.1526
10928TIP3    H154199   2.154   2.527  13.409  0.2799 -1.7319 -0.9779
10928TIP3    H254200   2.122   2.475  13.547 -0.0499  1.1790  0.1104
10929TIP3   OH254201   4.043   4.819   1.278 -0.1833 -0.0559  0.2764
10929TIP3    H154202   4.124   4.824   1.228  0.0952  2.2451  0.8146
10929TIP3    H254203   4.053   4.743   1.334  1.7323  0.3227  0.4935
10930TIP3   OH254204   0.821   2.200   1.225  0.1376 -0.2971 -0.4777
10930TIP3    H154205   0.876   2.220   1.300  0.4555 -0.5194 -0.6457
10930TIP3    H254206   0.881   2.203   1.150 -0.4299  1.2321 -0.8929
10931TIP3   OH254207   3.817   5.222   4.981 -0.0419  0.3147  0.2790
10931TIP3    H154208   3.793   5.201   4.891  0.1527  1.6372 -0.0911
10931TIP3    H254209   3.871   5.300   4.975 -0.7698  0.9551  1.6047
10932TIP3   OH254210   2.997   1.801   4.217  0.1780  0.4963  0.5268
10932TIP3    H154211   2.991   1.813   4.312  0.1037  0.9414  0.4670
10932TIP3    H254212   2.906   1.785   4.189  0.2501 -0.0469  0.5788
10933TIP3   OH254213   6.359   5.877   5.485 -0.4372 -0.0731 -0.0592
10933TIP3    H154214   6.379   5.844   5.572 -2.7575 -0.2016  0.5142
10933TIP3    H254215   6.320   5.803   5.439 -0.1860  0.2739 -0.8528
10934TIP3   OH254216   5.114   6.543  13.727  0.0394 -0.4557 -0.4506
10934TIP3    H154217   5.059   6.465  13.733 -0.3111 -0.1984 -0.2399
10934TIP3    H254218   5.189   6.516  13.675  0.0202 -0.9887 -0.2022
10935TIP3   OH254219   5.483   1.778   3.025 -0.6770 -0.0400 -0.1430
10935TIP3    H154220   5.414   1.829   3.069  0.0224  0.5142  0.3241
10935TIP3    H254221   5.512   1.716   3.091  0.1142  0.5425  0.0685
10936TIP3   OH254222   0.619   1.363  16.383 -0.7461 -0.1584  0.1253
10936TIP3    H154223   0.652   1.427  16.320  0.8290 -0.5567  0.4989
10936TIP3    H254224   0.585   1.415  16.455 -0.8276  0.2805 -0.2258
10937TIP3   OH254225   5.439   1.335  13.254 -0.4840  0.6804  0.0214
10937TIP3    H154226   5.382   1.316  13.179 -0.1020 -0.3575 -0.0146
10937TIP3    H254227   5.516   1.376  13.216 -0.5272  0.6562 -0.0919
10938TIP3   OH254228   2.838   2.613  12.173 -0.4789  0.4203  0.8434
10938TIP3    H154229   2.905   2.569  12.227 -0.3790 -0.0912  0.3186
10938TIP3    H254230   2.755   2.590  12.214 -0.4502 -0.5537  0.3910
10939TIP3   OH254231   0.658   0.701  11.691  0.4330  0.5325 -0.0850
10939TIP3    H154232   0.655   0.704  11.595  1.2685 -0.6069 -0.1550
10939TIP3    H254233   0.585   0.645  11.716 -0.1156  1.2604 -0.0097
10940TIP3   OH254234   5.259   0.973   1.852  0.0672  0.2877 -0.0561
10940TIP3    H154235   5.317   1.044   1.879  0.4137  1.1788 -2.7954
10940TIP3    H254236   5.171   1.002   1.878  0.3293  1.2550 -0.2224
10941TIP3   OH254237   2.372   0.933   2.954 -0.4211  0.0865 -0.4275
10941TIP3    H154238   2.323   0.851   2.968  0.7327 -0.4772  0.4901
10941TIP3    H254239   2.427   0.941   3.032  0.6663  0.9043 -1.2507
10942TIP3   OH254240   5.011   4.471   6.753 -0.3083 -0.4462 -0.6387
10942TIP3    H154241   5.079   4.539   6.755 -0.0677 -0.7009  0.0285
10942TIP3    H254242   4.929   4.520   6.753 -0.1668 -0.1331  1.1720
10943TIP3   OH254243   2.116   5.207  12.999 -0.8833  0.2938  0.3749
10943TIP3    H154244   2.154   5.269  12.937 -2.2647  0.7446 -0.0476
10943TIP3    H254245   2.188   5.187  13.059  0.1777  0.6671 -0.7307
10944TIP3   OH254246   4.501   0.869   3.088  0.1418  0.9104  0.0197
10944TIP3    H154247   4.442   0.899   3.157  2.0421  0.7423  1.7852
10944TIP3    H254248   4.490   0.774   3.087  0.5247  0.8590  0.4920
10945TIP3   OH254249   0.942   5.183   1.519  0.5367  0.5330 -0.4952
10945TIP3    H154250   0.978   5.095   1.504  1.6133  1.1267 -1.5934
10945TIP3    H254251   0.963   5.232   1.439 -0.3990  1.6860 -0.0708
10946TIP3   OH254252   2.408   6.438  12.316 -0.1644 -0.0530  0.0300
10946TIP3    H154253   2.468   6.479  12.254 -0.4701  1.0225  0.4191
10946TIP3    H254254   2.332   6.412  12.264  0.1794 -0.4586 -0.2786
10947TIP3   OH254255   4.090   3.777  15.472  0.2489  0.0818  0.0206
10947TIP3    H154256   4.136   3.752  15.392  0.2781 -1.5643  0.5226
10947TIP3    H254257   4.151   3.758  15.542  0.2410  1.5540  0.4692
10948TIP3   OH254258   1.291   2.713  12.679  0.6589 -0.0946 -0.2846
10948TIP3    H154259   1.296   2.808  12.672 -1.7577 -0.0187 -3.8284
10948TIP3    H254260   1.261   2.698  12.769 -2.6279  2.8645 -0.6471
10949TIP3   OH254261   0.915   3.206  16.750  0.0818 -0.2419 -0.3545
10949TIP3    H154262   0.938   3.171  16.664  1.7231  0.1246 -0.0991
10949TIP3    H254263   0.819   3.205  16.752 -0.0589  1.0616 -2.7415
10950TIP3   OH254264   5.915   2.494   3.810  0.4811  0.2773 -0.0495
10950TIP3    H154265   5.876   2.408   3.826  1.0131 -0.2744 -1.4796
10950TIP3    H254266   5.958   2.518   3.892  0.1559 -0.7257  0.4240
10951TIP3   OH254267   2.406   2.601   3.366  0.1208 -0.1036 -0.0900
10951TIP3    H154268   2.318   2.577   3.394  0.4179 -1.5268 -0.2755
10951TIP3    H254269   2.428   2.536   3.299  2.2557 -1.4259  1.7430
10952TIP3   OH254270   1.166   4.420  13.190  0.6124  0.3416 -0.0215
10952TIP3    H154271   1.227   4.474  13.239  0.6300 -1.3898  1.9900
10952TIP3    H254272   1.215   4.391  13.113  1.2513  1.4845 -0.0604
10953TIP3   OH254273   3.569   1.805   1.841  0.3408  0.1732 -0.0378
10953TIP3    H154274   3.614   1.869   1.896  0.2640  0.2541 -0.0690
10953TIP3    H254275   3.487   1.847   1.817 -0.3252 -0.4648  1.0518
10954TIP3   OH254276   6.623   0.501   1.184 -0.4990 -0.1757  0.0874
10954TIP3    H154277   6.574   0.423   1.159 -0.4640 -0.2680  0.3027
10954TIP3    H254278   6.559   0.572   1.180 -0.2040  0.0202 -1.4461
10955TIP3   OH254279   5.366   0.340  15.378  0.1989 -0.1384 -0.3859
10955TIP3    H154280   5.333   0.273  15.438  0.4417  0.3198  0.2773
10955TIP3    H254281   5.450   0.306  15.347  1.3609  0.7562  1.5973
10956TIP3   OH254282   4.610   0.237   5.774 -0.3756  1.0530  0.2707
10956TIP3    H154283   4.523   0.277   5.766  0.3528  2.6565  0.0052
10956TIP3    H254284   4.659   0.271   5.699  0.7042  0.7530  0.8266
10957TIP3   OH254285   3.559   0.097   2.975  0.2724 -0.5020  0.2280
10957TIP3    H154286   3.491   0.058   2.920  1.4809 -0.3138 -1.5004
10957TIP3    H254287   3.586   0.176   2.928  4.2359 -2.4434 -1.3095
10958TIP3   OH254288   4.346   2.709   5.457  0.2644 -0.0864  0.2316
10958TIP3    H154289   4.351   2.769   5.531 -0.0485  0.0403  0.1525
10958TIP3    H254290   4.265   2.660   5.470  1.2415 -1.5570  1.0858
10959TIP3   OH254291   2.425   6.573   2.175 -0.1362  0.0798 -0.5338
10959TIP3    H154292   2.416   6.507   2.106 -2.3622  1.2980 -1.5295
10959TIP3    H254293   2.435   6.656   2.128 -0.1366  0.7516  0.6250
10960TIP3   OH254294   3.273   0.968   1.389 -0.2637  0.2773 -0.2673
10960TIP3    H154295   3.258   1.012   1.306  0.4067  1.2636  0.1170
10960TIP3    H254296   3.258   1.035   1.455 -1.1270 -0.5836  0.4333
10961TIP3   OH254297   5.856   3.971   4.693 -0.3935  0.2613  0.0913
10961TIP3    H154298   5.908   4.049   4.711 -0.0561 -0.0820  0.6588
10961TIP3    H254299   5.913   3.915   4.640 -1.0045  0.8172 -1.2017
10962TIP3   OH254300   0.937   5.480  16.619  0.4105 -0.0611 -0.9737
10962TIP3    H154301   0.931   5.446  16.708  0.6534 -0.0736 -0.9603
10962TIP3    H254302   1.005   5.427  16.577  2.3871  1.8018 -0.3023
10963TIP3   OH254303   3.477   4.423   4.092 -0.0876 -0.0754 -0.5493
10963TIP3    H154304   3.450   4.352   4.151 -0.2748  1.3922  1.1871
10963TIP3    H254305   3.415   4.417   4.019 -0.7006 -1.1092  0.0311
10964TIP3   OH254306   4.188   3.532  14.764  0.7422 -0.1746  0.1388
10964TIP3    H154307   4.220   3.454  14.809  0.2897 -0.3926  0.0884
10964TIP3    H254308   4.146   3.584  14.832 -0.9603 -1.0399 -0.2020
10965TIP3   OH254309   3.392   3.244  14.505 -0.7359  0.3030  0.0427
10965TIP3    H154310   3.330   3.227  14.435 -0.2076  1.0934 -0.6440
10965TIP3    H254311   3.345   3.220  14.585 -1.4387 -0.3691 -0.5515
10966TIP3   OH254312   6.415   0.810   2.199 -0.9624  0.2901  0.1362
10966TIP3    H154313   6.340   0.869   2.208 -0.8595  0.9257 -2.5443
10966TIP3    H254314   6.383   0.740   2.142  0.6020  0.9021 -1.5822
10967TIP3   OH254315   4.074   5.180  11.620  0.1541  0.1512  0.1109
10967TIP3    H154316   4.158   5.222  11.636  1.0766 -1.3909 -0.4713
10967TIP3    H254317   4.060   5.190  11.525  0.0320 -0.1984  0.0893
10968TIP3   OH254318   5.350   4.492   3.388  0.0020 -0.2626 -0.1942
10968TIP3    H154319   5.437   4.452   3.390 -0.2668 -0.8304  0.6151
10968TIP3    H254320   5.289   4.418   3.391 -0.5294  0.1430  3.0368
10969TIP3   OH254321   3.936   5.705  11.447  0.0227 -0.7022  0.3081
10969TIP3    H154322   4.020   5.751  11.441 -0.6546  0.4455 -1.0317
10969TIP3    H254323   3.930   5.655  11.365 -0.8040 -0.3742  0.1600
10970TIP3   OH254324   0.043   3.966  14.377  0.0833 -0.3580  0.5506
10970TIP3    H154325   0.022   3.917  14.457  1.4215 -1.3043  0.3532
10970TIP3    H254326   0.048   3.899  14.309  1.2005  0.1389  0.1270
10971TIP3   OH254327   5.470   1.302  11.825  0.0933  0.2709 -0.0501
10971TIP3    H154328   5.383   1.271  11.799  0.3832  0.0746 -0.7918
10971TIP3    H254329   5.488   1.253  11.906  0.4085 -1.3152 -1.0286
10972TIP3   OH254330   3.756   4.689  16.712  0.0521  0.0030 -0.1324
10972TIP3    H154331   3.835   4.737  16.738  0.8442 -1.9638  1.4021
10972TIP3    H254332   3.762   4.606  16.760 -2.6654 -0.4616 -0.4363
10973TIP3   OH254333   2.374   5.906   5.450 -0.7660 -0.0042 -0.1370
10973TIP3    H154334   2.287   5.871   5.433 -1.8753  2.5780 -0.3017
10973TIP3    H254335   2.373   5.929   5.542 -0.1635 -0.1360 -0.0913
10974TIP3   OH254336   1.903   2.590  13.816  0.2612  0.3359  0.4993
10974TIP3    H154337   1.995   2.565  13.829  0.0408 -1.2784 -0.7668
10974TIP3    H254338   1.878   2.548  13.734 -0.8838  2.9477 -0.5971
10975TIP3   OH254339   3.700   2.839  14.769 -0.8506  0.1562  0.2716
10975TIP3    H154340   3.636   2.908  14.760  0.1752  1.1014  0.0218
10975TIP3    H254341   3.690   2.808  14.859 -2.0375 -0.1255  0.0541
10976TIP3   OH254342   5.365   5.990  12.934 -0.5900  0.4185 -0.3197
10976TIP3    H154343   5.411   5.954  13.010 -2.2098  0.0473  0.5325
10976TIP3    H254344   5.352   6.083  12.955 -2.0387  0.0788  0.4227
10977TIP3   OH254345   5.939   0.864  12.048  0.1452 -0.5344 -0.5836
10977TIP3    H154346   6.022   0.834  12.010  1.4585  1.3323  0.5899
10977TIP3    H254347   5.872   0.810  12.007  1.8571 -1.4777 -2.2900
10978TIP3   OH254348   3.190   4.840  15.793  0.0950 -0.5214 -0.0678
10978TIP3    H154349   3.206   4.842  15.888  0.7705  2.4498 -0.1696
10978TIP3    H254350   3.171   4.930  15.769 -0.1291 -1.1960 -2.7962
10979TIP3   OH254351   2.602   1.789  12.622 -0.0221 -0.2699  0.1245
10979TIP3    H154352   2.578   1.726  12.554  2.8976 -0.8112 -0.5460
10979TIP3    H254353   2.573   1.748  12.704 -2.2435 -0.3006 -0.6068
10980TIP3   OH254354   1.705   1.340  11.553 -0.0143 -0.1851  1.5149
10980TIP3    H154355   1.672   1.260  11.513  1.2741  0.2430 -0.5806
10980TIP3    H254356   1.780   1.312  11.604  0.9283 -0.2717  0.1390
10981TIP3   OH254357   2.003   4.748   1.230  0.3462  0.3234 -0.4418
10981TIP3    H154358   2.074   4.806   1.257  0.4411 -0.0607  0.1514
10981TIP3    H254359   1.945   4.744   1.306  0.0560  0.0754 -0.6731
10982TIP3   OH254360   2.358   4.095   6.373 -0.5503 -0.2454  0.8120
10982TIP3    H154361   2.422   4.137   6.430  0.4984 -1.2787  0.4441
10982TIP3    H254362   2.411   4.045   6.311 -1.7201 -1.6673  0.9131
10983TIP3   OH254363   3.047   0.130   2.129  0.1940 -0.2836 -0.1363
10983TIP3    H154364   3.131   0.159   2.093 -0.0629  2.8357  1.4898
10983TIP3    H254365   2.986   0.201   2.109 -1.6266 -1.6092  0.4373
10984TIP3   OH254366   3.980   4.058  12.833  0.1788  0.2009 -0.2212
10984TIP3    H154367   3.981   4.036  12.926 -0.4393  1.0621  0.0069
10984TIP3    H254368   4.054   4.117  12.821 -0.5588  1.1987  0.0298
10985TIP3   OH254369   1.826   6.136   0.970  0.2583 -0.1302  0.1787
10985TIP3    H154370   1.849   6.083   0.893  2.7555  2.4711 -1.0647
10985TIP3    H254371   1.765   6.201   0.936  0.3400  0.2343  0.7289
10986TIP3   OH254372   3.105   5.088   3.303 -0.1554  0.6945 -0.0725
10986TIP3    H154373   3.050   5.127   3.370  0.4631  0.0406  0.8284
10986TIP3    H254374   3.195   5.110   3.328  0.1785 -0.8152  0.1646
10987TIP3   OH254375   3.285   1.798  11.837 -0.5094 -1.1117 -0.7099
10987TIP3    H154376   3.358   1.849  11.870 -0.6156  0.6193 -2.9003
10987TIP3    H254377   3.209   1.829  11.886 -0.1956 -0.9090 -0.3543
10988TIP3   OH254378   1.643   6.651  11.404  0.0322 -0.4036 -0.3780
10988TIP3    H154379   1.711   6.717  11.403 -0.1151 -0.2408 -1.9727
10988TIP3    H254380   1.561   6.701  11.410 -0.0176 -0.6327  3.4603
10989TIP3   OH254381   4.875   0.164   0.846 -0.1432 -0.0469  0.0673
10989TIP3    H154382   4.868   0.256   0.819  0.9181 -0.0859 -0.3903
10989TIP3    H254383   4.939   0.165   0.918 -1.5019 -0.2019  1.3165
10990TIP3   OH254384   2.900   4.972   0.000  0.2909 -0.0927  0.8518
10990TIP3    H154385   2.813   4.999  -0.029  1.2899  1.1398 -1.2527
10990TIP3    H254386   2.933   5.046   0.050  0.6464  0.0232  0.4541
10991TIP3   OH254387   5.379   3.973   6.290  0.1192 -0.1770 -0.3230
10991TIP3    H154388   5.412   3.891   6.327  0.6429  0.0196 -0.3595
10991TIP3    H254389   5.361   3.952   6.198 -1.7723 -0.8433  0.1444
10992TIP3   OH254390   6.714   3.619  13.718 -0.1850  0.4102  0.1847
10992TIP3    H154391   6.742   3.558  13.786  0.2575  2.0774  1.5467
10992TIP3    H254392   6.742   3.705  13.749  0.5187  1.1870 -2.3454
10993TIP3   OH254393   3.690   3.064  11.810 -0.2098 -0.2768 -0.2785
10993TIP3    H154394   3.655   3.012  11.738 -0.6732 -1.9751  1.0982
10993TIP3    H254395   3.614   3.112  11.844 -0.2051 -0.2759 -0.2697
10994TIP3   OH254396   6.248   2.564   3.012  0.3348 -0.1528  0.0913
10994TIP3    H154397   6.191   2.633   3.044 -0.1288  0.1393 -1.2916
10994TIP3    H254398   6.198   2.483   3.026  0.5209 -0.1260  0.9254
10995TIP3   OH254399   2.077   6.432  15.473  0.6724  0.6105  0.0803
10995TIP3    H154400   2.082   6.399  15.563  0.4868  1.2123  0.3161
10995TIP3    H254401   2.045   6.357  15.423  1.6703 -0.0146  0.3510
10996TIP3   OH254402   1.928   1.284  14.415 -0.8860  0.3168 -0.1793
10996TIP3    H154403   1.888   1.227  14.350  1.7103  2.3270 -3.8851
10996TIP3    H254404   1.955   1.225  14.485 -1.7395 -2.3861 -1.9858
10997TIP3   OH254405   6.696   5.528   3.603 -0.0558 -0.2428 -0.2097
10997TIP3    H154406   6.757   5.485   3.664  0.8198 -0.2954 -1.1111
10997TIP3    H254407   6.609   5.504   3.636  0.3385  1.0528  1.9799
10998TIP3   OH254408   3.769   0.148  15.609 -0.5930 -0.3188  0.1162
10998TIP3    H154409   3.679   0.117  15.622 -0.4723 -0.1269  1.6234
10998TIP3    H254410   3.811   0.137  15.694  1.0909 -1.2303 -0.7760
10999TIP3   OH254411   4.101   4.038  11.503  0.0387 -0.0900  0.4318
10999TIP3    H154412   4.058   4.003  11.425 -1.2332  1.9730  0.1262
10999TIP3    H254413   4.163   3.970  11.529  0.9964 -0.6005 -2.7445
11000TIP3   OH254414   2.929   1.561  11.594 -0.8586  0.3877 -0.1151
11000TIP3    H154415   2.937   1.607  11.678 -1.0030  0.7859 -0.3134
11000TIP3    H254416   2.859   1.608  11.549 -2.5749 -1.4093  0.5617
11001TIP3   OH254417   2.703   0.422  14.056 -0.3443 -0.2523 -0.2621
11001TIP3    H154418   2.703   0.328  14.039  0.4865  0.0826 -2.4545
11001TIP3    H254419   2.644   0.458  13.990  0.1189  0.8555 -0.0986
11002TIP3   OH254420   4.446   0.099   1.084  0.3056 -0.1926 -0.1838
11002TIP3    H154421   4.356   0.132   1.084  0.0239 -0.9393  0.1378
11002TIP3    H254422   4.462   0.076   0.993  0.0788 -0.2914 -0.2007
11003TIP3   OH254423   1.936   2.491  12.367  0.9583  0.3788 -0.2419
11003TIP3    H154424   1.975   2.475  12.281  0.6103  1.2838 -0.5816
11003TIP3    H254425   1.930   2.586  12.374 -0.5934  0.2999  0.0455
11004TIP3   OH254426   2.398   3.596  16.001  0.1282 -0.4144  0.1151
11004TIP3    H154427   2.435   3.664  16.057  2.3375  0.0349 -1.7467
11004TIP3    H254428   2.339   3.643  15.942  0.3424 -0.3882 -0.0760
11005TIP3   OH254429   2.614   1.577   5.564 -0.1138  0.1257 -0.1304
11005TIP3    H154430   2.667   1.596   5.641  0.7353 -1.3251 -0.3308
11005TIP3    H254431   2.675   1.542   5.500 -1.2180 -1.1393 -0.5413
11006TIP3   OH254432   6.038   2.588  16.679 -0.1116  0.3563 -0.6106
11006TIP3    H154433   6.009   2.579  16.588  0.7047  2.6658 -1.1822
11006TIP3    H254434   5.957   2.604  16.728 -0.5809 -1.1132 -0.8565
11007TIP3   OH254435   5.587   0.841   0.098  0.0116  0.0679  0.7490
11007TIP3    H154436   5.676   0.866   0.123 -0.1512  2.0125 -0.4774
11007TIP3    H254437   5.596   0.804   0.010 -0.2959 -0.6527  1.0056
11008TIP3   OH254438   0.304   5.755   5.343 -0.4161 -0.2326  0.2887
11008TIP3    H154439   0.280   5.811   5.269  0.5940 -0.7169 -0.4275
11008TIP3    H254440   0.228   5.698   5.356 -1.1603  0.7853  0.5511
11009TIP3   OH254441   1.030   0.905   5.882 -0.3808 -0.0036 -0.4590
11009TIP3    H154442   1.079   0.906   5.964  1.1304  0.1445 -1.3264
11009TIP3    H254443   1.095   0.887   5.815 -1.3224  1.3168 -1.8053
11010TIP3   OH254444   5.336   6.382   2.414 -0.3302  0.1593  0.0585
11010TIP3    H154445   5.373   6.309   2.463 -0.3067  1.3784  1.9441
11010TIP3    H254446   5.369   6.460   2.458 -0.0013  1.3516 -2.1702
11011TIP3   OH254447   5.435   4.242  11.904 -0.0479  0.1224 -0.0951
11011TIP3    H154448   5.380   4.311  11.941 -1.9393 -1.3590  0.0107
11011TIP3    H254449   5.461   4.189  11.980  0.7361  0.2437 -0.2669
11012TIP3   OH254450   3.715   6.784   4.767 -0.3751 -0.5716  0.2373
11012TIP3    H154451   3.676   6.837   4.836 -1.6848 -0.9327 -0.2038
11012TIP3    H254452   3.704   6.837   4.687  1.7842  0.1775  0.3654
11013TIP3   OH254453   3.403   5.140   2.037  1.2005  0.0964 -0.2264
11013TIP3    H154454   3.327   5.190   2.067  0.9267  0.3932 -1.3988
11013TIP3    H254455   3.427   5.087   2.113  0.2380  0.4878  0.3735
11014TIP3   OH254456   2.790   3.490   4.651 -0.4548  0.6440  0.3073
11014TIP3    H154457   2.742   3.573   4.652 -1.0223  0.3786 -1.4310
11014TIP3    H254458   2.759   3.445   4.572 -0.7653 -1.6032  1.6277
11015TIP3   OH254459   5.457   2.630  14.518 -0.0832  0.0762 -0.2212
11015TIP3    H154460   5.479   2.679  14.439 -0.5210  0.2228 -0.2563
11015TIP3    H254461   5.408   2.692  14.572  0.1611 -0.0412  0.1390
11016TIP3   OH254462   1.776   0.677   4.051  0.4719  0.4333  0.0572
11016TIP3    H154463   1.795   0.621   4.126  1.2628 -0.2427 -0.6236
11016TIP3    H254464   1.703   0.733   4.080  0.8519  0.2822  1.3557
11017TIP3   OH254465   5.835   5.811   2.049 -0.4727 -0.2604  0.2295
11017TIP3    H154466   5.813   5.889   2.100  2.3395 -0.1969  1.5303
11017TIP3    H254467   5.900   5.765   2.103 -1.3068 -3.0045 -0.9564
11018TIP3   OH254468   1.107   5.308  13.953 -0.2517  0.3772  0.6021
11018TIP3    H154469   1.161   5.230  13.957 -0.4867  0.2120  0.5600
11018TIP3    H254470   1.168   5.379  13.932  0.0184  0.2649  0.9878
11019TIP3   OH254471   4.176   3.414  16.826  0.1467  0.1984 -0.0966
11019TIP3    H154472   4.265   3.436  16.853  0.5130 -0.2146 -0.9385
11019TIP3    H254473   4.187   3.350  16.756 -0.7816  1.2971 -1.2950
11020TIP3   OH254474   1.584   2.075   1.442 -0.0287  0.8047 -0.3690
11020TIP3    H154475   1.566   2.144   1.378 -0.2021 -0.2225 -1.4609
11020TIP3    H254476   1.524   2.005   1.419 -1.4995  1.0998  2.1431
11021TIP3   OH254477   4.004   5.272  16.175  0.3497 -0.4689 -0.4536
11021TIP3    H154478   4.018   5.262  16.081  1.2982  2.4215 -0.6974
11021TIP3    H254479   4.006   5.366  16.190 -0.4531 -0.8199  2.3859
11022TIP3   OH254480   6.068   1.164  12.517 -0.3439  0.5019 -0.1708
11022TIP3    H154481   5.988   1.129  12.557  0.4823 -2.4973 -0.9072
11022TIP3    H254482   6.058   1.145  12.423  2.0256 -1.9032 -0.0497
11023TIP3   OH254483   6.552   0.354   3.866 -0.2558  0.2036 -0.4322
11023TIP3    H154484   6.510   0.313   3.791 -0.7157 -0.3629  0.1265
11023TIP3    H254485   6.488   0.347   3.937  0.4943 -0.0134  0.2365
11024TIP3   OH254486   6.274   1.742  17.110 -0.2247 -0.1109 -0.2508
11024TIP3    H154487   6.365   1.771  17.113 -0.5029  1.0619 -1.7787
11024TIP3    H254488   6.227   1.815  17.070 -1.4256 -1.6715 -1.8143
11025TIP3   OH254489   3.061   5.957  11.241 -0.4818  0.1190 -0.0282
11025TIP3    H154490   3.055   6.001  11.156  0.7891  0.5115  0.0646
11025TIP3    H254491   3.031   5.868  11.224  1.3152 -0.2920 -1.2965
11026TIP3   OH254492   5.074   4.324  13.552 -0.1281  0.0765  0.3795
11026TIP3    H154493   5.154   4.340  13.601 -0.1754  0.2161  0.4135
11026TIP3    H254494   5.085   4.375  13.471  0.7041 -1.5213 -0.5650
11027TIP3   OH254495   3.232   2.750  15.099  0.7240 -0.7948 -0.1073
11027TIP3    H154496   3.184   2.801  15.163 -1.4906 -0.7709 -1.6815
11027TIP3    H254497   3.296   2.701  15.150  0.9499  1.2900  1.7613
11028TIP3   OH254498   6.698   3.340  11.422  0.2496  0.1395 -0.2817
11028TIP3    H154499   6.740   3.269  11.373 -1.4910 -0.4266 -1.0345
11028TIP3    H254500   6.769   3.402  11.439  1.2446 -0.4093 -2.1296
11029TIP3   OH254501   2.455   2.536  14.337  0.2805 -0.6048  0.1957
11029TIP3    H154502   2.520   2.466  14.330 -0.0450 -0.7753 -1.7554
11029TIP3    H254503   2.492   2.609  14.288 -0.6411 -0.4325 -0.2709
11030TIP3   OH254504   6.115   0.291   2.439 -0.0886  0.1176 -0.2165
11030TIP3    H154505   6.119   0.386   2.438  0.4671  0.1446  1.5600
11030TIP3    H254506   6.185   0.263   2.380  0.5471  0.8027  0.2049
11031TIP3   OH254507   1.109   4.196   5.573  0.5967  0.4011 -0.2999
11031TIP3    H154508   1.031   4.156   5.611  0.8100 -1.2444 -1.4903
11031TIP3    H254509   1.172   4.198   5.645 -0.8787  2.9638  1.0577
11032TIP3   OH254510   0.118   3.949   3.600  0.0771  0.6166  0.5925
11032TIP3    H154511   0.067   3.950   3.518 -1.1890 -0.7935  1.3013
11032TIP3    H254512   0.159   4.035   3.604 -0.4207  0.9754 -1.1736
11033TIP3   OH254513   5.583   0.407  11.016 -0.7004 -0.1522 -0.2443
11033TIP3    H154514   5.496   0.393  10.980 -1.2271  2.0376  0.0632
11033TIP3    H254515   5.602   0.499  10.999  2.0545 -0.8135 -1.3197
11034TIP3   OH254516   1.549   1.276  15.490  0.5420  0.0093 -0.9237
11034TIP3    H154517   1.515   1.331  15.420  1.2254 -1.1538 -2.2046
11034TIP3    H254518   1.604   1.335  15.542 -0.4101  1.0098 -1.0083
11035TIP3   OH254519   2.236   5.824  12.311  0.0154 -0.1968  0.1181
11035TIP3    H154520   2.168   5.860  12.254  1.1063  1.7596 -0.0193
11035TIP3    H254521   2.209   5.850  12.399  1.1115  1.6081 -0.0315
11036TIP3   OH254522   2.268   2.406   5.093 -0.2176 -0.1436 -0.3441
11036TIP3    H154523   2.335   2.341   5.116  1.3834  1.4813 -0.1067
11036TIP3    H254524   2.316   2.472   5.043 -1.9549  0.4548 -1.2766
11037TIP3   OH254525   0.162   3.214   3.743  0.3248  0.3029  0.2412
11037TIP3    H154526   0.201   3.273   3.678  0.6700  1.4670  1.4574
11037TIP3    H254527   0.072   3.245   3.751  0.1195 -0.2055 -0.0962
11038TIP3   OH254528   4.158   1.420   5.332  0.5274  0.1257 -0.1598
11038TIP3    H154529   4.110   1.477   5.271 -1.4982 -0.6401  0.6207
11038TIP3    H254530   4.149   1.333   5.294 -0.0221 -0.2367  0.7903
11039TIP3   OH254531   3.360   0.989  11.590 -0.1902 -0.2372 -0.2618
11039TIP3    H154532   3.285   1.000  11.649 -1.1763  0.1354 -1.5457
11039TIP3    H254533   3.373   1.075  11.552  0.3321 -0.5102 -0.7085
11040TIP3   OH254534   6.463   1.608  15.272  0.2229 -0.5940 -0.3017
11040TIP3    H154535   6.541   1.574  15.315  0.0002 -1.5530 -0.6245
11040TIP3    H254536   6.494   1.645  15.190  0.1344 -2.9807 -1.5119
11041TIP3   OH254537   0.848   5.504  16.151  0.2241  0.1224 -0.1285
11041TIP3    H154538   0.857   5.587  16.105  0.5931  0.9811  1.4339
11041TIP3    H254539   0.809   5.527  16.235 -1.3466 -1.5143 -0.3373
11042TIP3   OH254540   6.375   3.366   1.155 -0.2488  0.1497 -0.0299
11042TIP3    H154541   6.394   3.418   1.077  0.1018 -1.2246 -0.9008
11042TIP3    H254542   6.283   3.343   1.147 -0.2399  0.0952  0.0214
11043TIP3   OH254543   3.067   2.030  14.597  0.2159  0.1488  0.1256
11043TIP3    H154544   3.031   2.094  14.536  0.4427  1.2025  1.0672
11043TIP3    H254545   3.083   1.952  14.543  1.1267  1.2825 -1.3265
11044TIP3   OH254546   6.749   3.391  11.822  0.8139  0.2173 -0.2976
11044TIP3    H154547   6.807   3.452  11.778  1.2117 -0.4602 -0.7278
11044TIP3    H254548   6.775   3.304  11.790 -1.4922 -0.0207 -1.7945
11045TIP3   OH254549   1.804   1.091  12.405  0.2145 -0.4704 -0.1918
11045TIP3    H154550   1.775   1.147  12.477  0.1860  2.0718 -2.0536
11045TIP3    H254551   1.745   1.113  12.333  0.4764 -2.6635 -1.1519
11046TIP3   OH254552   5.959   1.252  13.638  0.3242 -0.7873 -0.3024
11046TIP3    H154553   5.973   1.275  13.546  2.3946  1.1427  0.3879
11046TIP3    H254554   5.984   1.331  13.687 -3.1435 -0.8233  1.8727
11047TIP3   OH254555   1.044   0.552   5.670 -0.3057  0.1687  0.6187
11047TIP3    H154556   1.024   0.524   5.759 -1.2746  2.5141  1.2317
11047TIP3    H254557   0.974   0.614   5.649  1.4403  1.7998 -0.6844
11048TIP3   OH254558   5.638   4.684  14.178  0.3625 -0.0956 -0.5259
11048TIP3    H154559   5.549   4.650  14.171  0.1956  0.4717 -1.2246
11048TIP3    H254560   5.693   4.606  14.190 -0.4103 -0.3530  2.1229
11049TIP3   OH254561   0.939   5.556  12.099  0.3879 -0.3564 -0.4929
11049TIP3    H154562   0.965   5.467  12.076  0.4494 -0.6656  0.7157
11049TIP3    H254563   0.988   5.575  12.179 -0.4790  0.3418 -0.1169
11050TIP3   OH254564   6.440   1.708  13.558 -0.0839 -0.1762 -0.2309
11050TIP3    H154565   6.358   1.676  13.594 -0.4569  1.1051  0.1090
11050TIP3    H254566   6.495   1.727  13.634  0.0522  0.1679 -0.4098
11051TIP3   OH254567   0.174   6.729   1.680  0.6049  0.3142  0.3971
11051TIP3    H154568   0.109   6.662   1.704  0.7297 -0.0237 -0.1991
11051TIP3    H254569   0.198   6.769   1.764 -0.5049  0.5712  0.6112
11052TIP3   OH254570   0.543   4.252   1.668 -0.3847  0.3071 -0.0908
11052TIP3    H154571   0.602   4.281   1.599  0.3365  2.5852  1.3467
11052TIP3    H254572   0.489   4.329   1.686 -0.1412  0.0104  2.2284
11053TIP3   OH254573   0.706   6.604  14.382 -0.6593  0.2929  0.8322
11053TIP3    H154574   0.783   6.595  14.326 -0.0948  1.2131  1.4320
11053TIP3    H254575   0.732   6.562  14.465 -1.8322 -1.9655  0.1575
11054TIP3   OH254576   0.482   5.083  12.907  0.5109  0.6281  0.0271
11054TIP3    H154577   0.534   5.007  12.933 -0.1854 -0.1215 -0.7443
11054TIP3    H254578   0.392   5.052  12.905  0.3330  1.1572 -1.4010
11055TIP3   OH254579   1.664   0.870  15.659  0.0793  0.3972 -0.2752
11055TIP3    H154580   1.744   0.877  15.606  1.3726  2.4406  1.7641
11055TIP3    H254581   1.613   0.801  15.616  2.4895 -0.3275 -2.2221
11056TIP3   OH254582   3.918   1.829  15.611 -0.1246  0.5903  0.1482
11056TIP3    H154583   3.961   1.751  15.647 -0.2458  0.0680 -0.8205
11056TIP3    H254584   3.977   1.860  15.542  1.0040  2.6522  1.9191
11057TIP3   OH254585   4.618   2.669  14.384  0.1948 -0.1566  0.4604
11057TIP3    H154586   4.535   2.715  14.369 -0.8608 -1.8101  0.9431
11057TIP3    H254587   4.625   2.662  14.479  1.6164  1.1685  0.4801
11058TIP3   OH254588   6.448   2.806  11.777 -0.1376 -0.0684  0.3247
11058TIP3    H154589   6.495   2.741  11.725  1.4076 -0.4720  2.1028
11058TIP3    H254590   6.359   2.771  11.785 -0.2141 -0.3568 -1.3214
11059TIP3   OH254591   0.171   6.743   4.599 -0.0912  0.8298 -0.3050
11059TIP3    H154592   0.131   6.674   4.653  0.8333  0.4725 -0.0695
11059TIP3    H254593   0.127   6.823   4.627 -0.4739  0.4788  0.1247
11060TIP3   OH254594   3.594   6.205   5.577 -0.5710 -0.0393 -1.0755
11060TIP3    H154595   3.511   6.251   5.562 -1.1291  0.6592  3.0223
11060TIP3    H254596   3.571   6.112   5.567 -1.7070  0.1747 -0.6197
11061TIP3   OH254597   5.569   0.568   4.421 -0.1868  0.7748  0.0914
11061TIP3    H154598   5.573   0.518   4.502 -3.4872  0.9618  0.5146
11061TIP3    H254599   5.605   0.510   4.354  1.1786  0.0447  1.4128
11062TIP3   OH254600   0.751   5.516   1.007 -0.1319  0.1558  0.3808
11062TIP3    H154601   0.712   5.432   1.031  0.9661 -0.4023  0.2451
11062TIP3    H254602   0.762   5.512   0.912  1.0742 -0.0722  0.5126
11063TIP3   OH254603   0.107   5.029   3.528  0.1350 -0.4591  0.1203
11063TIP3    H154604   0.035   5.085   3.556  0.0031 -0.1262 -0.8220
11063TIP3    H254605   0.147   5.077   3.455  2.1081 -0.0357  1.4029
11064TIP3   OH254606   2.863   5.995  12.991 -0.2572 -0.4676  0.6387
11064TIP3    H154607   2.842   5.916  13.042  0.2614  0.3720  2.2052
11064TIP3    H254608   2.817   6.066  13.036  1.3396  0.5219  0.7771
11065TIP3   OH254609   2.061   2.023   0.847  0.3563  0.2443  0.3629
11065TIP3    H154610   1.991   1.962   0.873  1.2993 -0.9993  0.1012
11065TIP3    H254611   2.141   1.981   0.877  1.3609 -0.3360 -2.7496
11066TIP3   OH254612   4.656   2.677   6.569 -0.3607  0.0134  0.6106
11066TIP3    H154613   4.697   2.590   6.575  0.1441  0.1974  0.0046
11066TIP3    H254614   4.580   2.664   6.512  1.1430  0.4334 -1.6152
11067TIP3   OH254615   4.191   5.075  12.765  0.1703  0.2247  0.5480
11067TIP3    H154616   4.213   4.991  12.805  0.9218 -0.3218 -0.9071
11067TIP3    H254617   4.257   5.086  12.695  0.9917  2.7192  1.5888
11068TIP3   OH254618   6.290   6.322   4.099 -0.1095  0.2351  0.3734
11068TIP3    H154619   6.223   6.325   4.166 -0.8855  0.0238 -0.3771
11068TIP3    H254620   6.242   6.321   4.016  0.8313  2.3287 -0.2757
11069TIP3   OH254621   5.694   1.041  11.886 -0.6045  0.5032  0.5336
11069TIP3    H154622   5.718   1.004  11.800 -1.4470  2.0541 -0.4222
11069TIP3    H254623   5.704   0.969  11.947  0.2091 -0.6033 -0.8517
11070TIP3   OH254624   5.071   3.783  12.819 -0.5015 -0.1045  0.1470
11070TIP3    H154625   4.987   3.786  12.773  0.3218  0.5694 -1.3945
11070TIP3    H254626   5.108   3.698  12.797 -1.4822 -1.1329  2.2250
11071TIP3   OH254627   4.679   6.165   0.440 -0.0428 -0.2246  0.2624
11071TIP3    H154628   4.633   6.236   0.395  0.7895  0.2946  0.2083
11071TIP3    H254629   4.629   6.151   0.520 -0.6519 -0.1055 -0.0958
11072TIP3   OH254630   3.011   1.071   0.958  0.1637 -0.1350 -0.0727
11072TIP3    H154631   3.029   0.988   0.914  0.9043 -0.1305  0.1974
11072TIP3    H254632   2.934   1.053   1.012  1.9706 -1.5872  2.2868
11073TIP3   OH254633   1.181   1.038  16.639 -0.1575  0.0314 -0.1689
11073TIP3    H154634   1.233   0.982  16.581 -0.2686  0.2196 -0.4576
11073TIP3    H254635   1.188   1.125  16.599 -0.5036  0.0994 -0.0805
11074TIP3   OH254636   0.660   2.694  16.767  0.1877  0.3375 -0.4190
11074TIP3    H154637   0.626   2.647  16.844 -0.9917 -0.1600 -1.2161
11074TIP3    H254638   0.750   2.661  16.758 -0.2557 -0.9948 -0.3154
11075TIP3   OH254639   3.588   4.852  15.091 -0.4600  0.6535  0.1169
11075TIP3    H154640   3.562   4.760  15.086 -1.8333  1.0210  0.1042
11075TIP3    H254641   3.665   4.852  15.147 -2.0555 -0.2132  2.4341
11076TIP3   OH254642   3.616   2.244  16.088 -0.1621 -0.1412 -0.3201
11076TIP3    H154643   3.660   2.297  16.022 -1.2408  1.3436  0.0913
11076TIP3    H254644   3.523   2.268  16.081 -0.4649 -0.8187  0.9369
11077TIP3   OH254645   4.100   3.971  15.685  0.3806 -0.0478  0.1329
11077TIP3    H154646   4.175   3.934  15.639 -0.4702  0.7652 -2.0644
11077TIP3    H254647   4.120   3.959  15.777  4.5369  2.5344 -0.1701
11078TIP3   OH254648   3.022   5.018  13.893  0.2920  0.0678  0.4507
11078TIP3    H154649   3.023   5.081  13.966  0.7313 -0.4505  0.9051
11078TIP3    H254650   3.113   5.018  13.861  0.0060  0.6186 -0.3928
11079TIP3   OH254651   1.385   6.274   2.696 -0.0647 -0.5190  0.9426
11079TIP3    H154652   1.444   6.349   2.694 -0.4266 -0.2373 -0.6723
11079TIP3    H254653   1.297   6.312   2.699 -0.3085 -0.7912 -1.2520
11080TIP3   OH254654   0.833   0.396  11.444 -0.2168 -0.6070  0.6749
11080TIP3    H154655   0.892   0.328  11.411  3.0089  1.4974  1.5786
11080TIP3    H254656   0.814   0.369  11.534  1.8949  0.0754  1.3808
11081TIP3   OH254657   1.728   5.411  11.852  0.4125 -0.0273  0.4197
11081TIP3    H154658   1.696   5.373  11.770  0.0372 -0.9103  0.9571
11081TIP3    H254659   1.822   5.422  11.839  0.1620  1.0558 -0.5884
11082TIP3   OH254660   3.331   3.650  11.872  0.2044  0.1873  0.2851
11082TIP3    H154661   3.348   3.744  11.862 -0.9514  0.3223 -0.7031
11082TIP3    H254662   3.248   3.645  11.918 -0.4708 -0.3063 -0.9334
11083TIP3   OH254663   4.605   4.085  11.744  0.5718 -0.0857  0.1609
11083TIP3    H154664   4.638   4.075  11.834  2.1011  1.2788 -0.1945
11083TIP3    H254665   4.671   4.140  11.701 -0.7896  0.3599 -1.4409
11084TIP3   OH254666   2.493   6.366  13.514  0.0003  0.8129  0.0203
11084TIP3    H154667   2.438   6.444  13.527 -0.4807  0.3277  1.0792
11084TIP3    H254668   2.572   6.398  13.473  0.5341  2.1566  1.9605
11085TIP3   OH254669   1.086   4.746  14.346  0.8378  0.7899  0.2401
11085TIP3    H154670   1.059   4.672  14.292 -0.4881  0.3441  1.4288
11085TIP3    H254671   1.177   4.726  14.370  0.4754 -0.5543  0.6372
11086TIP3   OH254672   0.418   3.826  12.817  0.3345 -0.1111 -0.0640
11086TIP3    H154673   0.461   3.802  12.899 -1.8224 -0.2933  1.0891
11086TIP3    H254674   0.396   3.919  12.828  0.5038  0.0014 -0.6661
11087TIP3   OH254675   3.905   5.893   1.433  0.7158 -0.0095  0.0940
11087TIP3    H154676   3.891   5.801   1.456  0.7507  0.0266  0.2625
11087TIP3    H254677   3.974   5.891   1.367 -0.3396 -0.2218 -1.0375
11088TIP3   OH254678   0.873   0.849  13.413  0.6753 -0.1044 -0.1247
11088TIP3    H154679   0.824   0.931  13.412  1.4925  0.3995  0.1170
11088TIP3    H254680   0.808   0.783  13.437 -0.2624  0.2704 -1.5115
11089TIP3   OH254681   2.868   3.351  11.221  0.2218  0.1895  0.7062
11089TIP3    H154682   2.892   3.313  11.136 -1.1157  0.5660  0.1282
11089TIP3    H254683   2.924   3.427  11.230  0.0514  0.4224 -0.0874
11090TIP3   OH254684   6.038   4.354  14.893  0.2675  0.9270  0.3547
11090TIP3    H154685   6.069   4.445  14.890  0.0224  1.0169  0.5540
11090TIP3    H254686   6.039   4.332  14.986 -1.2702  1.2709  0.4732
11091TIP3   OH254687   5.016   4.264   2.474  0.1318  0.3658 -0.0107
11091TIP3    H154688   4.931   4.300   2.448  0.0933 -0.2695 -0.8005
11091TIP3    H254689   5.070   4.340   2.494  0.0877  0.8776 -1.7319
11092TIP3   OH254690   6.388   4.441   1.228 -0.2084  0.5251 -0.2695
11092TIP3    H154691   6.372   4.510   1.163  0.7288 -0.3779 -1.5139
11092TIP3    H254692   6.303   4.426   1.269 -0.7293  1.4152 -1.0037
11093TIP3   OH254693   1.788   1.761  14.053 -0.3070 -0.4332  0.4725
11093TIP3    H154694   1.883   1.768  14.043 -0.6024  1.2094 -1.9975
11093TIP3    H254695   1.763   1.836  14.107 -0.4975  1.4922 -2.0983
11094TIP3   OH254696   5.882   6.700   2.249 -0.8908 -0.0957  0.5083
11094TIP3    H154697   5.896   6.708   2.344  0.1184  0.5480  0.3178
11094TIP3    H254698   5.969   6.681   2.213 -0.7973  1.9759 -0.5184
11095TIP3   OH254699   6.190   5.254  12.517  0.1136  0.5690 -0.5903
11095TIP3    H154700   6.179   5.331  12.462 -0.6996  0.2027 -0.9553
11095TIP3    H254701   6.285   5.246  12.529  0.2642  0.9802 -1.4693
11096TIP3   OH254702   1.249   3.792   4.406 -0.0894 -0.4842 -0.5578
11096TIP3    H154703   1.308   3.863   4.378  2.0496 -1.5740  0.9072
11096TIP3    H254704   1.181   3.836   4.457  0.4960  0.6417 -0.7108
11097TIP3   OH254705   0.494   0.323   1.920  0.1517 -0.0734  0.7371
11097TIP3    H154706   0.449   0.391   1.869 -0.2017 -1.3600 -0.7393
11097TIP3    H254707   0.535   0.371   1.992  0.1835  1.7476 -0.4289
11098TIP3   OH254708   3.271   4.750   5.115  0.0795 -0.1100  0.4013
11098TIP3    H154709   3.183   4.712   5.117  0.3495 -0.7685  0.0670
11098TIP3    H254710   3.280   4.787   5.028 -0.4474  1.3999  0.9563
11099TIP3   OH254711   4.043   0.704   5.564  0.9391  0.6545  0.0363
11099TIP3    H154712   4.001   0.787   5.587 -0.5602 -0.2227  0.5970
11099TIP3    H254713   3.973   0.650   5.528  1.9436 -0.2880 -0.5868
11100TIP3   OH254714   6.126   5.274  14.628 -0.2061 -0.0932  0.7435
11100TIP3    H154715   6.162   5.186  14.619 -0.8881 -0.2801 -0.2734
11100TIP3    H254716   6.057   5.264  14.694  1.6312  0.3099  2.8627
11101TIP3   OH254717   5.021   3.960   4.201 -0.4884 -0.6178 -0.6633
11101TIP3    H154718   5.103   3.970   4.153  0.4098 -0.3571  0.8535
11101TIP3    H254719   4.958   3.929   4.136 -0.4308  3.5392 -3.0487
11102TIP3   OH254720   3.035   2.311  15.622  0.2579 -0.1205  0.3465
11102TIP3    H154721   3.014   2.234  15.570 -0.7100 -0.9745  1.9091
11102TIP3    H254722   2.953   2.361  15.625  0.6649  0.5861 -0.0062
11103TIP3   OH254723   2.790   6.711  14.392  1.1819  0.3721 -0.8022
11103TIP3    H154724   2.740   6.629  14.393  0.3128  0.8917 -0.6374
11103TIP3    H254725   2.819   6.719  14.301 -0.9282  1.1569 -1.4770
11104TIP3   OH254726   6.788   0.542   3.900 -0.5331  0.6544 -0.5427
11104TIP3    H154727   6.847   0.617   3.907 -1.7516  1.5294  0.7709
11104TIP3    H254728   6.768   0.518   3.990 -1.0593 -0.5458 -0.9614
11105TIP3   OH254729   0.963   4.781   4.591  0.0372 -0.5451 -0.0281
11105TIP3    H154730   0.923   4.793   4.505  0.6728  0.9000 -0.1496
11105TIP3    H254731   0.946   4.689   4.613 -1.8264 -0.4244 -0.8105
11106TIP3   OH254732   3.827   5.826  11.899  0.0259 -0.6782 -0.1141
11106TIP3    H154733   3.823   5.730  11.895  2.0240 -0.8521  0.7899
11106TIP3    H254734   3.897   5.849  11.837 -0.6901  0.2500 -0.6038
11107TIP3   OH254735   3.741   2.355   0.491  0.1737 -0.6773  0.3296
11107TIP3    H154736   3.765   2.267   0.519  0.5151 -1.0457 -1.0487
11107TIP3    H254737   3.783   2.366   0.406  0.5027  0.9914  0.6718
11108TIP3   OH254738   1.765   1.318  12.550  0.2458  0.0814  0.2638
11108TIP3    H154739   1.672   1.319  12.527  0.2147  1.0412  0.3820
11108TIP3    H254740   1.806   1.374  12.484  0.9853 -1.5603 -0.7242
11109TIP3   OH254741   6.777   2.562   1.681  0.3310 -0.2411 -0.2369
11109TIP3    H154742   6.814   2.478   1.656 -0.1166 -0.4060 -0.3674
11109TIP3    H254743   6.722   2.542   1.757  2.0198  0.3233  1.2101
11110TIP3   OH254744   6.161   4.283   0.680  0.4316 -0.1953 -0.5753
11110TIP3    H154745   6.141   4.190   0.668  3.1359 -0.8947 -0.2004
11110TIP3    H254746   6.238   4.284   0.737  0.2528  2.3088 -0.2682
11111TIP3   OH254747   5.215   4.810  14.330 -0.4088  0.3195  0.0677
11111TIP3    H154748   5.140   4.772  14.375 -0.7344  1.1891  0.2749
11111TIP3    H254749   5.266   4.852  14.399  0.0918  0.0391 -0.1224
11112TIP3   OH254750   5.728   1.385   1.066  0.0430  0.7998 -0.4571
11112TIP3    H154751   5.652   1.377   1.125 -1.4091  0.7080 -2.2484
11112TIP3    H254752   5.769   1.467   1.092  0.2082  0.1485  1.4990
11113TIP3   OH254753   5.433   4.327  16.343  0.6024 -0.6059 -0.1365
11113TIP3    H154754   5.371   4.359  16.278  0.3314  1.3167  0.9800
11113TIP3    H254755   5.385   4.259  16.391 -0.9541  1.2618  1.1098
11114TIP3   OH254756   6.566   4.679  12.513 -0.0351 -0.0088 -0.1860
11114TIP3    H154757   6.550   4.618  12.585 -1.4123 -1.5207 -1.6841
11114TIP3    H254758   6.526   4.761  12.541  0.6279 -0.1423  1.2867
11115TIP3   OH254759   6.202   3.921   5.289 -0.2319  0.7680 -0.4827
11115TIP3    H154760   6.261   3.959   5.354 -1.0355 -2.1857  2.1936
11115TIP3    H254761   6.152   3.996   5.256  1.4851  2.6296  0.9013
11116TIP3   OH254762   6.079   4.336   2.104 -0.5245 -0.2095  0.3870
11116TIP3    H154763   6.011   4.358   2.041  0.5811 -1.1446 -1.2238
11116TIP3    H254764   6.125   4.262   2.065  0.6815 -0.3600  1.9676
11117TIP3   OH254765   1.263   3.723   0.716 -0.1525  0.0625  0.1625
11117TIP3    H154766   1.176   3.742   0.681  0.0407  1.5716  0.4335
11117TIP3    H254767   1.257   3.633   0.748 -1.4476 -0.0347 -0.3052
11118TIP3   OH254768   2.265   3.429   3.930 -0.0616  0.0521 -0.5376
11118TIP3    H154769   2.318   3.351   3.912 -1.0346 -0.6560 -0.4079
11118TIP3    H254770   2.310   3.500   3.883  0.3691 -0.7416 -1.3525
11119TIP3   OH254771   6.038   0.675  10.806 -0.3960 -0.2877  0.6676
11119TIP3    H154772   5.951   0.712  10.792 -0.0427  0.3260  0.0406
11119TIP3    H254773   6.097   0.750  10.801  0.1601 -0.6839  1.2058
11120TIP3   OH254774   4.756   4.254   4.663  0.0525  0.4699 -0.1000
11120TIP3    H154775   4.801   4.174   4.690 -0.7776  0.5028  1.5327
11120TIP3    H254776   4.826   4.318   4.650  0.5587  0.3361  1.7299
11121TIP3   OH254777   5.399   5.171  16.426 -0.4996  0.2432  0.5708
11121TIP3    H154778   5.346   5.246  16.398  0.8815  1.7792  1.8797
11121TIP3    H254779   5.340   5.120  16.482 -1.0275  1.1724  0.8856
11122TIP3   OH254780   0.886   4.177  14.214  0.1586 -0.4701  0.5589
11122TIP3    H154781   0.877   4.199  14.307 -1.2519 -0.6249  0.4835
11122TIP3    H254782   0.842   4.093  14.206 -0.7861  0.1098 -0.4747
11123TIP3   OH254783   0.423   6.636  16.477  0.7905 -0.8155  0.5321
11123TIP3    H154784   0.375   6.557  16.502  0.2743  0.0076  2.3772
11123TIP3    H254785   0.444   6.678  16.561 -1.1123  2.2569 -0.3254
11124TIP3   OH254786   1.919   0.408  11.435  0.4755 -0.1052 -0.2510
11124TIP3    H154787   2.010   0.438  11.442  0.1657  0.6040  1.4723
11124TIP3    H254788   1.912   0.340  11.502 -0.5819  0.8179  0.6233
11125TIP3   OH254789   1.910   3.945   0.849  0.2311  0.0825 -0.3494
11125TIP3    H154790   1.855   3.974   0.921  1.2133  1.0298  0.0350
11125TIP3    H254791   1.999   3.948   0.883  0.5785 -0.9775 -1.1095
11126TIP3   OH254792   2.008   4.209   3.081  0.4444 -0.4355 -0.2419
11126TIP3    H154793   2.010   4.186   2.988  1.0162  1.6880 -0.8205
11126TIP3    H254794   1.932   4.163   3.116  0.5954 -1.7912 -1.6001
11127TIP3   OH254795   4.401   4.464   5.010 -0.4486 -0.3153 -0.2676
11127TIP3    H154796   4.356   4.384   4.985 -0.6701  0.4048 -2.3462
11127TIP3    H254797   4.485   4.461   4.963  0.4161 -0.2294  1.1918
11128TIP3   OH254798   4.669   5.715   4.629  0.2373 -0.8616 -0.0985
11128TIP3    H154799   4.711   5.640   4.672 -3.0686 -1.6814  2.0777
11128TIP3    H254800   4.595   5.677   4.582 -1.6375  0.9586  1.1902
11129TIP3   OH254801   5.316   4.218  15.308 -0.0207  0.3589 -0.0382
11129TIP3    H154802   5.370   4.171  15.371  0.1190 -1.0005 -1.1154
11129TIP3    H254803   5.243   4.253  15.359  0.2296 -0.4793  0.9242
11130TIP3   OH254804   3.189   6.014   2.770  0.5207  0.5691  0.2165
11130TIP3    H154805   3.106   5.997   2.815  0.2243 -1.3410 -0.9239
11130TIP3    H254806   3.222   5.927   2.749  0.7087  1.3155 -3.1059
11131TIP3   OH254807   0.117   0.669  12.286  0.2815 -0.1081 -0.7725
11131TIP3    H154808   0.040   0.649  12.233 -0.2566 -1.1248  0.3374
11131TIP3    H254809   0.081   0.711  12.364  0.9790  0.5653 -0.8061
11132TIP3   OH254810   6.373   5.010  16.605  0.1549 -0.2685  0.2709
11132TIP3    H154811   6.439   4.955  16.564  1.6471  1.5813  0.0887
11132TIP3    H254812   6.413   5.039  16.686 -0.9629 -0.1532  0.7976
11133TIP3   OH254813   0.555   0.406   0.762  0.1292  0.4454 -0.0161
11133TIP3    H154814   0.460   0.418   0.762  0.3279  2.3544  0.4165
11133TIP3    H254815   0.582   0.429   0.673  0.5382  4.0926  0.8786
11134TIP3   OH254816   1.127   5.125   1.859  0.3736 -0.4500  0.5181
11134TIP3    H154817   1.209   5.139   1.812  0.3862 -2.4922 -0.1547
11134TIP3    H254818   1.153   5.079   1.939  0.0113  0.2219  1.0395
11135TIP3   OH254819   5.852   0.900   0.197 -0.1194  0.1896 -0.7106
11135TIP3    H154820   5.818   0.985   0.224  0.0831  0.0563 -0.0125
11135TIP3    H254821   5.919   0.878   0.262 -3.5233 -2.7694  2.2065
11136TIP3   OH254822   1.560   5.987   1.809  0.3890  0.5684 -0.0853
11136TIP3    H154823   1.549   5.892   1.803  0.9451  0.5759 -2.4730
11136TIP3    H254824   1.472   6.022   1.801  0.2570  0.2534 -0.0226
11137TIP3   OH254825   2.141   1.758   5.131  0.3755  0.1981  0.4797
11137TIP3    H154826   2.096   1.821   5.076  1.7560  0.3819 -0.4933
11137TIP3    H254827   2.221   1.802   5.158  0.4399 -0.4425  1.4085
11138TIP3   OH254828   3.056   5.925  16.615  0.6496  0.1529 -0.1074
11138TIP3    H154829   2.966   5.955  16.629  0.5181  0.2182 -1.0321
11138TIP3    H254830   3.110   6.000  16.639  0.5016 -0.1083  1.1006
11139TIP3   OH254831   4.943   4.121   5.974  0.5666 -0.0138  0.1569
11139TIP3    H154832   4.986   4.040   5.948  1.5973  0.6155 -0.1523
11139TIP3    H254833   4.857   4.094   6.006 -0.0680 -0.9985 -2.1918
11140TIP3   OH254834   5.353   3.653  11.846  0.3834 -0.1328  0.1700
11140TIP3    H154835   5.259   3.661  11.864  1.0257  0.6244  3.9886
11140TIP3    H254836   5.378   3.571  11.887  1.6275  0.4319  0.5850
11141TIP3   OH254837   3.913   3.632  11.812  0.0542  0.5101  0.0269
11141TIP3    H154838   3.870   3.594  11.889 -0.3057 -0.2741 -0.5473
11141TIP3    H254839   3.856   3.705  11.787  0.8715  1.6222  1.2733
11142TIP3   OH254840   5.572   0.215  15.156  0.0806  0.2521  1.0336
11142TIP3    H154841   5.640   0.276  15.130  0.8015 -0.9747 -0.0849
11142TIP3    H254842   5.598   0.185  15.243  0.2152  0.8171  1.1939
11143TIP3   OH254843   4.506   1.956  16.273 -1.0535 -0.6114 -0.2287
11143TIP3    H154844   4.503   1.863  16.295  1.1447 -0.5333  0.6334
11143TIP3    H254845   4.415   1.983  16.271 -1.6624 -2.3631  1.3622
11144TIP3   OH254846   1.001   0.585   1.212 -0.6815 -0.0329 -0.1454
11144TIP3    H154847   0.930   0.645   1.192 -0.0534  0.9245  0.4356
11144TIP3    H254848   1.000   0.522   1.139 -3.9340 -1.8285  1.2317
11145TIP3   OH254849   4.814   5.966   5.944 -0.4550  0.0952 -0.3150
11145TIP3    H154850   4.847   5.908   5.875  0.8950  0.4816 -0.0158
11145TIP3    H254851   4.892   5.994   5.991 -1.3067  0.2802  1.0345
11146TIP3   OH254852   3.598   2.234  11.753  0.4808 -0.4610  0.3005
11146TIP3    H154853   3.659   2.174  11.709  0.7134  1.0699 -1.5832
11146TIP3    H254854   3.513   2.190  11.749  0.3846 -0.1562 -2.2456
11147TIP3   OH254855   1.490   1.620  10.571  0.0110 -0.1250 -0.5643
11147TIP3    H154856   1.550   1.675  10.521  1.0704 -2.2160 -1.7254
11147TIP3    H254857   1.535   1.536  10.579  0.6563  0.3547  5.2921
11148TIP3   OH254858   0.549   2.065  14.594 -0.7807  0.2430 -0.3138
11148TIP3    H154859   0.564   2.071  14.688 -1.6741  0.6730 -0.1905
11148TIP3    H254860   0.603   2.134  14.556 -0.9420  0.5067 -0.0597
11149TIP3   OH254861   1.148   5.178   3.775 -0.4960  0.1257  0.0829
11149TIP3    H154862   1.087   5.249   3.757 -1.8752 -1.3967 -1.5664
11149TIP3    H254863   1.200   5.169   3.695 -0.5427 -0.8886  0.1448
11150TIP3   OH254864   0.100   5.779   4.578 -0.3084 -0.7568 -0.1993
11150TIP3    H154865   0.125   5.863   4.616  0.7898 -0.0825 -2.2511
11150TIP3    H254866   0.012   5.795   4.543 -0.1800 -0.5127 -0.4166
11151TIP3   OH254867   3.572   4.610   1.113  0.3273 -0.1755  0.5025
11151TIP3    H154868   3.517   4.622   1.190 -2.8472  4.9331 -2.0834
11151TIP3    H254869   3.659   4.640   1.140 -1.0591  2.9711  1.8397
11152TIP3   OH254870   6.550   3.121  16.107 -0.2555 -0.0623  0.0415
11152TIP3    H154871   6.553   3.099  16.200  1.0303 -2.9976 -0.5842
11152TIP3    H254872   6.487   3.059  16.069  0.8926 -0.4627 -1.3355
11153TIP3   OH254873   1.249   5.085  13.983  0.2523 -0.0822  0.6857
11153TIP3    H154874   1.313   5.030  13.938  0.1773  1.6298 -1.7058
11153TIP3    H254875   1.299   5.132  14.049  1.2280  0.3580 -0.3518
11154TIP3   OH254876   4.461   4.685  15.953  0.2350  0.0466  0.2304
11154TIP3    H154877   4.383   4.641  15.919  0.9954 -1.4430  0.3244
11154TIP3    H254878   4.525   4.681  15.882  1.1487 -1.2822  1.0633
11155TIP3   OH254879   0.947   1.494   1.842 -0.0013  0.2250  0.2269
11155TIP3    H154880   0.953   1.425   1.775 -0.8751  1.3812 -1.0932
11155TIP3    H254881   0.930   1.447   1.923 -1.1720 -1.0943 -0.7445
11156TIP3   OH254882   0.227   5.762   5.897 -0.0023 -0.4462  0.1553
11156TIP3    H154883   0.232   5.815   5.818 -2.1145 -1.2097 -0.5596
11156TIP3    H254884   0.271   5.814   5.964 -0.2952  1.3247 -0.9721
11157TIP3   OH254885   3.059   4.399   0.479 -0.1517 -0.6081  0.1807
11157TIP3    H154886   3.119   4.468   0.507 -3.4950  1.8175  2.1232
11157TIP3    H254887   3.063   4.401   0.383  1.1622  1.0466  0.2287
11158TIP3   OH254888   3.274   0.912   4.847 -0.4003 -0.8021  0.3885
11158TIP3    H154889   3.342   0.964   4.889 -0.0680  0.1180 -1.2207
11158TIP3    H254890   3.192   0.943   4.886 -0.3430  1.9458 -1.3865
11159TIP3   OH254891   2.956   5.745   1.597  0.1567  0.5729  0.3987
11159TIP3    H154892   2.951   5.697   1.515  0.0533  0.8666  0.2312
11159TIP3    H254893   2.865   5.771   1.615  0.3220  1.4019  0.0701
11160TIP3   OH254894   0.309   5.446  11.884  0.3708  0.2852  0.1011
11160TIP3    H154895   0.334   5.363  11.926  1.0379 -0.5157 -1.7849
11160TIP3    H254896   0.376   5.508  11.914 -0.3222  0.2824  1.7970
11161TIP3   OH254897   6.055   0.212  14.053 -0.0688 -0.7598 -0.1961
11161TIP3    H154898   5.988   0.145  14.066  0.8093 -1.4900  0.8505
11161TIP3    H254899   6.138   0.164  14.064  0.6005  0.2860 -0.5731
11162TIP3   OH254900   5.393   2.097   3.985 -0.7720 -0.0128 -0.1706
11162TIP3    H154901   5.345   2.144   3.917  2.4738 -1.1935 -3.6432
11162TIP3    H254902   5.471   2.150   4.001  0.2615 -1.4927 -0.1074
11163TIP3   OH254903   2.202   3.955   3.022  0.1815  0.1111  0.1759
11163TIP3    H154904   2.182   4.028   2.963 -0.6166  1.1300  1.6501
11163TIP3    H254905   2.158   3.977   3.104  0.5452 -1.6848  0.9032
11164TIP3   OH254906   1.411   6.391   5.169  0.2095  0.1881 -0.8540
11164TIP3    H154907   1.483   6.453   5.161 -0.1330  0.5437 -1.2405
11164TIP3    H254908   1.441   6.313   5.121  0.7336 -0.0447 -0.1676
11165TIP3   OH254909   1.474   6.081   3.340  0.5992  0.5563  0.4974
11165TIP3    H154910   1.459   6.031   3.420 -1.2962 -1.8071 -1.1912
11165TIP3    H254911   1.487   6.014   3.272 -0.5041  2.3957 -1.6420
11166TIP3   OH254912   1.001   1.379   0.333 -0.5985 -0.0478 -0.0281
11166TIP3    H154913   0.947   1.444   0.379 -1.2759 -0.0808 -0.7625
11166TIP3    H254914   1.034   1.425   0.256  1.3375  0.3053  0.9673
11167TIP3   OH254915   0.367   0.091   4.785  0.0941  0.5660  0.4015
11167TIP3    H154916   0.324   0.049   4.711  0.5553  0.5547  0.1345
11167TIP3    H254917   0.344   0.038   4.861 -1.2790  1.1896  0.4523
11168TIP3   OH254918   5.584   2.894  17.080  0.4285  0.1153  0.4498
11168TIP3    H154919   5.572   2.988  17.068  0.8881 -0.0381 -1.7752
11168TIP3    H254920   5.678   2.881  17.066  0.1018 -0.8454 -1.0347
11169TIP3   OH254921   3.823   6.707   4.355 -0.4915  0.0841  0.0416
11169TIP3    H154922   3.819   6.802   4.343  0.5598  0.5035  2.4921
11169TIP3    H254923   3.733   6.677   4.343 -1.1913  1.6679  1.1561
11170TIP3   OH254924   2.138   4.533   1.131  0.4881 -0.4017  0.2345
11170TIP3    H154925   2.217   4.578   1.101  2.2304 -2.8236  0.8599
11170TIP3    H254926   2.101   4.591   1.198 -1.2355  3.1774 -3.3267
11171TIP3   OH254927   4.972   3.651   6.455  0.1081 -0.4191 -0.1524
11171TIP3    H154928   4.918   3.691   6.523 -0.8071 -2.4997  0.4260
11171TIP3    H254929   4.917   3.650   6.377 -0.1768 -1.2420  0.0513
11172TIP3   OH254930   5.734   5.643  12.311  0.1262 -0.3815  0.1948
11172TIP3    H154931   5.786   5.666  12.388  1.3221 -2.8645  0.2190
11172TIP3    H254932   5.792   5.661  12.236 -0.0196 -0.5059  0.0496
11173TIP3   OH254933   0.623   0.748   2.415 -0.7761  0.1530  0.4139
11173TIP3    H154934   0.627   0.698   2.497  0.1408 -1.8983 -0.8071
11173TIP3    H254935   0.535   0.733   2.381 -0.5535 -0.5511  0.1281
11174TIP3   OH254936   1.284   4.124   0.661 -0.0888  0.7325  0.2082
11174TIP3    H154937   1.285   4.085   0.573  0.7186  1.9447 -0.3546
11174TIP3    H254938   1.214   4.079   0.707  1.4187 -2.1130 -0.0549
11175TIP3   OH254939   0.626   5.256  12.250  0.1081 -0.2162 -0.2300
11175TIP3    H154940   0.651   5.236  12.341  0.7104 -2.9528 -0.8868
11175TIP3    H254941   0.533   5.234  12.246 -0.7229  2.7881  0.3729
11176TIP3   OH254942   4.398   0.063  16.744 -0.1132 -0.2709  0.0037
11176TIP3    H154943   4.310   0.032  16.723 -0.3385 -0.8835  1.7334
11176TIP3    H254944   4.439   0.078  16.659 -2.1306  0.7677 -0.8390
11177TIP3   OH254945   3.305   0.256  13.075  0.3381  0.1325  0.0413
11177TIP3    H154946   3.211   0.268  13.062  0.1634  0.8538  1.7026
11177TIP3    H254947   3.323   0.167  13.046 -0.8905 -0.0830 -0.0958
11178TIP3   OH254948   6.345   1.941  15.275 -0.6936 -0.1352  0.0397
11178TIP3    H154949   6.255   1.916  15.252 -0.8090 -0.3604  0.7145
11178TIP3    H254950   6.349   1.930  15.370 -0.1219  0.4443  0.0839
11179TIP3   OH254951   5.371   6.421   0.213 -0.2281 -0.5183  0.3146
11179TIP3    H154952   5.454   6.400   0.255  0.3136  1.4003  0.3132
11179TIP3    H254953   5.376   6.380   0.127  0.5440 -0.7790  0.4778
11180TIP3   OH254954   3.845   4.781   2.381 -0.2165  0.0198 -0.3770
11180TIP3    H154955   3.846   4.759   2.474 -2.1282 -1.2259 -0.5826
11180TIP3    H254956   3.821   4.873   2.379  2.0332  0.6848  0.3721
11181TIP3   OH254957   0.086   1.900  15.813 -0.0498 -0.6604 -0.1091
11181TIP3    H154958   0.095   1.977  15.870  3.2406 -1.1570  0.2441
11181TIP3    H254959   0.091   1.936  15.724 -0.0153 -0.3274  0.0231
11182TIP3   OH254960   1.975   1.830  15.705  0.2584  0.1664  0.1335
11182TIP3    H154961   1.976   1.748  15.756  0.3275  0.4783  0.6389
11182TIP3    H254962   1.882   1.850  15.696  0.1535 -0.8635 -1.4667
11183TIP3   OH254963   1.831   5.216   5.447  0.2433  0.0869  0.2407
11183TIP3    H154964   1.773   5.149   5.482  1.0241 -0.4045  0.6082
11183TIP3    H254965   1.919   5.182   5.460  0.6372  0.9435 -0.0620
11184TIP3   OH254966   0.245   1.879  11.379  0.3435  0.0170  0.1104
11184TIP3    H154967   0.166   1.906  11.332  0.1037  1.6753  1.3738
11184TIP3    H254968   0.312   1.872  11.311  0.2807  3.3790 -0.4258
11185TIP3   OH254969   1.012   1.809   1.617  0.1742  0.2800 -0.0924
11185TIP3    H154970   1.059   1.739   1.662  2.0204  2.1070  1.0190
11185TIP3    H254971   0.941   1.765   1.570  1.1246 -2.2639  0.7128
11186TIP3   OH254972   3.647   4.886   2.002 -0.1520  0.3373  0.1907
11186TIP3    H154973   3.587   4.925   2.066 -0.9713 -0.3207 -0.1632
11186TIP3    H254974   3.624   4.927   1.919  0.2330  0.4526  0.1386
11187TIP3   OH254975   4.471   0.116  12.104 -0.3293  0.4153 -0.1367
11187TIP3    H154976   4.549   0.170  12.113 -0.9563  1.3954 -0.3453
11187TIP3    H254977   4.503   0.031  12.075  0.5176  1.3248 -2.0129
11188TIP3   OH254978   0.204   1.659  16.261  0.3078 -0.1048  0.1858
11188TIP3    H154979   0.239   1.581  16.218  1.1216  0.7966 -0.8431
11188TIP3    H254980   0.134   1.689  16.203  0.2219  0.1348  0.4109
11189TIP3   OH254981   1.544   3.984  17.123  0.5952  0.0172  0.1734
11189TIP3    H154982   1.597   3.944  17.054  1.8683 -1.2719  1.8253
11189TIP3    H254983   1.499   3.911  17.165 -0.6248  0.8444  0.3597
11190TIP3   OH254984   1.547   3.824   2.493 -0.3607  0.0961 -0.2251
11190TIP3    H154985   1.487   3.867   2.432 -0.5769  0.1151 -0.0004
11190TIP3    H254986   1.490   3.778   2.555 -0.1508  0.3280  0.1430
11191TIP3   OH254987   4.491   1.714  10.630  0.0793 -0.5457  0.2320
11191TIP3    H154988   4.409   1.673  10.657  0.0600 -1.3272 -0.9525
11191TIP3    H254989   4.532   1.650  10.571  1.8875 -0.4874  1.3425
11192TIP3   OH254990   1.924   1.895  13.677  0.1711  0.1754 -0.1194
11192TIP3    H154991   1.832   1.887  13.703 -0.2609  0.9251 -1.3301
11192TIP3    H254992   1.938   1.989  13.668  1.0362  0.0611 -0.0230
11193TIP3   OH254993   4.912   2.045  16.799 -0.2667 -0.3448  0.2260
11193TIP3    H154994   4.972   2.108  16.758  1.6688 -1.5381  1.0462
11193TIP3    H254995   4.965   1.966  16.810 -1.4953 -0.9250  2.5861
11194TIP3   OH254996   5.190   6.194  11.859  0.3882 -0.0986 -0.1355
11194TIP3    H154997   5.154   6.169  11.774 -1.8750  0.8008  0.4856
11194TIP3    H254998   5.270   6.242  11.837 -0.3863  0.5364 -1.8136
11195TIP3   OH254999   2.560   4.613   0.345  0.1847 -0.5206 -0.0202
11195TIP3    H155000   2.592   4.676   0.281 -0.9523 -0.5005 -0.5869
11195TIP3    H255001   2.536   4.536   0.293 -0.1067 -0.7651  0.4690
11196TIP3   OH255002   2.547   5.627   4.371 -0.6383 -0.1930  0.0303
11196TIP3    H155003   2.478   5.692   4.365 -1.3397 -0.7360  1.5985
11196TIP3    H255004   2.587   5.642   4.457 -1.7441 -2.6659  1.0827
11197TIP3   OH255005   2.431   6.102  16.223  0.6857 -0.8944  0.3234
11197TIP3    H155006   2.518   6.078  16.254  1.0813 -1.6673 -1.2992
11197TIP3    H255007   2.441   6.191  16.190  0.6590 -0.6901  0.8539
11198TIP3   OH255008   4.839   1.696   3.820 -0.0965  0.5012 -0.3422
11198TIP3    H155009   4.850   1.611   3.778  1.0948  0.5537 -0.1737
11198TIP3    H255010   4.855   1.679   3.913 -1.0375  0.6988 -0.1363
11199TIP3   OH255011   2.591   4.724  15.910  0.1149  0.1818 -0.4664
11199TIP3    H155012   2.615   4.694  15.998 -0.7183  1.1777  0.1407
11199TIP3    H255013   2.630   4.812  15.903  0.1233  0.1335 -1.0680
11200TIP3   OH255014   4.085   5.507   3.710 -0.9119  0.4305  0.1726
11200TIP3    H155015   4.054   5.489   3.622  2.5119 -0.4744 -0.9891
11200TIP3    H255016   4.077   5.602   3.719 -0.6388  0.6353 -1.4210
11201TIP3   OH255017   5.310   3.129  16.461  0.2381  0.0385 -0.1117
11201TIP3    H155018   5.235   3.082  16.497  0.2457  0.3960  0.3886
11201TIP3    H255019   5.319   3.207  16.517  2.5081 -1.2452  1.4976
11202TIP3   OH255020   2.686   6.358   5.917 -0.1604 -0.0326  0.1026
11202TIP3    H155021   2.720   6.448   5.909 -3.5903  1.5670  1.6359
11202TIP3    H255022   2.740   6.318   5.985 -0.0037  1.6706  1.0310
11203TIP3   OH255023   4.248   5.920   2.095  0.0178  0.1934 -0.0407
11203TIP3    H155024   4.336   5.907   2.060 -0.4710 -0.7015 -0.9973
11203TIP3    H255025   4.206   5.978   2.031  0.3529  1.9027  1.2002
11204TIP3   OH255026   2.575   5.214   4.137  0.4516  0.3648  0.2435
11204TIP3    H155027   2.530   5.138   4.102  1.3892 -0.4780  0.8191
11204TIP3    H255028   2.584   5.196   4.231  0.2237  1.4234  0.4839
11205TIP3   OH255029   1.402   1.271  16.719 -0.5140  0.6583 -0.0192
11205TIP3    H155030   1.335   1.283  16.652  0.5877  0.7980 -1.1354
11205TIP3    H255031   1.353   1.263  16.801 -2.0006 -1.2986 -1.0269
11206TIP3   OH255032   0.529   3.857  14.473 -0.2143  0.5427  0.3795
11206TIP3    H155033   0.445   3.867  14.519 -1.2450 -3.8741 -0.0877
11206TIP3    H255034   0.506   3.858  14.380 -0.4680 -3.2594  0.2092
11207TIP3   OH255035   6.702   4.138  11.835 -0.7346 -0.4991 -0.6313
11207TIP3    H155036   6.724   4.171  11.923  0.3754 -0.8889 -0.7400
11207TIP3    H255037   6.608   4.123  11.838 -0.5788 -1.4293  0.8160
11208TIP3   OH255038   4.721   1.470  15.913 -0.0041  0.6604 -0.3331
11208TIP3    H155039   4.704   1.521  15.834  0.7033  1.5310  0.0548
11208TIP3    H255040   4.705   1.530  15.985  0.0852  0.1034  0.1652
11209TIP3   OH255041   5.062   0.379  13.934  0.0745 -0.3891 -0.1627
11209TIP3    H155042   4.974   0.364  13.902 -0.6297 -0.2563  1.6071
11209TIP3    H255043   5.105   0.293  13.930 -0.4237 -0.6368 -0.1502
11210TIP3   OH255044   3.507   5.658  10.659  0.0630  0.3265  0.4333
11210TIP3    H155045   3.601   5.643  10.666  0.5560  1.7622 -1.8737
11210TIP3    H255046   3.468   5.570  10.657  1.5268 -0.3273 -0.2091
11211TIP3   OH255047   6.175   3.795  16.544  0.1593 -0.5431  0.5555
11211TIP3    H155048   6.196   3.886  16.562  2.6426 -1.2069  1.4563
11211TIP3    H255049   6.170   3.754  16.630  2.3698 -1.8620  0.1212
11212TIP3   OH255050   2.643   4.992  14.813 -0.2537 -0.1311 -0.3595
11212TIP3    H155051   2.721   4.960  14.766 -0.5006  0.4574 -1.1995
11212TIP3    H255052   2.631   5.081  14.780 -1.2571 -0.1969 -0.1936
11213TIP3   OH255053   3.042   0.960  17.044  0.1312 -0.1172 -0.3232
11213TIP3    H155054   2.951   0.989  17.033  0.3869  0.9843  0.3199
11213TIP3    H255055   3.046   0.876  16.998 -1.1136 -0.0007 -0.6827
11214TIP3   OH255056   2.403   2.591   1.223  0.0583  0.1370  0.2396
11214TIP3    H155057   2.462   2.561   1.292  0.8665 -0.3248 -0.6256
11214TIP3    H255058   2.453   2.659   1.177  0.0541 -0.4491 -0.6710
11215TIP3   OH255059   3.622   5.579  12.497 -0.2008  0.0622 -0.1741
11215TIP3    H155060   3.683   5.654  12.494  0.9762 -0.8316  0.4803
11215TIP3    H255061   3.664   5.512  12.443 -1.1709 -0.1984 -0.6279
11216TIP3   OH255062   0.084   1.650  12.864  0.3291  0.1116 -0.8148
11216TIP3    H155063   0.012   1.630  12.804 -0.0608  1.0528 -0.6812
11216TIP3    H255064   0.042   1.670  12.947  0.8365 -0.6243 -0.3654
11217TIP3   OH255065   0.635   5.445  12.044  0.0477  0.0943  0.5000
11217TIP3    H155066   0.644   5.375  12.109 -1.0857  0.0127  0.5870
11217TIP3    H255067   0.709   5.432  11.985 -0.2356 -1.2953  0.4135
11218TIP3   OH255068   0.511   4.528   1.326 -0.4402  0.3204  0.1086
11218TIP3    H155069   0.444   4.515   1.392 -0.1807  0.1050  0.3366
11218TIP3    H255070   0.465   4.523   1.242 -0.4620 -1.5857  0.1906
11219TIP3   OH255071   5.523   1.148   5.084 -0.4213  0.1658  0.0091
11219TIP3    H155072   5.508   1.206   5.010 -0.7004  1.9779  1.4279
11219TIP3    H255073   5.436   1.125   5.115 -0.3161  0.6102  0.6568
11220TIP3   OH255074   3.022   0.419   2.591  0.1543 -0.3589 -0.3927
11220TIP3    H155075   2.952   0.408   2.527  0.3470 -2.8533 -0.2943
11220TIP3    H255076   3.103   0.414   2.539  0.2923 -1.4424 -0.1006
11221TIP3   OH255077   2.198   0.094   4.523 -0.2498 -0.6933  0.4662
11221TIP3    H155078   2.144   0.050   4.588  0.3098 -0.4568  1.0967
11221TIP3    H255079   2.284   0.101   4.563  0.0717 -0.4273 -0.2489
11222TIP3   OH255080   4.549   5.006  11.900 -0.0617 -0.5090 -0.2416
11222TIP3    H155081   4.628   5.035  11.945 -0.6936  1.2059 -0.1597
11222TIP3    H255082   4.570   4.918  11.868  1.2331 -0.8028  1.3052
11223TIP3   OH255083   2.102   1.122  14.059 -0.1199  0.3876 -0.2002
11223TIP3    H155084   2.072   1.213  14.066 -1.1063 -0.0288  1.8203
11223TIP3    H255085   2.029   1.071  14.095  0.3639 -1.2287 -1.4226
11224TIP3   OH255086   4.035   2.877  13.904 -0.0250 -0.1787  0.3277
11224TIP3    H155087   4.003   2.810  13.964 -0.3301 -1.2532 -0.9764
11224TIP3    H255088   3.969   2.947  13.909  0.9203  0.6500  2.6168
11225TIP3   OH255089   6.287   1.972  14.412 -0.5463  0.7351  0.0746
11225TIP3    H155090   6.256   1.887  14.444  0.0788  0.2604 -0.5307
11225TIP3    H255091   6.264   2.034  14.480  0.8854 -0.2544  1.5354
11226TIP3   OH255092   3.099   2.120  11.058 -0.1028 -0.4630  0.1845
11226TIP3    H155093   3.193   2.126  11.076 -0.1635  1.3440  0.0631
11226TIP3    H255094   3.093   2.114  10.963 -0.0825 -2.2597  0.2599
11227TIP3   OH255095   3.199   4.719  14.936  0.5234 -0.7936 -0.4792
11227TIP3    H155096   3.148   4.748  15.012  1.2044 -1.0871  0.1045
11227TIP3    H255097   3.136   4.719  14.863  0.0823  0.3597 -0.1117
11228TIP3   OH255098   5.667   0.952   6.365 -0.0434  0.1123  0.1463
11228TIP3    H155099   5.634   0.998   6.288 -1.0048 -1.6870 -0.5665
11228TIP3    H255100   5.758   0.981   6.373 -0.2134  1.0557 -1.0738
11229TIP3   OH255101   3.118   0.354  12.296 -0.1827  0.3721 -0.1017
11229TIP3    H155102   3.099   0.447  12.313 -0.2012  0.2261  0.7357
11229TIP3    H255103   3.179   0.355  12.222 -0.6319  1.0216 -0.4748
11230TIP3   OH255104   5.491   2.034   0.339  0.2563  0.0510 -0.3727
11230TIP3    H155105   5.501   1.975   0.263  2.1659 -0.8421  0.5173
11230TIP3    H255106   5.565   2.013   0.395 -0.9864  0.8706  1.6544
11231TIP3   OH255107   3.845   2.478  15.642  0.7187 -0.1855 -0.1169
11231TIP3    H155108   3.875   2.567  15.659  1.1628 -0.4226  0.3699
11231TIP3    H255109   3.899   2.447  15.569  0.3809  0.0309 -0.4640
11232TIP3   OH255110   0.308   3.394  12.349 -0.5951 -0.0863 -0.2195
11232TIP3    H155111   0.301   3.438  12.433 -0.4262  0.3711 -0.4478
11232TIP3    H255112   0.401   3.391  12.330 -0.6682  0.2979 -0.6495
11233TIP3   OH255113   5.226   6.636   0.712  0.3108 -0.4421 -0.4434
11233TIP3    H155114   5.271   6.689   0.646  0.0386 -0.1837 -0.4215
11233TIP3    H255115   5.134   6.635   0.684  0.1898 -0.3011 -0.0448
11234TIP3   OH255116   0.274   5.463  11.419  0.6121  0.6216  0.1743
11234TIP3    H155117   0.305   5.516  11.493  0.5201  0.6459  0.1949
11234TIP3    H255118   0.249   5.527  11.352 -1.6360  0.7206  1.0167
11235TIP3   OH255119   2.612   3.021   3.029 -0.0205 -0.3224  0.1470
11235TIP3    H155120   2.682   2.965   3.062 -0.5368 -1.1812 -0.1823
11235TIP3    H255121   2.626   3.105   3.072  1.0673 -0.5519  0.2668
11236TIP3   OH255122   1.172   4.795   6.204 -0.2054 -0.1150 -0.3293
11236TIP3    H155123   1.244   4.826   6.259 -0.9028 -1.1592  1.2351
11236TIP3    H255124   1.165   4.860   6.135  0.5605  1.3762  0.9457
11237TIP3   OH255125   0.160   5.228   1.150 -0.4909  0.1107  0.7112
11237TIP3    H155126   0.192   5.254   1.063 -0.1661  0.6387  0.9896
11237TIP3    H255127   0.103   5.299   1.177 -1.6658 -0.6604  0.3726
11238TIP3   OH255128   0.485   3.317  11.609 -0.1485 -0.3209 -0.1173
11238TIP3    H155129   0.498   3.268  11.690 -2.0858 -0.6441  0.0559
11238TIP3    H255130   0.404   3.281  11.572 -1.1094  2.0300 -0.4931
11239TIP3   OH255131   2.840   5.076   6.201 -0.1625  0.3883  0.4665
11239TIP3    H155132   2.778   5.046   6.268  0.8023  0.6853  1.5222
11239TIP3    H255133   2.904   5.128   6.250  0.9609  0.0303 -0.5865
11240TIP3   OH255134   1.381   5.291  15.825  0.3312  0.0193  0.4556
11240TIP3    H155135   1.425   5.375  15.829 -0.3116  0.4166 -0.4700
11240TIP3    H255136   1.297   5.305  15.869  0.9233 -0.6179  1.8380
11241TIP3   OH255137   2.812   4.957  13.413  0.4251  0.3864 -0.1000
11241TIP3    H155138   2.761   5.015  13.469  1.1631  0.3489  0.6334
11241TIP3    H255139   2.822   4.877  13.465 -2.3319 -1.2745 -1.8642
11242TIP3   OH255140   0.892   2.760  14.103  0.2134 -0.1537  0.5215
11242TIP3    H155141   0.825   2.782  14.167  1.5151 -0.0331  1.9180
11242TIP3    H255142   0.975   2.769  14.151  1.2107 -0.7086 -1.0025
11243TIP3   OH255143   5.643   1.746  10.694  0.0688  0.6462  0.0263
11243TIP3    H155144   5.549   1.725  10.693  0.2402 -0.1626 -1.4446
11243TIP3    H255145   5.686   1.667  10.660  1.2419  1.2109  0.1468
11244TIP3   OH255146   2.253   5.445  12.885  0.5146  0.4517  0.2003
11244TIP3    H155147   2.243   5.428  12.792 -0.0585  0.0232  0.3396
11244TIP3    H255148   2.344   5.473  12.894  0.9100 -0.6216 -0.3186
11245TIP3   OH255149   4.176   6.678   0.712  0.3409 -0.2022  0.6055
11245TIP3    H155150   4.189   6.617   0.784 -1.4398  0.3541  1.4552
11245TIP3    H255151   4.089   6.716   0.727 -0.2039 -0.2215 -1.9594
11246TIP3   OH255152   5.895   2.994  11.612 -0.2743 -0.1475  0.0601
11246TIP3    H155153   5.815   2.953  11.645 -0.5560 -1.5381 -2.1905
11246TIP3    H255154   5.939   3.026  11.691 -1.5739 -2.0217  1.6429
11247TIP3   OH255155   4.825   6.437  11.570  0.4812  0.4278 -0.2254
11247TIP3    H155156   4.747   6.434  11.625  1.3914  0.7175  1.1531
11247TIP3    H255157   4.846   6.530  11.563  0.4732  0.3800 -0.9334
11248TIP3   OH255158   1.776   1.541   2.091 -0.1269  0.3529 -0.5837
11248TIP3    H155159   1.777   1.593   2.010 -0.0421 -4.2864 -3.9676
11248TIP3    H255160   1.860   1.495   2.090 -0.7546 -0.9384  1.3433
11249TIP3   OH255161   0.263   0.240  11.898 -0.2306  0.0789  0.0865
11249TIP3    H155162   0.212   0.299  11.954  0.3163  0.0331  0.6403
11249TIP3    H255163   0.213   0.158  11.900 -0.1898  0.0586  0.5597
11250TIP3   OH255164   0.135   2.191  15.005  0.2914 -0.5490  0.0272
11250TIP3    H155165   0.144   2.265  15.064 -1.5881 -1.4084  1.5215
11250TIP3    H255166   0.090   2.124  15.057 -0.0639 -1.9199 -1.9176
11251TIP3   OH255167   3.342   1.369  11.992 -0.4847  0.2265 -0.3751
11251TIP3    H155168   3.389   1.424  12.055  0.4670  2.7243 -3.0279
11251TIP3    H255169   3.404   1.356  11.921 -2.5645  0.4350 -2.3322
11252TIP3   OH255170   0.726   2.681  15.597  0.5997  0.2503  0.6791
11252TIP3    H155171   0.810   2.679  15.642  1.2656  0.1971 -0.5221
11252TIP3    H255172   0.746   2.716  15.510 -0.6421  0.3481  0.4147
11253TIP3   OH255173   4.582   1.925   0.023 -0.4238  0.6085 -0.2732
11253TIP3    H155174   4.640   1.849   0.027 -0.6266  0.4601 -0.1371
11253TIP3    H255175   4.599   1.964  -0.063  0.5235  1.0815  0.1211
11254TIP3   OH255176   3.077   0.651   5.175 -0.4705 -0.0639 -0.3279
11254TIP3    H155177   3.083   0.745   5.192  2.2727 -0.1583 -0.3478
11254TIP3    H255178   3.086   0.611   5.262  0.5599 -0.3376 -0.5594
11255TIP3   OH255179   1.358   6.126  13.232 -0.0208  0.5638 -0.4310
11255TIP3    H155180   1.399   6.120  13.145 -0.7581  0.4739 -0.7836
11255TIP3    H255181   1.425   6.165  13.288  1.4104 -1.6984 -0.4339
11256TIP3   OH255182   1.733   2.321   0.653 -0.5089 -0.2609 -0.1005
11256TIP3    H155183   1.781   2.303   0.733  2.8611  4.2459 -0.7512
11256TIP3    H255184   1.652   2.364   0.683  0.4992  0.9749  0.9522
11257TIP3   OH255185   0.717   3.980  14.644 -0.2049  0.1691 -0.1091
11257TIP3    H155186   0.645   3.930  14.606  0.7804 -0.4312 -1.2119
11257TIP3    H255187   0.677   4.025  14.719 -0.9061 -3.0587  1.6254
11258TIP3   OH255188   3.706   4.106  11.243  0.7944  0.1525 -0.6747
11258TIP3    H155189   3.668   4.129  11.158 -0.6145 -1.3659 -0.5060
11258TIP3    H255190   3.676   4.175  11.302 -2.5153 -1.3515 -0.3844
11259TIP3   OH255191   0.966   0.219   1.225 -0.0910  0.0174  0.2331
11259TIP3    H155192   0.993   0.130   1.244 -1.6662 -0.2729  1.3865
11259TIP3    H255193   1.038   0.257   1.174  1.3746 -1.3514  1.2026
11260TIP3   OH255194   3.004   3.348   0.220  0.0627 -0.0470  0.5537
11260TIP3    H155195   2.986   3.255   0.205 -1.7049  0.1054  1.4942
11260TIP3    H255196   3.007   3.386   0.132 -0.0016 -0.8580  0.1886
11261TIP3   OH255197   1.876   3.731   2.761 -0.2182 -0.3657 -0.1207
11261TIP3    H155198   1.810   3.664   2.746  0.4379 -0.5768 -2.3986
11261TIP3    H255199   1.841   3.783   2.834 -3.3181  0.0491 -1.7374
11262TIP3   OH255200   5.798   6.089   4.510  0.4933 -0.7939 -0.0447
11262TIP3    H155201   5.727   6.108   4.571  0.2293 -0.6465 -0.3944
11262TIP3    H255202   5.833   6.005   4.540 -0.1673 -1.1248 -0.1741
11263TIP3   OH255203   5.603   0.762   1.135  0.5718  0.1848  0.6115
11263TIP3    H155204   5.693   0.795   1.128  0.6786 -0.4330 -1.8091
11263TIP3    H255205   5.604   0.679   1.088 -1.4887  0.6441 -0.3439
11264TIP3   OH255206   6.109   6.743  13.052 -0.5601 -0.0464 -0.2635
11264TIP3    H155207   6.197   6.706  13.064 -0.1491  0.6802 -0.9821
11264TIP3    H255208   6.065   6.727  13.136  0.1607 -0.6517  0.0131
11265TIP3   OH255209   1.572   4.937  13.576 -0.3583 -0.3392  0.2075
11265TIP3    H155210   1.549   4.975  13.491 -1.8352 -0.2323  0.6219
11265TIP3    H255211   1.632   5.001  13.614  1.5875 -1.1285 -1.3584
11266TIP3   OH255212   0.565   4.317  13.530  0.1836  0.2989 -0.1158
11266TIP3    H155213   0.607   4.232  13.514  2.2984  0.6119  2.9572
11266TIP3    H255214   0.629   4.381  13.497  0.2357  0.7308  0.8124
11267TIP3   OH255215   4.783   3.277  15.040  0.4663 -0.4194 -0.1943
11267TIP3    H155216   4.818   3.241  14.958  2.3704 -0.9367  0.7906
11267TIP3    H255217   4.705   3.224  15.059  1.0282 -1.4639 -0.7601
11268TIP3   OH255218   1.577   0.626   4.703  0.2847 -0.3406 -0.1147
11268TIP3    H155219   1.529   0.670   4.633 -0.7374  0.2013  0.8959
11268TIP3    H255220   1.624   0.697   4.747  1.6242 -0.7919 -0.7489
11269TIP3   OH255221   1.693   3.319   1.341  0.2274 -0.2779  0.2426
11269TIP3    H155222   1.694   3.414   1.345  3.1758 -0.2545  1.2532
11269TIP3    H255223   1.708   3.291   1.431  0.8826 -1.6288 -0.2517
11270TIP3   OH255224   0.824   0.819   5.356  0.0079 -0.6518  0.0551
11270TIP3    H155225   0.806   0.770   5.275  0.3035 -0.0342 -0.3904
11270TIP3    H255226   0.829   0.752   5.424 -0.5230 -1.1569 -0.3907
11271TIP3   OH255227   4.329   3.815   3.156  0.5104  0.4071 -0.6248
11271TIP3    H155228   4.346   3.905   3.185 -2.1948  0.9374 -0.3662
11271TIP3    H255229   4.351   3.761   3.232  0.2488  1.0755 -0.0654
11272TIP3   OH255230   4.899   1.695   4.561  0.1773  0.5037  0.1844
11272TIP3    H155231   4.841   1.769   4.545 -1.5499 -0.3177  2.0799
11272TIP3    H255232   4.842   1.629   4.601  1.8156 -1.5590 -0.7136
11273TIP3   OH255233   5.336   5.021  11.075  0.0578 -0.0065  0.0497
11273TIP3    H155234   5.303   4.970  11.001  0.6906  0.4222 -0.5399
11273TIP3    H255235   5.385   5.093  11.035 -0.6630  0.9689  0.8698
11274TIP3   OH255236   4.562   6.038  11.744  0.0742 -0.3637  0.3997
11274TIP3    H155237   4.640   6.081  11.777  1.0512  0.2911 -2.4556
11274TIP3    H255238   4.575   5.945  11.763  1.1479 -0.1562  0.7043
11275TIP3   OH255239   5.373   1.242   3.236 -0.0072 -0.0022  0.2556
11275TIP3    H155240   5.456   1.196   3.224 -0.4688 -0.4100 -1.7302
11275TIP3    H255241   5.308   1.173   3.245 -0.2797  0.3053  0.6878
11276TIP3   OH255242   1.925   4.624   3.944 -0.0897  0.2675 -0.5299
11276TIP3    H155243   1.926   4.649   4.036  0.4632  2.0416 -0.9919
11276TIP3    H255244   2.015   4.640   3.914 -0.4178  0.2850 -1.5239
11277TIP3   OH255245   0.922   6.261  11.099 -0.1403 -0.3009  0.6068
11277TIP3    H155246   0.868   6.264  11.020  1.1546  2.1751 -0.2956
11277TIP3    H255247   0.992   6.199  11.078  0.5124  0.7546 -0.4622
11278TIP3   OH255248   4.841   1.720   3.440  0.8062  0.0992  0.4616
11278TIP3    H155249   4.810   1.629   3.445  0.6148  0.1176 -0.2522
11278TIP3    H255250   4.921   1.720   3.492  1.0381 -0.5861  0.1305
11279TIP3   OH255251   5.617   2.472   0.071  0.2701 -0.5308 -0.2483
11279TIP3    H155252   5.640   2.497   0.160  1.7540  1.4030 -1.1225
11279TIP3    H255253   5.700   2.464   0.026 -0.4992  1.3833 -2.1690
11280TIP3   OH255254   3.398   0.932   1.788  0.2828 -0.9514  0.1586
11280TIP3    H155255   3.337   0.868   1.823 -1.3548  0.0193 -0.8118
11280TIP3    H255256   3.401   1.001   1.853 -0.5237 -0.4955 -0.2725
11281TIP3   OH255257   0.388   0.702   3.701 -0.6565  0.3435 -0.0274
11281TIP3    H155258   0.301   0.703   3.661 -0.1829  1.3048 -1.0869
11281TIP3    H255259   0.402   0.611   3.726 -1.4034 -0.0840 -1.1066
11282TIP3   OH255260   5.350   6.654  13.071 -0.1792  0.1912  0.3156
11282TIP3    H155261   5.258   6.659  13.044 -0.0150  1.8366 -0.0682
11282TIP3    H255262   5.353   6.706  13.152  0.4409  0.2329  0.2673
11283TIP3   OH255263   1.261   0.811   3.866  0.0804  0.0623  0.1596
11283TIP3    H155264   1.216   0.781   3.787 -0.1493  0.8179 -0.0002
11283TIP3    H255265   1.351   0.780   3.854  0.1507  0.5257 -0.5939
11284TIP3   OH255266   5.199   6.306  13.590 -0.0780  0.3993 -0.5114
11284TIP3    H155267   5.239   6.220  13.579  1.2289  1.1430 -1.9486
11284TIP3    H255268   5.108   6.294  13.562 -0.5780 -0.9974  1.4773
11285TIP3   OH255269   5.429   3.299   1.300 -0.0325  0.3887 -0.0026
11285TIP3    H155270   5.498   3.358   1.328 -0.3084  0.1748  1.1863
11285TIP3    H255271   5.359   3.356   1.268 -0.5437  0.7643  1.7006
11286TIP3   OH255272   2.204   0.468   5.778  0.0223  0.1135 -0.3163
11286TIP3    H155273   2.149   0.467   5.856 -0.4736  1.7879 -0.6187
11286TIP3    H255274   2.144   0.449   5.706 -0.3116  2.3737 -0.6966
11287TIP3   OH255275   4.394   4.581  15.375  0.1838 -0.8296 -0.2024
11287TIP3    H155276   4.314   4.600  15.327  0.2543  1.2877  0.4003
11287TIP3    H255277   4.455   4.550  15.309 -1.3415 -3.3909 -0.5396
11288TIP3   OH255278   0.661   1.725  11.967  0.3339  0.5032 -0.2168
11288TIP3    H155279   0.718   1.785  11.920  2.5827 -0.1228  1.5592
11288TIP3    H255280   0.605   1.783  12.019  1.2771  1.1039  0.1538
11289TIP3   OH255281   5.927   3.139   2.414  0.4540 -0.1315  0.2746
11289TIP3    H155282   5.898   3.136   2.505  0.8557  0.1627  0.4158
11289TIP3    H255283   5.881   3.213   2.376  0.6068  0.0041  0.3528
11290TIP3   OH255284   1.683   1.400  13.780  0.1353  0.2887 -0.1092
11290TIP3    H155285   1.717   1.334  13.841 -0.4616 -0.3987 -0.5054
11290TIP3    H255286   1.755   1.462  13.769  0.3346  0.3165  1.1279
11291TIP3   OH255287   2.232   5.361  14.323  0.0181 -0.2188  0.0678
11291TIP3    H155288   2.289   5.340  14.249  1.3496 -1.8364  1.4593
11291TIP3    H255289   2.255   5.451  14.347  0.4301 -0.1063 -0.7092
11292TIP3   OH255290   2.278   5.357  13.455 -0.1767 -0.1888  0.3992
11292TIP3    H155291   2.369   5.329  13.466 -0.1204 -0.9975 -1.6860
11292TIP3    H255292   2.277   5.399  13.369 -2.1195 -1.7697 -0.4226
11293TIP3   OH255293   1.847   0.944   0.244 -0.4599 -1.0041 -0.5260
11293TIP3    H155294   1.776   0.901   0.198 -0.8444 -0.5188 -0.4019
11293TIP3    H255295   1.856   1.029   0.201  1.7816 -2.0134 -2.2431
11294TIP3   OH255296   5.160   1.794   3.202 -0.0698  0.2590 -0.4972
11294TIP3    H155297   5.166   1.707   3.242  0.7277  0.4822 -0.1034
11294TIP3    H255298   5.180   1.854   3.274 -0.8613  0.7839 -0.7095
11295TIP3   OH255299   2.905   5.459   5.412  0.1685  0.4908 -0.4345
11295TIP3    H155300   2.921   5.551   5.436  0.3271  0.1691  0.7568
11295TIP3    H255301   2.810   5.451   5.413  0.1724  0.3302  0.8092
11296TIP3   OH255302   5.603   6.174  14.059  0.5160 -0.0372  0.5804
11296TIP3    H155303   5.598   6.176  14.154  2.8445 -0.5476  0.7522
11296TIP3    H255304   5.513   6.154  14.031  0.4361 -3.4194  2.7996
11297TIP3   OH255305   1.052   1.173  12.480  0.1830 -0.3459 -0.3550
11297TIP3    H155306   1.086   1.084  12.483 -0.4401 -0.5761  0.0228
11297TIP3    H255307   0.985   1.170  12.411 -0.0575 -0.2522 -0.1276
11298TIP3   OH255308   6.544   2.025   0.329  0.3081  0.0720 -0.3805
11298TIP3    H155309   6.564   2.104   0.279 -0.1093  0.4254 -0.0010
11298TIP3    H255310   6.627   2.001   0.370  0.6234 -0.1502 -1.1440
11299TIP3   OH255311   5.622   3.684  13.442  0.1827 -0.0106  0.1123
11299TIP3    H155312   5.694   3.747  13.448 -0.3369  0.5707  0.3298
11299TIP3    H255313   5.543   3.738  13.449 -0.2832 -0.5808 -0.6809
11300TIP3   OH255314   2.647   5.273   5.082  0.1216  0.1046 -0.4938
11300TIP3    H155315   2.728   5.236   5.118 -2.4749 -1.2958  5.0395
11300TIP3    H255316   2.664   5.367   5.078  1.7897 -0.0033  1.6930
11301TIP3   OH255317   6.779   6.461  11.653  0.1707  0.1873  0.1392
11301TIP3    H155318   6.703   6.520  11.649 -0.6954 -0.8977  0.1671
11301TIP3    H255319   6.772   6.407  11.575  1.5133  0.7522 -0.4011
11302TIP3   OH255320   0.695   3.821  16.893  0.3751 -0.2183 -0.5758
11302TIP3    H155321   0.673   3.776  16.975  0.6039  0.6734 -0.0021
11302TIP3    H255322   0.683   3.914  16.914 -0.1725 -0.0084 -1.7453
11303TIP3   OH255323   2.805   1.318  15.944  0.0287 -0.1969 -0.5246
11303TIP3    H155324   2.805   1.405  15.905 -2.2317 -0.1552 -0.5618
11303TIP3    H255325   2.793   1.335  16.038  0.9928 -0.4438 -0.3482
11304TIP3   OH255326   2.841   3.593   3.242  1.1362  0.0278 -0.0215
11304TIP3    H155327   2.827   3.687   3.230  0.0718 -0.2409 -1.1248
11304TIP3    H255328   2.874   3.563   3.158  0.4075 -0.7606 -0.0369
11305TIP3   OH255329   4.406   4.886   1.691 -0.0224 -0.5853  0.0443
11305TIP3    H155330   4.465   4.858   1.621 -0.9280 -0.0462 -0.9539
11305TIP3    H255331   4.322   4.900   1.648 -0.3810  0.6195  1.0723
11306TIP3   OH255332   3.828   6.168   3.526  0.1881 -0.7618  0.0755
11306TIP3    H155333   3.886   6.092   3.528  1.5091  0.1718 -0.7705
11306TIP3    H255334   3.887   6.242   3.511 -1.3358  0.1102 -2.1518
11307TIP3   OH255335   2.960   3.849  13.348  0.4692  0.4033  0.0276
11307TIP3    H155336   2.946   3.943  13.361  0.0953  0.5240 -1.1185
11307TIP3    H255337   3.041   3.844  13.298  0.2784  0.1559 -0.2630
11308TIP3   OH255338   3.498   5.666  14.503 -0.1197 -0.2695 -0.0760
11308TIP3    H155339   3.485   5.622  14.587  0.1373 -0.3922 -0.0974
11308TIP3    H255340   3.593   5.673  14.494 -0.1575  0.1313 -0.1577
11309TIP3   OH255341   1.270   2.287  15.790 -0.0539  0.0957  0.1280
11309TIP3    H155342   1.234   2.274  15.702 -0.8373  0.3941  0.3897
11309TIP3    H255343   1.220   2.361  15.825 -0.7632 -0.9360  1.3611
11310TIP3   OH255344   4.025   2.895  13.454 -0.0552 -0.4919  0.0147
11310TIP3    H155345   4.009   2.818  13.510  2.3995 -1.9266 -1.0775
11310TIP3    H255346   3.992   2.869  13.368  0.9123 -0.3958 -0.3933
11311TIP3   OH255347   4.608   5.886  11.111 -0.2670 -0.5138  0.2561
11311TIP3    H155348   4.590   5.803  11.068  0.4740  0.1559 -1.4536
11311TIP3    H255349   4.702   5.884  11.129 -0.7662 -1.3804  3.3190
11312TIP3   OH255350   6.186   4.805   5.905  0.0765  0.7447  0.2721
11312TIP3    H155351   6.195   4.895   5.875  0.3030  1.2683  1.8315
11312TIP3    H255352   6.246   4.755   5.850 -1.3829  1.2062 -1.8598
11313TIP3   OH255353   2.430   6.367   5.819 -0.2089 -0.4502  0.4375
11313TIP3    H155354   2.382   6.436   5.774  1.9993  0.0795 -1.2622
11313TIP3    H255355   2.522   6.380   5.793  0.7446 -2.0593  2.6483
11314TIP3   OH255356   5.990   5.549  12.900 -0.6026  0.5407  0.1605
11314TIP3    H155357   5.970   5.489  12.828  3.3447 -2.6788  1.3601
11314TIP3    H255358   5.975   5.498  12.979 -1.4547  2.7972  1.5277
11315TIP3   OH255359   1.764   1.224   0.114 -0.1328  0.1941  0.0660
11315TIP3    H155360   1.712   1.304   0.104 -0.7333 -0.3431 -1.3296
11315TIP3    H255361   1.818   1.221   0.035  1.0317 -0.0034  0.8291
11316TIP3   OH255362   6.535   6.414  15.091 -0.8219  0.0053 -0.1401
11316TIP3    H155363   6.442   6.390  15.091 -0.9893  0.5678 -1.4544
11316TIP3    H255364   6.579   6.338  15.051 -0.6752 -0.3596  0.6984
11317TIP3   OH255365   3.929   0.694  11.721 -0.0697  0.0741 -0.7842
11317TIP3    H155366   4.017   0.700  11.760  0.4302 -0.3437 -1.8235
11317TIP3    H255367   3.939   0.633  11.648 -0.5899  2.2001 -2.7187
11318TIP3   OH255368   3.650   5.767  13.324  0.2549  0.1011  0.2318
11318TIP3    H155369   3.665   5.747  13.231  0.0091 -1.3611  0.4719
11318TIP3    H255370   3.682   5.856  13.335  2.9297 -0.6490 -0.6330
11319TIP3   OH255371   4.889   4.846   2.252 -0.0337  0.7408  1.1343
11319TIP3    H155372   4.969   4.897   2.269  0.0849  0.5037  1.2804
11319TIP3    H255373   4.858   4.879   2.167 -0.0494  1.1775  1.3045
11320TIP3   OH255374   2.538   4.684   6.568 -0.2653  0.3778  0.1010
11320TIP3    H155375   2.539   4.668   6.663  1.2633  0.0720  0.0613
11320TIP3    H255376   2.621   4.648   6.537 -0.5136  0.9489 -1.2891
11321TIP3   OH255377   3.513   4.307  15.459  0.0678 -0.0968 -0.0893
11321TIP3    H155378   3.600   4.341  15.481 -0.3071 -0.1197  1.5683
11321TIP3    H255379   3.529   4.217  15.431  0.6153  0.0617 -0.3161
11322TIP3   OH255380   6.106   0.269   1.607  0.0208 -0.1239 -0.1299
11322TIP3    H155381   6.174   0.318   1.561  0.3831 -0.7147 -0.2278
11322TIP3    H255382   6.092   0.191   1.553 -0.6266 -0.0834 -0.0303
11323TIP3   OH255383   0.503   1.024   3.665 -0.8089 -0.5115  0.2636
11323TIP3    H155384   0.431   0.963   3.650 -1.1763  0.4126 -2.1419
11323TIP3    H255385   0.470   1.109   3.636  1.8219 -0.4108 -3.1020
11324TIP3   OH255386   3.971   0.168   6.570 -0.0319 -0.1931 -0.1380
11324TIP3    H155387   3.889   0.142   6.528 -1.9113  1.9929  1.8636
11324TIP3    H255388   3.957   0.260   6.593  1.7427 -0.6073  3.1112
11325TIP3   OH255389   5.732   2.629   6.083  0.3398  0.5693  0.5492
11325TIP3    H155390   5.778   2.638   6.166 -1.8790 -0.4041  1.9676
11325TIP3    H255391   5.723   2.719   6.051  1.0606  0.9747  1.4289
11326TIP3   OH255392   0.147   2.892  16.626  0.1025 -0.3323  0.4136
11326TIP3    H155393   0.157   2.804  16.661 -1.3930 -0.6082  0.2149
11326TIP3    H255394   0.140   2.880  16.531 -1.5479 -0.1770  0.4886
11327TIP3   OH255395   1.249   2.236  15.429 -0.0014  0.2060  0.0834
11327TIP3    H155396   1.185   2.198  15.490 -0.0306  1.9797  1.2431
11327TIP3    H255397   1.312   2.166  15.413 -0.9088 -0.8167  0.8425
11328TIP3   OH255398   3.306   4.585  11.603  0.3975 -0.1524 -0.3289
11328TIP3    H155399   3.331   4.572  11.511 -0.2077 -0.7273 -0.4153
11328TIP3    H255400   3.345   4.669  11.626 -2.2861  1.7280 -2.1340
11329TIP3   OH255401   5.364   3.821  14.685 -0.5381 -0.8463 -0.2813
11329TIP3    H155402   5.398   3.817  14.775 -1.0527  5.7663  0.7236
11329TIP3    H255403   5.442   3.839  14.632 -0.7209 -0.0753 -0.3064
11330TIP3   OH255404   4.334   4.180   5.737 -0.2375  0.0038  0.2593
11330TIP3    H155405   4.362   4.183   5.829  0.5765  2.3686  0.0270
11330TIP3    H255406   4.414   4.159   5.689 -0.1830  0.8215 -0.0218
11331TIP3   OH255407   1.786   0.235  11.893 -0.2100 -0.3114  0.2043
11331TIP3    H155408   1.708   0.204  11.938  0.2845 -0.6150  0.8840
11331TIP3    H255409   1.856   0.226  11.958  0.7673 -1.9673 -0.9978
11332TIP3   OH255410   6.321   0.268  13.452  0.0856 -0.3022  0.1856
11332TIP3    H155411   6.291   0.256  13.362  2.0327 -0.5659 -0.4758
11332TIP3    H255412   6.249   0.235  13.506 -1.1467 -0.0818 -1.2529
11333TIP3   OH255413   3.268   1.922   0.229 -0.1930 -0.5654 -0.3155
11333TIP3    H155414   3.225   1.963   0.303 -3.0517 -0.9790 -1.6109
11333TIP3    H255415   3.322   1.854   0.267  0.3714  0.8190  1.4992
11334TIP3   OH255416   0.430   4.512   1.059  0.4450 -0.0791  0.0242
11334TIP3    H155417   0.520   4.480   1.051  0.4282  0.3220 -2.4923
11334TIP3    H255418   0.379   4.452   1.005 -1.0617 -1.0096  2.3373
11335TIP3   OH255419   1.453   1.316   1.358 -0.0515 -0.3524  0.2153
11335TIP3    H155420   1.372   1.298   1.309  0.6369  1.4927 -1.7973
11335TIP3    H255421   1.471   1.236   1.406 -2.0997 -1.4522 -0.7210
11336TIP3   OH255422   4.223   5.843  10.854 -0.5356  0.4456 -0.2417
11336TIP3    H155423   4.155   5.880  10.798  1.1465  2.0474 -1.3474
11336TIP3    H255424   4.203   5.878  10.941 -1.7158  0.0032 -0.3163
11337TIP3   OH255425   4.667   2.176   0.910 -0.7990 -0.0776  0.1327
11337TIP3    H155426   4.736   2.226   0.867 -0.2133 -1.0427 -0.0868
11337TIP3    H255427   4.591   2.187   0.853  0.1510 -1.9442 -1.6790
11338TIP3   OH255428   4.843   5.096   5.134 -0.2671 -0.4948 -0.2697
11338TIP3    H155429   4.810   5.009   5.157 -3.6567  0.1509 -2.1800
11338TIP3    H255430   4.802   5.155   5.197  2.2650 -0.1738  1.2238
11339TIP3   OH255431   5.090   6.024   5.172  0.0547 -0.1553  0.4920
11339TIP3    H155432   5.025   6.034   5.103 -0.6117  0.4437  1.2020
11339TIP3    H255433   5.067   5.941   5.214 -0.0243 -0.1182  0.5206
11340TIP3   OH255434   6.398   4.289  12.992  0.0566 -0.0101 -0.6671
11340TIP3    H155435   6.477   4.257  12.948 -0.6086  0.1985 -2.0969
11340TIP3    H255436   6.393   4.381  12.967 -0.9383 -0.1659 -1.0971
11341TIP3   OH255437   0.505   5.069  14.819  0.0413 -0.0283  0.0499
11341TIP3    H155438   0.532   4.978  14.816  0.2695 -0.0019  1.1245
11341TIP3    H255439   0.411   5.066  14.801 -0.3259 -0.6762  1.8557
11342TIP3   OH255440   0.076   0.426  15.009  0.5093 -0.6559  0.0270
11342TIP3    H155441   0.092   0.483  14.934 -4.0378  1.2510  0.1545
11342TIP3    H255442  -0.001   0.375  14.983 -0.4618 -0.8085  2.9348
11343TIP3   OH255443   4.213   4.627  14.400 -0.0207 -0.8939  0.1874
11343TIP3    H155444   4.271   4.638  14.476 -0.3889  1.3125  0.2068
11343TIP3    H255445   4.126   4.618  14.438 -0.0192 -1.4834  0.0617
11344TIP3   OH255446   3.982   2.731   5.616  0.0242 -0.2281 -0.3341
11344TIP3    H155447   3.937   2.814   5.599 -0.0017 -0.2374 -0.3110
11344TIP3    H255448   3.946   2.701   5.699  0.7174  0.2017  0.1286
11345TIP3   OH255449   2.561   6.254  12.494 -0.4320  0.2318  0.2377
11345TIP3    H155450   2.652   6.233  12.474  0.7929  3.7734  1.3249
11345TIP3    H255451   2.533   6.310  12.421 -0.7890  1.3372  1.1932
11346TIP3   OH255452   5.617   5.876   1.733 -0.1331  0.4443  0.8473
11346TIP3    H155453   5.594   5.966   1.755 -0.1851  0.2624  1.5588
11346TIP3    H255454   5.539   5.825   1.752 -0.2273  0.3007  0.0824
11347TIP3   OH255455   0.177   4.998   4.995  0.0635  0.7734  0.3773
11347TIP3    H155456   0.131   4.917   4.971  0.1078  1.0053 -0.5388
11347TIP3    H255457   0.205   4.984   5.085  0.1700 -0.2809  0.1922
11348TIP3   OH255458   4.669   4.975   3.566 -0.2599 -0.0397 -0.0566
11348TIP3    H155459   4.723   4.922   3.508 -2.7907  0.3469 -3.0991
11348TIP3    H255460   4.588   4.924   3.576 -0.6687  0.8539  1.4960
11349TIP3   OH255461   5.350   0.837  16.109 -0.5252  0.2486 -0.5838
11349TIP3    H155462   5.333   0.747  16.136 -0.7396  0.5297  0.2351
11349TIP3    H255463   5.445   0.843  16.106 -0.4324  0.6127  1.5793
11350TIP3   OH255464   6.551   5.374  13.532 -0.4253 -0.4168  0.3536
11350TIP3    H155465   6.515   5.460  13.555  1.2624 -0.3075  2.9967
11350TIP3    H255466   6.587   5.340  13.614  2.9585 -1.6888 -1.4509
11351TIP3   OH255467   0.193   5.652  13.089  0.2543 -0.2899 -0.2799
11351TIP3    H155468   0.110   5.700  13.090 -0.1600 -0.9834  0.1019
11351TIP3    H255469   0.202   5.619  13.000 -1.1409 -2.2742  0.2366
11352TIP3   OH255470   5.574   6.697  16.057  0.3922  0.0673  0.4388
11352TIP3    H155471   5.488   6.683  16.096 -0.4111  1.4724 -0.6864
11352TIP3    H255472   5.581   6.631  15.989  0.6323 -0.6655  1.1679
11353TIP3   OH255473   2.289   6.413  11.310  0.1143 -0.1129 -0.4377
11353TIP3    H155474   2.208   6.441  11.353  0.8694  1.4164  0.0596
11353TIP3    H255475   2.359   6.446  11.366  1.1188  0.5726 -2.0194
11354TIP3   OH255476   5.620   2.355   6.599  0.3730  0.8813  0.1361
11354TIP3    H155477   5.695   2.318   6.647 -0.3616  0.5157  1.0293
11354TIP3    H255478   5.646   2.445   6.581  1.3375  0.5471 -0.2412
11355TIP3   OH255479   2.158   3.791   2.145 -0.5179  0.2565 -0.0003
11355TIP3    H155480   2.186   3.779   2.236 -0.8444  0.2262  0.0976
11355TIP3    H255481   2.178   3.883   2.126 -1.2653  0.5085  0.3926
11356TIP3   OH255482   0.023   1.004   4.703  0.7729  0.4553 -0.9012
11356TIP3    H155483   0.033   1.092   4.667  0.2809  0.5117 -0.9056
11356TIP3    H255484   0.113   0.975   4.720  0.8990  1.8536  1.2271
11357TIP3   OH255485   0.257   0.218   0.470  0.5190 -0.7381 -0.5155
11357TIP3    H155486   0.181   0.273   0.489 -0.8038 -2.5254 -0.3477
11357TIP3    H255487   0.223   0.150   0.412  2.0407 -1.5162 -0.5378
11358TIP3   OH255488   1.878   0.602   0.845 -0.5163 -0.0450 -0.1437
11358TIP3    H155489   1.968   0.573   0.863 -0.5672  0.1131  0.3967
11358TIP3    H255490   1.884   0.697   0.839 -0.8129  0.0707  1.0092
11359TIP3   OH255491   4.751   2.344  11.194 -0.6086  0.1091  0.6057
11359TIP3    H155492   4.698   2.299  11.128  0.3043  0.5510 -0.4575
11359TIP3    H255493   4.780   2.425  11.151  0.7442 -0.0239  1.2113
11360TIP3   OH255494   6.494   2.733   6.248  0.1607  0.5064 -0.1124
11360TIP3    H155495   6.511   2.675   6.322  3.6436  1.6487  0.1776
11360TIP3    H255496   6.521   2.682   6.171 -1.1673  0.1776 -0.3840
11361TIP3   OH255497   2.451   6.543  14.309  0.7882  0.0754 -0.7876
11361TIP3    H155498   2.530   6.518  14.356  0.6990 -0.7020 -1.0377
11361TIP3    H255499   2.431   6.631  14.340  1.3949  0.0310 -0.2583
11362TIP3   OH255500   5.428   6.078  10.556 -0.6211 -0.2108  0.1691
11362TIP3    H155501   5.350   6.070  10.501 -0.8949 -0.5052  0.5872
11362TIP3    H255502   5.473   5.994  10.547  1.0522  0.8253 -2.0989
11363TIP3   OH255503   1.534   1.078   0.161 -0.0862 -0.1079  0.5069
11363TIP3    H155504   1.570   1.002   0.115  0.1766  0.0908  0.3819
11363TIP3    H255505   1.605   1.106   0.219 -0.5274 -0.5463  1.2624
11364TIP3   OH255506   5.455   2.275  14.573 -0.2265 -0.1488  0.0381
11364TIP3    H155507   5.376   2.296  14.522  0.5583  1.1680 -0.7028
11364TIP3    H255508   5.475   2.356  14.620  1.1402 -0.1966 -0.4352
11365TIP3   OH255509   2.102   5.232  14.673  0.3660 -0.3481  0.2859
11365TIP3    H155510   2.028   5.268  14.721 -0.2087 -0.3561 -0.5768
11365TIP3    H255511   2.073   5.146  14.644 -0.1932  0.5608 -2.0474
11366TIP3   OH255512   2.017   3.120   0.636  0.4286  0.1031  0.1923
11366TIP3    H155513   2.080   3.170   0.688 -0.0664  0.6279  0.3025
11366TIP3    H255514   2.013   3.166   0.552  0.5967 -0.2471 -0.0093
11367TIP3   OH255515   3.454   3.184  15.968 -0.1844  0.1355 -0.7470
11367TIP3    H155516   3.524   3.230  15.922  0.7456 -0.4354  0.0673
11367TIP3    H255517   3.498   3.132  16.034 -1.5112  1.3094  1.1634
11368TIP3   OH255518   2.699   2.458  15.991  0.4680 -0.0433  0.0118
11368TIP3    H155519   2.747   2.523  15.940  2.2407  0.3965  2.0877
11368TIP3    H255520   2.608   2.486  15.987  0.6589  0.4370 -2.1341
11369TIP3   OH255521   6.607   2.558  13.930  0.1527  0.2270  0.0732
11369TIP3    H155522   6.529   2.596  13.889  0.8202  0.8244 -0.6773
11369TIP3    H255523   6.679   2.616  13.904  0.9257 -0.5732  0.3599
11370TIP3   OH255524   2.539   4.345   0.194  0.0341 -0.1536 -0.2299
11370TIP3    H155525   2.633   4.358   0.197 -0.0141  0.8421 -1.7035
11370TIP3    H255526   2.515   4.314   0.281  1.6027  0.4089  0.4274
11371TIP3   OH255527   2.353   1.689  15.436 -0.0161  0.1102  0.4244
11371TIP3    H155528   2.279   1.744  15.462  0.0325 -0.8404  2.7759
11371TIP3    H255529   2.314   1.603  15.419  0.4027 -0.1025  0.5212
11372TIP3   OH255530   0.011   5.714   3.318 -0.1454  0.1037 -0.0037
11372TIP3    H155531  -0.048   5.655   3.271  0.9683 -0.2656 -1.0034
11372TIP3    H255532   0.072   5.656   3.363  0.9316  0.4570 -0.9527
11373TIP3   OH255533   4.770   2.080  15.857  0.7928  0.6946 -0.1372
11373TIP3    H155534   4.715   2.015  15.902 -0.0223  0.7047 -1.0732
11373TIP3    H255535   4.818   2.124  15.927 -0.7480  0.9984  0.7802
11374TIP3   OH255536   1.947   6.185   4.095  0.6252 -0.2721 -0.3082
11374TIP3    H155537   1.944   6.258   4.034 -0.6009 -0.2894 -0.2801
11374TIP3    H255538   1.913   6.111   4.045  0.5173 -0.5036  0.1063
11375TIP3   OH255539   1.839   5.498  14.349  0.5196 -0.0755  0.7384
11375TIP3    H155540   1.890   5.417  14.356  1.0924 -0.1185 -2.4805
11375TIP3    H255541   1.889   5.552  14.289 -1.6111  1.2593  0.0699
11376TIP3   OH255542   1.226   5.934   1.491 -0.0558 -0.5446  0.6231
11376TIP3    H155543   1.215   6.029   1.489  1.9785 -0.1978 -3.2331
11376TIP3    H255544   1.284   5.918   1.566  1.7594  1.6871 -0.1821
11377TIP3   OH255545   5.033   0.076  15.734  0.1618 -0.3728 -0.1891
11377TIP3    H155546   5.022   0.131  15.812 -0.5773 -0.2143 -0.4019
11377TIP3    H255547   5.120   0.099  15.700  0.7897 -0.9251  0.9672
11378TIP3   OH255548   6.745   2.028   2.407  0.1925  0.8750 -0.0021
11378TIP3    H155549   6.837   2.003   2.408  0.3333  1.4008  0.5370
11378TIP3    H255550   6.723   2.034   2.314 -0.0052 -1.7504 -0.2018
11379TIP3   OH255551   3.850   1.883   4.729 -0.2045 -0.3841  0.1453
11379TIP3    H155552   3.840   1.817   4.660 -2.0094  0.6503 -0.6504
11379TIP3    H255553   3.821   1.965   4.688 -1.0031  0.3187  2.0194
11380TIP3   OH255554   4.210   5.150  16.821 -0.6196 -0.1685  0.8041
11380TIP3    H155555   4.217   5.066  16.867 -0.4009  0.0956  1.2628
11380TIP3    H255556   4.150   5.201  16.875  0.4220  0.5041  1.3578
11381TIP3   OH255557   2.180   6.053  14.074 -0.5239  0.4780  0.4348
11381TIP3    H155558   2.138   6.137  14.094 -1.8397  0.1441 -0.7819
11381TIP3    H255559   2.110   6.001  14.035  0.0385 -1.5027  1.9172
11382TIP3   OH255560   6.559   1.787   5.672 -0.2394  0.0267 -0.6633
11382TIP3    H155561   6.580   1.802   5.580 -0.6063  0.9142 -0.6076
11382TIP3    H255562   6.465   1.770   5.674 -0.2807  0.2570 -0.4345
11383TIP3   OH255563   6.273   2.938   1.792  0.4370  0.1011 -0.0975
11383TIP3    H155564   6.224   3.009   1.750 -0.1208 -0.3217 -0.1724
11383TIP3    H255565   6.338   2.912   1.727  0.7511  0.6525 -0.0071
11384TIP3   OH255566   4.025   4.235   1.395 -0.9703 -0.0377  0.0597
11384TIP3    H155567   3.990   4.251   1.483  0.7283  3.3956  0.2847
11384TIP3    H255568   3.948   4.215   1.342 -2.0898 -1.9039  2.1981
11385TIP3   OH255569   5.309   0.111   5.696  0.3987 -0.7029  0.0996
11385TIP3    H155570   5.308   0.081   5.787 -0.0612  0.1033  0.3689
11385TIP3    H255571   5.365   0.048   5.650  0.7629 -1.0226  0.9703
11386TIP3   OH255572   4.881   2.939  17.155 -0.3076 -0.0148  0.2407
11386TIP3    H155573   4.813   3.003  17.134 -1.1686 -0.6570  1.0275
11386TIP3    H255574   4.837   2.854  17.148  1.0080 -0.6027 -1.5515
11387TIP3   OH255575   1.045   1.050   2.410 -0.0622  0.3086 -0.2132
11387TIP3    H155576   0.970   1.000   2.441 -0.3689  1.6444  1.3741
11387TIP3    H255577   1.063   1.112   2.481  0.1451  2.5920 -2.1101
11388TIP3   OH255578   5.800   1.101  14.625 -1.5497 -0.5482 -0.3128
11388TIP3    H155579   5.743   1.039  14.671  0.0555 -2.9447 -1.3808
11388TIP3    H255580   5.827   1.163  14.692 -3.2060 -0.9683  0.8060
11389TIP3   OH255581   5.341   0.497   5.314  0.2360 -0.0585  0.0548
11389TIP3    H155582   5.295   0.456   5.241 -0.6760 -0.3976  0.7872
11389TIP3    H255583   5.273   0.511   5.380  1.1802 -0.5242  1.1673
11390TIP3   OH255584   1.585   2.368  16.285 -0.0260 -0.0645  0.0561
11390TIP3    H155585   1.604   2.279  16.257 -1.9584 -0.1714 -1.1242
11390TIP3    H255586   1.521   2.358  16.356 -0.5359  0.3683 -0.3335
11391TIP3   OH255587   6.364   2.318   1.701 -0.3098 -0.0450  0.3996
11391TIP3    H155588   6.440   2.328   1.759 -0.5613 -0.1293  0.7469
11391TIP3    H255589   6.361   2.400   1.651  0.7934 -0.5753 -0.5632
11392TIP3   OH255590   1.904   2.421  15.411  0.1080 -0.1243  0.1808
11392TIP3    H155591   1.971   2.374  15.362 -1.4199  0.2725 -2.4505
11392TIP3    H255592   1.830   2.360  15.413 -0.1568  0.2171  1.2843
11393TIP3   OH255593   0.061   4.180  16.264  0.1206 -0.4865 -0.6995
11393TIP3    H155594   0.012   4.104  16.235 -1.3457  0.8698 -1.9428
11393TIP3    H255595   0.000   4.227  16.322  2.3034 -2.1384  3.3675
11394TIP3   OH255596   5.035   0.670   5.281  0.2618 -0.7338 -0.1531
11394TIP3    H155597   5.018   0.668   5.376  1.2335 -3.0637  0.0356
11394TIP3    H255598   4.966   0.614   5.244  0.2300 -0.2960 -0.7566
11395TIP3   OH255599   0.529   2.680   2.890 -0.1611  0.1241  0.1352
11395TIP3    H155600   0.516   2.753   2.830  1.3418  0.2784 -0.0413
11395TIP3    H255601   0.505   2.715   2.976 -0.8368  0.3655 -0.1423
11396TIP3   OH255602   6.521   6.364   2.883  0.0351 -0.2004  0.7064
11396TIP3    H155603   6.537   6.294   2.819 -2.3422  0.7492 -1.0603
11396TIP3    H255604   6.598   6.420   2.877  0.1881 -0.5283 -0.8493
11397TIP3   OH255605   2.352   4.787  16.285  0.5661  0.0417  0.1760
11397TIP3    H155606   2.424   4.841  16.251  0.6874 -0.1636  0.1097
11397TIP3    H255607   2.285   4.789  16.216 -0.0450  1.3047  0.7648
11398TIP3   OH255608   4.155   2.239  14.127 -0.1745 -0.4393  0.0791
11398TIP3    H155609   4.068   2.258  14.161 -0.4526  1.2781 -1.4457
11398TIP3    H255610   4.215   2.274  14.194 -0.6498 -0.6134  0.6022
11399TIP3   OH255611   4.328   3.692  15.157  0.6691  0.6946 -0.2852
11399TIP3    H155612   4.281   3.768  15.122 -0.4472  0.6418  0.9983
11399TIP3    H255613   4.410   3.728  15.191  0.0050  1.4089  0.6209
11400TIP3   OH255614   5.889   1.200   0.985 -0.9527 -0.1192  0.1329
11400TIP3    H155615   5.821   1.257   1.020 -0.2299  1.2774 -0.6296
11400TIP3    H255616   5.873   1.199   0.891  0.8221  1.3458 -0.2411
11401TIP3   OH255617   0.306   4.610  15.494 -0.2152  0.0516  0.4253
11401TIP3    H155618   0.394   4.645  15.504 -0.1374  0.0182 -0.1500
11401TIP3    H255619   0.279   4.588  15.584  0.4977 -0.2759  0.5667
11402TIP3   OH255620   4.204   4.399   0.261 -0.0862 -0.3302  0.1487
11402TIP3    H155621   4.149   4.382   0.183 -1.0643  1.8721  0.2936
11402TIP3    H255622   4.248   4.315   0.277 -0.4633 -1.0871 -2.2883
11403TIP3   OH255623   1.075   1.412   1.519 -0.6629 -0.2249  0.0112
11403TIP3    H155624   1.125   1.493   1.515 -1.3586  0.1651 -1.4285
11403TIP3    H255625   1.141   1.343   1.530 -0.0065  0.4471  0.3839
11404TIP3   OH255626   5.573   1.138   2.295  0.1041 -0.1016  0.6464
11404TIP3    H155627   5.551   1.159   2.204  2.3725  1.1199  0.3089
11404TIP3    H255628   5.624   1.213   2.325  0.6018 -1.1219  2.4808
11405TIP3   OH255629   0.655   3.757  12.996  0.1531 -0.4051 -0.3890
11405TIP3    H155630   0.650   3.680  13.052 -0.1588 -1.1512 -1.4236
11405TIP3    H255631   0.680   3.828  13.056  0.8181 -1.3619  0.5027
11406TIP3   OH255632   2.062   2.490   2.037  0.4366  0.0318  0.0898
11406TIP3    H155633   2.040   2.463   2.126  2.2115 -0.4170  0.4274
11406TIP3    H255634   2.006   2.565   2.021 -0.9876 -0.7764  1.0164
11407TIP3   OH255635   4.492   2.331   3.705  0.3549 -0.0909  0.6799
11407TIP3    H155636   4.521   2.239   3.704 -0.3789 -0.3670 -1.6365
11407TIP3    H255637   4.513   2.363   3.618 -0.8983  1.4562  0.9094
11408TIP3   OH255638   5.141   1.967   0.790 -0.1932  0.1009 -0.1757
11408TIP3    H155639   5.210   1.936   0.849  0.8045  0.8122 -0.9270
11408TIP3    H255640   5.067   1.908   0.805  0.4144 -0.3835  0.9979
11409TIP3   OH255641   0.475   2.927  12.053  0.0067 -0.3963  0.2583
11409TIP3    H155642   0.426   2.918  11.971 -1.7015 -2.3222  1.3966
11409TIP3    H255643   0.446   3.010  12.090  1.6434  1.0651 -1.5378
11410TIP3   OH255644   5.987   5.385   0.800  0.3031 -0.4085 -0.2702
11410TIP3    H155645   5.987   5.336   0.718  0.4949  0.0731 -0.5651
11410TIP3    H255646   5.950   5.471   0.776  1.0448 -0.0074 -0.0240
11411TIP3   OH255647   1.870   5.789   2.722  0.0918  0.0593  0.2311
11411TIP3    H155648   1.785   5.784   2.677  0.7273 -0.1991 -0.9735
11411TIP3    H255649   1.935   5.777   2.652  1.1077 -0.6106  1.2636
11412TIP3   OH255650   4.865   5.399   4.482  0.5754  0.1430 -0.3996
11412TIP3    H155651   4.920   5.355   4.547  0.5092 -1.3081 -1.3017
11412TIP3    H255652   4.777   5.398   4.520  0.2235 -2.1122 -1.1179
11413TIP3   OH255653   6.125   5.211  10.382 -0.9118  0.5876 -0.3754
11413TIP3    H155654   6.152   5.197  10.473 -1.6673  1.4886  0.0019
11413TIP3    H255655   6.179   5.284  10.353 -1.0912  0.6850 -0.4625
11414TIP3   OH255656   2.522   4.852   0.112 -0.3355 -0.4284 -0.6498
11414TIP3    H155657   2.443   4.893   0.078  0.6176  0.2352 -2.1391
11414TIP3    H255658   2.544   4.784   0.049  1.9348  1.3707 -1.9632
11415TIP3   OH255659   0.592   5.285  16.838  0.2144 -0.4345 -0.0841
11415TIP3    H155660   0.548   5.200  16.830 -0.4114 -0.1800  0.5257
11415TIP3    H255661   0.683   5.267  16.817 -0.5991 -0.4355 -4.5605
11416TIP3   OH255662   3.774   0.674   6.056 -0.2119  0.4250  0.3959
11416TIP3    H155663   3.744   0.764   6.045 -0.2935  0.0948 -3.3282
11416TIP3    H255664   3.856   0.682   6.103  0.0831  2.5437 -0.3642
11417TIP3   OH255665   5.912   2.625  13.973  0.5774 -0.2268 -0.8020
11417TIP3    H155666   5.928   2.715  13.944  0.8744 -0.0341 -0.0601
11417TIP3    H255667   5.946   2.570  13.902  1.7549  0.2296 -0.6074
11418TIP3   OH255668   1.021   6.102  13.386  0.2879  0.0626  0.2209
11418TIP3    H155669   1.108   6.123  13.354  0.7144 -0.8235  0.7711
11418TIP3    H255670   0.973   6.072  13.309  0.9773 -1.0156  0.1887
11419TIP3   OH255671   3.457   5.648   5.442 -0.0039 -0.1816 -0.1119
11419TIP3    H155672   3.511   5.576   5.410  0.7008  1.0164 -1.7929
11419TIP3    H255673   3.452   5.709   5.367 -4.0674 -0.4219 -0.2127
11420TIP3   OH255674   1.668   2.448  13.061 -0.4061  0.0097 -0.5668
11420TIP3    H155675   1.631   2.366  13.029  0.9491 -0.2128 -1.6014
11420TIP3    H255676   1.661   2.441  13.157 -2.7606 -0.1182 -0.6843
11421TIP3   OH255677   1.165   4.539   1.438 -0.0872 -0.7419 -0.7911
11421TIP3    H155678   1.093   4.476   1.430  0.3829 -1.3878 -0.0709
11421TIP3    H255679   1.132   4.604   1.500  0.0867 -1.2381 -0.1759
11422TIP3   OH255680   0.495   6.269   2.149  0.2823  0.2465 -0.1054
11422TIP3    H155681   0.582   6.306   2.164  0.3890 -0.3685  0.9026
11422TIP3    H255682   0.436   6.323   2.201  0.3617 -0.6334  0.9168
11423TIP3   OH255683   3.317   4.144  12.384  0.1487  0.0518 -0.4693
11423TIP3    H155684   3.382   4.193  12.435  1.2766 -1.5836 -0.2777
11423TIP3    H255685   3.267   4.212  12.338  2.2326  1.3606 -0.9406
11424TIP3   OH255686   0.072   1.970   5.271 -0.0684 -0.1371 -0.6291
11424TIP3    H155687   0.069   2.020   5.353 -0.4064 -1.1014 -0.0344
11424TIP3    H255688   0.032   2.028   5.206  1.4455  1.2087 -0.4520
11425TIP3   OH255689   0.883   6.787  16.740  0.3423 -0.2290  0.5116
11425TIP3    H155690   0.963   6.827  16.708  0.9075 -0.4704  1.5905
11425TIP3    H255691   0.898   6.693  16.733  0.2741 -0.2802  0.9791
11426TIP3   OH255692   5.301   5.762   1.105  0.1905  0.5147 -0.0854
11426TIP3    H155693   5.381   5.752   1.052 -0.9847 -1.2114 -1.6552
11426TIP3    H255694   5.278   5.855   1.096  0.5605  0.4731 -1.8620
11427TIP3   OH255695   4.563   3.673   0.103 -0.2302  0.7306 -0.0858
11427TIP3    H155696   4.606   3.720   0.032  1.6120  0.5086  0.7902
11427TIP3    H255697   4.592   3.718   0.182 -0.6117 -0.2129  0.6207
11428TIP3   OH255698   1.940   3.144   2.795  0.1553  0.3768 -0.4501
11428TIP3    H155699   1.967   3.133   2.886 -1.0411  1.2546  0.0308
11428TIP3    H255700   1.987   3.222   2.765  0.5482  0.0886 -0.6023
11429TIP3   OH255701   3.235   0.083  12.647 -0.3969 -0.1164  0.0236
11429TIP3    H155702   3.164   0.020  12.633 -0.9801  0.6420 -0.5608
11429TIP3    H255703   3.190   0.167  12.652  0.3855  0.2700  0.6094
11430TIP3   OH255704   1.993   5.873  13.992  0.1054  0.4482 -0.1707
11430TIP3    H155705   1.986   5.793  14.043  3.4400 -0.7532 -1.3018
11430TIP3    H255706   1.912   5.877  13.941 -0.2590 -2.1162  0.0972
11431TIP3   OH255707   4.023   1.509  15.198  0.3572  0.3045 -0.0266
11431TIP3    H155708   3.946   1.484  15.146 -0.4549  1.2733  0.6727
11431TIP3    H255709   4.029   1.604  15.188  2.0501  0.1447 -0.8291
11432TIP3   OH255710   1.057   4.394   5.408 -0.1108  0.4693 -0.9298
11432TIP3    H155711   1.142   4.436   5.419 -0.1271  0.7286 -1.7644
11432TIP3    H255712   1.058   4.322   5.472  0.5375  0.7666 -0.5965
11433TIP3   OH255713   0.625   4.410   4.671  0.4559 -0.3955  0.0079
11433TIP3    H155714   0.635   4.422   4.576  0.3915 -1.3214 -0.1220
11433TIP3    H255715   0.647   4.319   4.686  0.8827 -0.1476  0.9566
11434TIP3   OH255716   6.046   1.106   5.204 -0.3898  0.0904  0.2752
11434TIP3    H155717   6.114   1.040   5.220 -1.0145 -0.6373 -0.0374
11434TIP3    H255718   5.965   1.066   5.235 -0.5557  1.3085  1.4685
11435TIP3   OH255719   5.433   1.745  13.344  0.0382  0.2265  0.2697
11435TIP3    H155720   5.478   1.679  13.292  0.4051  2.0187 -1.8649
11435TIP3    H255721   5.346   1.752  13.304 -0.4390  0.1737  1.2735
11436TIP3   OH255722   1.623   6.459   4.544 -0.2940  0.5329  0.3179
11436TIP3    H155723   1.708   6.416   4.557 -0.1135  0.8243  0.1162
11436TIP3    H255724   1.603   6.498   4.629 -1.0313 -0.9430  0.8591
11437TIP3   OH255725   3.067   1.321  16.643  0.5827  0.0259 -0.0420
11437TIP3    H155726   2.999   1.389  16.637  4.2819  4.2780  0.6066
11437TIP3    H255727   3.095   1.308  16.552  0.7611  0.5138 -0.0646
11438TIP3   OH255728   1.489   0.888   4.848 -1.0822 -0.5231  0.0101
11438TIP3    H155729   1.534   0.870   4.930 -0.8592  2.3450  0.6452
11438TIP3    H255730   1.400   0.858   4.862 -0.0015 -4.5833 -0.5900
11439TIP3   OH255731   5.549   1.803   1.041  0.0917  0.1561 -0.3996
11439TIP3    H155732   5.610   1.828   0.972 -0.0482  2.3400  0.1824
11439TIP3    H255733   5.574   1.714   1.064  0.6294 -0.3402 -2.7003
11440TIP3   OH255734   1.408   3.668   4.055  0.2108 -0.1842 -0.0239
11440TIP3    H155735   1.338   3.639   3.997  0.7218 -3.4051  0.7681
11440TIP3    H255736   1.488   3.657   4.004  0.3980  0.4134  0.1331
11441TIP3   OH255737   3.836   2.511  14.693  0.4604  0.7795 -0.2180
11441TIP3    H155738   3.830   2.428  14.741  1.1995  0.0718 -1.2993
11441TIP3    H255739   3.779   2.499  14.617  0.3742  1.3705 -0.2524
11442TIP3   OH255740   3.237   4.063   0.153 -0.0984  0.1017 -0.2042
11442TIP3    H155741   3.146   4.083   0.176  0.4711  0.6695  1.7856
11442TIP3    H255742   3.270   4.144   0.115 -0.4344 -0.1401 -1.0345
11443TIP3   OH255743   3.671   6.702   2.344  0.4685  0.1834 -0.1230
11443TIP3    H155744   3.635   6.708   2.433  1.8740 -1.1166  0.5890
11443TIP3    H255745   3.650   6.786   2.304 -1.6711  0.1806  0.8499
11444TIP3   OH255746   5.237   5.727   4.441 -0.2813  0.2415  0.2163
11444TIP3    H155747   5.286   5.717   4.360  0.1101 -1.4642  0.6113
11444TIP3    H255748   5.153   5.683   4.423 -1.3348  2.2694 -0.1313
11445TIP3   OH255749   3.468   6.018  15.763  0.2909  0.5945 -0.3388
11445TIP3    H155750   3.526   6.049  15.832 -1.0489  0.4082  0.9163
11445TIP3    H255751   3.446   6.097  15.713 -0.8564  1.2394  1.1146
11446TIP3   OH255752   6.721   6.458  13.784 -0.3086 -0.0807  0.4379
11446TIP3    H155753   6.727   6.553  13.795  0.2846 -0.1207  0.4882
11446TIP3    H255754   6.629   6.437  13.803 -0.1847  0.3391  1.5808
11447TIP3   OH255755   3.182   1.574   3.392  0.3130  0.0096 -0.1918
11447TIP3    H155756   3.179   1.653   3.337 -1.3753 -0.2069 -0.4536
11447TIP3    H255757   3.124   1.594   3.465 -1.7838 -1.6791 -1.2854
11448TIP3   OH255758   1.667   4.538   1.851  0.2534 -0.3685 -0.2522
11448TIP3    H155759   1.707   4.458   1.885  0.5764  0.2523  0.8911
11448TIP3    H255760   1.579   4.512   1.826 -0.0388 -0.8662  1.1659
11449TIP3   OH255761   5.610   4.129   4.024  0.4684  0.1591 -0.8937
11449TIP3    H155762   5.598   4.045   3.978  0.1091  0.3871 -1.2295
11449TIP3    H255763   5.553   4.122   4.101 -0.5442  0.5725 -1.5822
11450TIP3   OH255764   4.065   3.619   2.700  0.0381 -0.5084 -0.3435
11450TIP3    H155765   4.039   3.542   2.650  1.1931 -0.0434 -1.7324
11450TIP3    H255766   4.035   3.601   2.789 -0.2503 -2.2801 -0.7573
11451TIP3   OH255767   1.014   4.952   1.397 -0.0773  0.1804  0.0336
11451TIP3    H155768   0.968   5.007   1.334  1.1972  0.1992 -0.9166
11451TIP3    H255769   0.959   4.874   1.406 -1.0813  0.8779  0.1639
11452TIP3   OH255770   2.878   2.133  13.094  0.3256  0.2966  0.2523
11452TIP3    H155771   2.812   2.105  13.158  2.0452 -0.3269  1.8638
11452TIP3    H255772   2.878   2.063  13.028  0.8641 -0.8327  1.4089
11453TIP3   OH255773   5.386   6.494   2.142  0.9606  0.4203 -0.5326
11453TIP3    H155774   5.342   6.410   2.156 -0.1419  1.0026 -0.4241
11453TIP3    H255775   5.401   6.529   2.230  0.6398  0.7252 -0.5968
11454TIP3   OH255776   6.663   5.037  17.162 -0.4458  0.6163  0.3307
11454TIP3    H155777   6.578   5.037  17.118 -1.2814 -0.5708  1.8578
11454TIP3    H255778   6.726   5.051  17.092 -1.7876 -0.1706 -1.0982
11455TIP3   OH255779   3.329   3.670  11.332  0.0284  0.1522 -0.2491
11455TIP3    H155780   3.278   3.710  11.403  0.0560  1.6639 -1.0397
11455TIP3    H255781   3.273   3.599  11.300 -1.2151  1.2132 -0.5116
11456TIP3   OH255782   3.474   4.808   4.040  0.5461  0.4240  0.2262
11456TIP3    H155783   3.461   4.859   3.960 -1.1478  0.7545  0.6524
11456TIP3    H255784   3.390   4.763   4.053 -0.4039  2.7411  3.3599
11457TIP3   OH255785   4.368   0.623   3.118 -0.0338 -0.0432  0.6394
11457TIP3    H155786   4.292   0.599   3.066 -0.2589  1.2143  0.3609
11457TIP3    H255787   4.332   0.640   3.206  0.2605 -1.5696  1.0960
11458TIP3   OH255788   5.873   5.689  12.563  0.0372 -0.2788 -0.5764
11458TIP3    H155789   5.965   5.709  12.543 -0.3325  2.3513 -0.0472
11458TIP3    H255790   5.860   5.723  12.651 -1.0864 -2.0424 -0.0197
11459TIP3   OH255791   4.316   6.465  13.121  0.6243  0.0866  0.1348
11459TIP3    H155792   4.327   6.554  13.088  0.4199  0.3238  0.6825
11459TIP3    H255793   4.258   6.423  13.058  0.2542  0.5231  0.1785
11460TIP3   OH255794   2.560   0.386  15.955  0.2955 -0.2049 -0.3460
11460TIP3    H155795   2.508   0.462  15.982  0.0994  0.0871 -1.4818
11460TIP3    H255796   2.555   0.326  16.029 -2.7125 -0.7381 -0.8568
11461TIP3   OH255797   5.409   5.411  10.783  0.6720  0.7865  0.3145
11461TIP3    H155798   5.313   5.412  10.789  0.6904  1.1077  0.6183
11461TIP3    H255799   5.434   5.503  10.782  1.1220  0.7991  3.2398
11462TIP3   OH255800   4.549   0.448   3.714 -0.5453  0.1903 -0.2757
11462TIP3    H155801   4.539   0.401   3.631 -0.5401 -0.6097  0.1635
11462TIP3    H255802   4.464   0.438   3.757 -0.0645 -0.7674  0.4952
11463TIP3   OH255803   5.844   2.771   4.112  0.3287 -0.6855  0.1433
11463TIP3    H155804   5.832   2.833   4.041 -0.2816 -1.2177 -0.2325
11463TIP3    H255805   5.858   2.825   4.190 -0.8538 -0.0606 -0.0576
11464TIP3   OH255806   0.194   2.447  13.943 -0.2985 -0.1427 -0.4042
11464TIP3    H155807   0.276   2.476  13.903 -0.7546  1.8481  0.0424
11464TIP3    H255808   0.131   2.451  13.871 -0.4359  0.3284 -0.2593
11465TIP3   OH255809   6.601   0.710   4.170 -0.0930  0.7039  0.0354
11465TIP3    H155810   6.646   0.761   4.103 -0.0405  0.1533 -0.3539
11465TIP3    H255811   6.599   0.768   4.246  1.0057  0.8563 -0.0282
11466TIP3   OH255812   4.568   0.705   3.847  0.3745 -0.1240 -0.1673
11466TIP3    H155813   4.558   0.770   3.777  0.6491 -0.7782 -0.8226
11466TIP3    H255814   4.621   0.636   3.808 -1.2472 -1.5143 -0.0211
11467TIP3   OH255815   0.358   1.909  16.158 -0.0808 -0.0637  0.3307
11467TIP3    H155816   0.341   1.831  16.211  0.9201 -0.9655 -0.6148
11467TIP3    H255817   0.445   1.938  16.184 -0.2302  0.4227  0.2999
11468TIP3   OH255818   1.733   2.035   0.654 -0.2150  0.0569  0.6191
11468TIP3    H155819   1.684   2.015   0.733  2.9289 -1.2174  2.3953
11468TIP3    H255820   1.713   2.127   0.636 -0.7977  0.4702  3.0911
11469TIP3   OH255821   3.482   6.147  16.549  0.1315 -0.0136 -0.1164
11469TIP3    H155822   3.430   6.163  16.628  0.6337  0.8099  0.0607
11469TIP3    H255823   3.420   6.157  16.477 -0.7206 -2.3717  0.1966
11470TIP3   OH255824   6.109   2.299  15.188 -0.3201  0.3772 -0.2740
11470TIP3    H155825   6.201   2.273  15.202 -0.1197 -0.9099 -3.1328
11470TIP3    H255826   6.073   2.310  15.276  2.3701  0.2142  0.9507
11471TIP3   OH255827   0.668   3.155   3.389  0.2061 -0.3206 -0.2592
11471TIP3    H155828   0.605   3.091   3.356  0.4747 -0.9399  0.3993
11471TIP3    H255829   0.753   3.109   3.385  0.5665  0.3642 -0.7634
11472TIP3   OH255830   6.266   2.495   2.035  0.3683 -0.4930 -0.1259
11472TIP3    H155831   6.243   2.567   1.976 -1.1098 -1.8525 -1.2931
11472TIP3    H255832   6.362   2.493   2.033  0.3874 -0.6681 -2.8019
11473TIP3   OH255833   2.169   4.510   1.545 -0.4599 -0.4385  0.1407
11473TIP3    H155834   2.187   4.498   1.638 -0.4210  0.0021  0.1918
11473TIP3    H255835   2.233   4.576   1.517 -2.3029  1.5460  0.4249
11474TIP3   OH255836   3.322   3.055   3.739 -0.0407  0.7442 -0.4121
11474TIP3    H155837   3.406   3.015   3.716  0.1208  0.6930  0.2466
11474TIP3    H255838   3.338   3.098   3.823  0.0488  3.0380 -1.5408
11475TIP3   OH255839   1.306   6.377  12.981 -0.8186  0.1546 -0.1618
11475TIP3    H155840   1.266   6.341  12.902 -1.9448 -1.2477  0.9733
11475TIP3    H255841   1.234   6.380  13.044  0.6109 -1.5712  1.6822
11476TIP3   OH255842   4.295   4.536  16.188 -0.1910 -0.1651 -0.0407
11476TIP3    H155843   4.366   4.480  16.156 -0.7761  0.0716 -1.8642
11476TIP3    H255844   4.216   4.483  16.178 -0.4929  0.2319  0.2033
11477TIP3   OH255845   0.649   2.389  15.414  0.2130 -0.1385 -0.0799
11477TIP3    H155846   0.667   2.300  15.443  1.3993  0.6964  1.9263
11477TIP3    H255847   0.662   2.443  15.492  0.6740  1.9372 -1.5110
11478TIP3   OH255848   2.166   4.769  15.594  0.0439 -0.0956 -0.1818
11478TIP3    H155849   2.257   4.754  15.622  1.4564  0.8006 -3.8143
11478TIP3    H255850   2.145   4.693  15.540 -1.1788 -0.0108  0.1498
11479TIP3   OH255851   0.618   3.285  15.959 -0.0285  0.0315 -0.3761
11479TIP3    H155852   0.621   3.257  16.051  0.6244 -1.0989 -0.7289
11479TIP3    H255853   0.535   3.250  15.927  1.0759 -2.2065 -0.9943
11480TIP3   OH255854   0.965   3.373  10.569  0.0574 -0.4255  0.5071
11480TIP3    H155855   0.928   3.285  10.562  0.5886 -0.6292  0.1528
11480TIP3    H255856   0.898   3.424  10.614 -0.0347 -1.1540  1.2272
11481TIP3   OH255857   4.746   4.188   2.170 -0.1408  0.1623 -0.4880
11481TIP3    H155858   4.720   4.172   2.261  0.1740  2.2128  0.0104
11481TIP3    H255859   4.706   4.116   2.121 -1.4704 -0.2375  1.0794
11482TIP3   OH255860   5.645   1.113   3.860  0.1472 -0.3263  0.1586
11482TIP3    H155861   5.734   1.140   3.841 -0.1820  0.8710  0.2274
11482TIP3    H255862   5.649   1.077   3.949  0.5235 -0.1061  0.2321
11483TIP3   OH255863   4.951   1.937  12.248 -0.8357 -0.6148  0.0673
11483TIP3    H155864   4.878   1.980  12.295 -1.2304  0.1256 -1.1638
11483TIP3    H255865   4.946   1.846  12.274 -1.9503 -0.4908  0.3484
11484TIP3   OH255866   5.429   5.310  11.486 -0.0261 -0.7601  0.9121
11484TIP3    H155867   5.355   5.290  11.428  0.2283  0.3999  0.1646
11484TIP3    H255868   5.458   5.224  11.517 -1.6316 -1.2411  1.1640
11485TIP3   OH255869   3.554   3.823  16.405 -0.0160 -0.2161  0.0861
11485TIP3    H155870   3.526   3.849  16.317 -1.2861 -2.5801 -0.2937
11485TIP3    H255871   3.529   3.731  16.412  0.3153 -0.1886  2.8290
11486TIP3   OH255872   6.185   4.138  15.354  0.5185 -0.9444 -0.3269
11486TIP3    H155873   6.168   4.048  15.381  2.2935 -0.1429  4.4470
11486TIP3    H255874   6.279   4.141  15.339  0.8524  0.4617  1.6993
11487TIP3   OH255875   3.684   0.019  12.096 -0.1594  0.0536  0.4194
11487TIP3    H155876   3.598  -0.004  12.131 -0.0492 -0.5880  0.2814
11487TIP3    H255877   3.688   0.114  12.102 -0.7570  0.0626  0.7117
11488TIP3   OH255878   1.092   4.300   0.347  0.2080  0.1682  0.3851
11488TIP3    H155879   1.080   4.312   0.441  0.1000 -3.1105  0.9033
11488TIP3    H255880   1.169   4.353   0.326 -0.5279  2.0335  1.9740
11489TIP3   OH255881   3.997   6.641  15.921 -0.5115  0.2536  0.3030
11489TIP3    H155882   3.918   6.677  15.882 -1.5711 -0.1856  1.9495
11489TIP3    H255883   3.975   6.629  16.013  0.7445 -1.9138  0.3772
11490TIP3   OH255884   5.878   3.918  15.559 -0.2723  0.2525 -0.3482
11490TIP3    H155885   5.876   3.971  15.479 -0.8783  0.5319 -0.1535
11490TIP3    H255886   5.922   3.973  15.623  1.2284 -0.3979 -0.7711
11491TIP3   OH255887   0.314   3.392   2.901  0.1431 -0.1924 -0.2860
11491TIP3    H155888   0.286   3.347   2.981 -1.4962 -0.4656 -0.9696
11491TIP3    H255889   0.322   3.484   2.926 -0.1849 -0.3028  0.2403
11492TIP3   OH255890   2.915   2.477  15.244  0.7352  0.1706 -0.2528
11492TIP3    H155891   2.832   2.512  15.278  0.6694  0.2868 -0.5296
11492TIP3    H255892   2.905   2.382  15.251  1.0957  0.1992  0.9323
11493TIP3   OH255893   1.027   5.838   0.748 -0.5267  0.2565  0.6716
11493TIP3    H155894   1.014   5.784   0.826 -0.8746  0.0586  0.4789
11493TIP3    H255895   1.008   5.780   0.674 -1.8404  0.8801  0.4903
11494TIP3   OH255896   2.537   6.245   1.705  0.1281 -0.4220  0.3783
11494TIP3    H155897   2.527   6.150   1.696  1.2481 -0.3951 -2.1768
11494TIP3    H255898   2.631   6.260   1.698 -0.0640  0.8985  0.3793
11495TIP3   OH255899   2.859   0.716  17.126 -0.3179 -0.0618 -0.3583
11495TIP3    H155900   2.895   0.658  17.059  1.0341  1.8846 -1.4097
11495TIP3    H255901   2.917   0.704  17.201  1.3056  1.4457 -1.3077
11496TIP3   OH255902   1.232   0.516  16.384  0.4295 -0.5081 -0.4369
11496TIP3    H155903   1.294   0.475  16.323 -0.8587 -2.2309 -0.6585
11496TIP3    H255904   1.146   0.489  16.353 -0.2946 -2.6756  2.8638
11497TIP3   OH255905   2.685   1.309   2.291  0.0505  0.0516 -0.3214
11497TIP3    H155906   2.663   1.217   2.305 -1.6583  0.3236 -1.0300
11497TIP3    H255907   2.685   1.347   2.379  0.6790 -0.5838 -0.0324
11498TIP3   OH255908   4.047   3.540   0.496  0.0971  0.1120 -0.8491
11498TIP3    H155909   4.006   3.625   0.478 -1.2171 -0.2684  0.2132
11498TIP3    H255910   4.141   3.560   0.503 -0.2233  1.5303 -0.3241
11499TIP3   OH255911   3.421   2.344   3.387  0.3043  0.3325  0.0166
11499TIP3    H155912   3.506   2.378   3.360  1.3788 -2.4004 -0.3589
11499TIP3    H255913   3.403   2.387   3.471  1.9132  1.1418 -0.0187
11500TIP3   OH255914   2.830   1.146  14.215 -0.3891 -0.2273  0.1693
11500TIP3    H155915   2.915   1.179  14.246 -0.0166 -0.2885 -0.7641
11500TIP3    H255916   2.846   1.053  14.195 -0.8063 -0.3635  0.4427
11501TIP3   OH255917   2.227   2.969   4.935 -0.1074 -0.2762  0.1695
11501TIP3    H155918   2.196   2.895   4.987  0.1205 -1.4148 -1.2245
11501TIP3    H255919   2.202   3.047   4.985  0.0048 -1.2985  1.8745
11502TIP3   OH255920   2.902   6.448  16.018  0.1559  0.1168  0.1030
11502TIP3    H155921   2.887   6.354  16.029  0.3492  0.1994  1.1320
11502TIP3    H255922   2.868   6.467  15.930  1.8138 -1.2601 -0.9221
11503TIP3   OH255923   1.533   5.995   5.587  0.3275  0.2571 -0.3792
11503TIP3    H155924   1.515   5.925   5.524 -0.2479  0.1067 -0.0543
11503TIP3    H255925   1.601   5.958   5.644 -0.3992 -0.2734  0.1576
11504TIP3   OH255926   1.649   3.780  13.249  0.1083 -0.6073  0.6876
11504TIP3    H155927   1.728   3.726  13.238  1.5246  0.9806  2.3980
11504TIP3    H255928   1.622   3.765  13.339 -0.6666  0.0355  0.5686
11505TIP3   OH255929   6.521   2.883   0.915 -0.3499 -0.3190 -0.3333
11505TIP3    H155930   6.482   2.970   0.904  0.6886  0.3118  0.6867
11505TIP3    H255931   6.449   2.822   0.896 -0.6507  0.6830 -2.7887
11506TIP3   OH255932   5.989   3.140  13.109 -0.2666 -0.2843 -0.0349
11506TIP3    H155933   5.960   3.224  13.073  1.4161  0.1434 -0.5180
11506TIP3    H255934   5.915   3.081  13.095 -0.3901  0.3475 -2.5523
11507TIP3   OH255935   3.223   3.777   1.055  0.4310  0.2883 -0.6584
11507TIP3    H155936   3.308   3.773   1.013  0.4684  1.0620 -0.6773
11507TIP3    H255937   3.222   3.862   1.099 -0.6801  0.7063 -1.4267
11508TIP3   OH255938   5.332   0.242  11.464  0.0026 -0.6017 -0.5715
11508TIP3    H155939   5.368   0.254  11.376  0.0580  0.7970 -0.3817
11508TIP3    H255940   5.251   0.293  11.464  0.8444  0.7912  0.6785
11509TIP3   OH255941   6.239   0.028   1.842 -0.1514  0.4529 -0.4496
11509TIP3    H155942   6.158   0.061   1.804 -0.7458  0.0553  0.4299
11509TIP3    H255943   6.210  -0.028   1.914  0.9359  1.8773  1.1749
11510TIP3   OH255944   3.310   5.915   6.500  0.4724  0.2601 -0.0959
11510TIP3    H155945   3.326   5.924   6.406  0.0257 -0.4785 -0.2509
11510TIP3    H255946   3.392   5.939   6.542  1.1363 -0.8258 -0.7422
11511TIP3   OH255947   2.184   0.028   5.076  0.1843 -0.2283  0.0880
11511TIP3    H155948   2.265   0.003   5.033 -0.4034 -0.1023 -1.1427
11511TIP3    H255949   2.124  -0.044   5.058 -0.2326  0.0712  0.2495
11512TIP3   OH255950   0.547   1.070   3.055  0.2088  0.7243  0.0439
11512TIP3    H155951   0.544   1.112   2.969 -1.2871 -0.4904 -0.5531
11512TIP3    H255952   0.633   1.092   3.090  0.3486  2.3261 -1.2015
11513TIP3   OH255953   4.842   1.941  14.985 -0.2853  0.0182  0.0995
11513TIP3    H155954   4.845   1.987  15.069  1.1123 -2.6928  1.6759
11513TIP3    H255955   4.923   1.889  14.984 -0.5543 -0.4721 -2.6956
11514TIP3   OH255956   1.457   0.238  13.428 -0.6709 -0.3374  0.0078
11514TIP3    H155957   1.426   0.208  13.513 -1.3415 -0.5168 -0.2914
11514TIP3    H255958   1.382   0.226  13.370  0.2332 -1.6032 -0.9462
11515TIP3   OH255959   2.077   6.421  11.510 -0.1730 -0.2389 -0.2965
11515TIP3    H155960   1.990   6.418  11.550  0.3462  0.0683  0.9017
11515TIP3    H255961   2.137   6.426  11.585  0.7945  1.1743 -1.1388
11516TIP3   OH255962   3.595   4.864   5.075  0.1919  0.0107  0.0354
11516TIP3    H155963   3.502   4.847   5.088  0.3444  0.9382  2.9868
11516TIP3    H255964   3.614   4.939   5.131  2.5340  0.5169 -1.2938
11517TIP3   OH255965   1.197   0.944  16.902  0.1556  0.4471 -0.8762
11517TIP3    H155966   1.105   0.929  16.922  0.4166 -0.0831 -0.0349
11517TIP3    H255967   1.197   0.974  16.811 -0.9302  1.4427 -0.5693
11518TIP3   OH255968   0.660   2.376   5.264 -0.2687 -0.2263 -0.4301
11518TIP3    H155969   0.612   2.459   5.272 -0.3275 -0.3718  1.0017
11518TIP3    H255970   0.749   2.402   5.242  0.1627  0.3711  1.8165
11519TIP3   OH255971   1.807   3.682  16.320 -0.2560 -0.6579 -0.4092
11519TIP3    H155972   1.722   3.690  16.277 -0.1360  0.9481 -0.4174
11519TIP3    H255973   1.871   3.691  16.249 -0.0769 -0.7978 -0.2663
11520TIP3   OH255974   2.045   5.649   2.246  0.3679  0.5177  1.2372
11520TIP3    H155975   2.125   5.605   2.219 -0.1550 -0.9207  1.9204
11520TIP3    H255976   1.977   5.581   2.240 -0.8234  1.7259  0.5720
11521TIP3   OH255977   0.774   0.892  12.373 -0.6057 -0.0463 -0.3823
11521TIP3    H155978   0.810   0.974  12.340  0.5288 -0.1388  0.5969
11521TIP3    H255979   0.769   0.835  12.296 -1.0165  0.7914 -0.9850
11522TIP3   OH255980   6.772   3.846   1.150 -0.2012  0.5277  0.1562
11522TIP3    H155981   6.781   3.932   1.191  1.3883  0.3029  0.3423
11522TIP3    H255982   6.685   3.816   1.175 -0.8537  2.1582 -0.0670
11523TIP3   OH255983   3.922   1.076   1.413 -0.2990  0.2705 -0.2367
11523TIP3    H155984   3.995   1.137   1.421 -0.8546  0.9341 -0.1849
11523TIP3    H255985   3.860   1.120   1.355 -0.9024 -0.0493  0.1597
11524TIP3   OH255986   6.527   0.814  12.574  0.1038  0.4930 -0.5171
11524TIP3    H155987   6.452   0.853  12.530 -1.0295 -0.3432  0.5988
11524TIP3    H255988   6.530   0.857  12.659  0.7879  0.3851 -0.4807
11525TIP3   OH255989   6.590   3.358   4.829 -0.5867  0.0235  0.2074
11525TIP3    H155990   6.508   3.371   4.782  0.2736  0.4819 -1.2395
11525TIP3    H255991   6.650   3.324   4.762  0.9820  1.6860  0.6948
11526TIP3   OH255992   6.759   1.555   2.456  0.2715  0.2769  0.4152
11526TIP3    H155993   6.828   1.618   2.476  1.4071 -1.0347  0.7515
11526TIP3    H255994   6.695   1.606   2.406  1.2821  1.6181  0.4108
11527TIP3   OH255995   3.955   5.435   0.195 -0.0404  0.0210  0.0620
11527TIP3    H155996   3.871   5.435   0.148  0.0246 -2.4105 -0.1819
11527TIP3    H255997   4.021   5.423   0.126  0.4825  1.0560  0.3507
11528TIP3   OH255998   4.952   3.690  15.553  0.0716  0.1277 -0.1520
11528TIP3    H155999   4.930   3.597  15.552  2.7592 -0.6028 -0.1644
11528TIP3    H256000   4.936   3.717  15.643  0.4646 -0.7188  0.1920
11529TIP3   OH256001   6.304   1.022   4.473 -0.6953 -0.1741 -0.0016
11529TIP3    H156002   6.337   1.059   4.555 -1.3664 -0.7173  0.5351
11529TIP3    H256003   6.370   1.044   4.408  0.0843 -0.1347  0.7785
11530TIP3   OH256004   5.704   2.110   3.181  0.2895 -0.4986  0.1683
11530TIP3    H156005   5.710   2.015   3.188  1.6957 -0.6172 -1.7913
11530TIP3    H256006   5.658   2.125   3.098  0.5148  0.5341  0.2189
11531TIP3   OH256007   6.266   4.026   4.090  0.0616 -0.9987 -0.1339
11531TIP3    H156008   6.187   3.972   4.092 -0.7005  0.1047 -0.0196
11531TIP3    H256009   6.335   3.969   4.125 -0.7109 -1.9096 -0.0648
11532TIP3   OH256010   0.197   2.375   2.606 -0.2653  0.1116 -0.3698
11532TIP3    H156011   0.283   2.345   2.633  0.2764  2.5077  0.8184
11532TIP3    H256012   0.209   2.406   2.516 -0.0760 -0.2795 -0.4792
11533TIP3   OH256013   4.512   6.403   5.631 -0.2214 -0.5252  0.1078
11533TIP3    H156014   4.463   6.341   5.578  1.2994 -1.2878 -0.4662
11533TIP3    H256015   4.492   6.379   5.721 -0.5247 -1.1228 -0.1145
11534TIP3   OH256016   5.607   2.878  12.251  0.8329 -0.4213 -0.2933
11534TIP3    H156017   5.676   2.919  12.302  0.7916 -0.1202 -0.4750
11534TIP3    H256018   5.529   2.931  12.269  1.1101  0.5202 -1.7025
11535TIP3   OH256019   5.050   2.385   3.188  0.4865  0.1972 -0.1393
11535TIP3    H156020   5.119   2.326   3.158  1.1097 -0.0699  1.6994
11535TIP3    H256021   4.999   2.404   3.109 -0.2757 -3.4507 -0.6870
11536TIP3   OH256022   3.111   1.640   0.088 -0.2927 -0.1238  0.2179
11536TIP3    H156023   3.174   1.703   0.124 -0.4711 -0.6491  1.5276
11536TIP3    H256024   3.026   1.671   0.119 -0.4254 -0.7297  0.4864
11537TIP3   OH256025   2.465   3.836  15.192 -0.3109 -0.2441  0.3940
11537TIP3    H156026   2.533   3.786  15.237 -0.8845 -1.2935  0.1167
11537TIP3    H256027   2.495   3.927  15.197 -0.5713 -0.2372  3.3038
11538TIP3   OH256028   3.910   1.866   1.670  0.1440 -0.2186 -0.1188
11538TIP3    H156029   3.958   1.784   1.683  0.3413 -0.4091 -1.7678
11538TIP3    H256030   3.965   1.932   1.711  0.0123 -0.8880  1.1857
11539TIP3   OH256031   6.038   3.789   0.257  0.2302  0.2239 -0.1271
11539TIP3    H156032   6.112   3.791   0.197  0.4786  0.2773  0.1785
11539TIP3    H256033   6.003   3.878   0.255  1.3683  0.7341  1.1968
11540TIP3   OH256034   4.272   6.472   3.983  0.4904 -0.6416 -0.0015
11540TIP3    H156035   4.344   6.517   3.938  0.0285  1.0611  0.8766
11540TIP3    H256036   4.194   6.494   3.931  0.5431 -2.4924 -0.9591
11541TIP3   OH256037   4.077   1.908   4.162  0.3189 -0.6980  0.3803
11541TIP3    H156038   4.005   1.964   4.133  2.0773  1.1125 -0.7656
11541TIP3    H256039   4.073   1.832   4.105  0.7009  0.5090 -1.3468
11542TIP3   OH256040   3.577   5.611  16.013 -0.4746 -0.3575 -0.0790
11542TIP3    H156041   3.539   5.583  16.096 -2.4538 -0.9318 -1.1084
11542TIP3    H256042   3.667   5.634  16.034 -1.2607  0.6982  2.4436
11543TIP3   OH256043   5.195   0.461   2.096  0.0735 -0.3442  0.1082
11543TIP3    H156044   5.250   0.495   2.166  0.6790 -2.9745  1.0242
11543TIP3    H256045   5.220   0.369   2.088 -1.9245 -0.8190 -1.6838
11544TIP3   OH256046   4.389   0.896  14.140 -0.3648  0.4247  0.6812
11544TIP3    H156047   4.349   0.898  14.053  1.6079  0.0013 -0.3068
11544TIP3    H256048   4.401   0.988  14.164 -1.6396  0.5510  0.8876
11545TIP3   OH256049   2.643   2.497  12.969  0.5104 -0.6884  0.8519
11545TIP3    H156050   2.563   2.456  12.937 -0.0364 -0.5983  2.0484
11545TIP3    H256051   2.624   2.518  13.061  0.7471  2.2479  0.3089
11546TIP3   OH256052   1.545   0.950   0.778  0.3435 -0.2151 -0.4552
11546TIP3    H156053   1.543   0.959   0.682 -0.5869 -0.8504 -0.4985
11546TIP3    H256054   1.602   1.021   0.806 -1.5014  1.6923 -1.2805
11547TIP3   OH256055   0.559   0.949  11.297 -0.2235 -0.1497 -0.4716
11547TIP3    H156056   0.611   0.920  11.221  0.2842 -0.1369 -0.1340
11547TIP3    H256057   0.509   0.872  11.323  0.8328 -0.6481  0.1871
11548TIP3   OH256058   4.228   6.472  12.730  0.2890 -0.3045  0.1743
11548TIP3    H156059   4.201   6.529  12.658  1.1443  0.8094  0.7088
11548TIP3    H256060   4.160   6.405  12.734 -1.3155  1.2522  0.1740
11549TIP3   OH256061   6.700   2.698  12.476 -0.1488  0.2920  0.2400
11549TIP3    H156062   6.766   2.677  12.541  0.3816 -0.0839 -0.4132
11549TIP3    H256063   6.667   2.614  12.446 -0.5657  0.4678  0.1865
11550TIP3   OH256064   4.967   1.700  12.327  0.6746 -0.4006  0.2996
11550TIP3    H156065   4.950   1.630  12.265 -0.1423  0.1927 -0.1735
11550TIP3    H256066   4.958   1.659  12.413  0.9045 -1.0186  0.0359
11551TIP3   OH256067   0.254   0.200  12.473 -0.1473 -0.5400 -0.3351
11551TIP3    H156068   0.310   0.201  12.550 -0.0297 -2.2075 -0.3741
11551TIP3    H256069   0.221   0.290  12.466  1.2737  0.0784  0.5784
11552TIP3   OH256070   3.628   0.075  16.547  0.0301 -0.4124  0.1809
11552TIP3    H156071   3.570   0.001  16.525  0.3354 -0.6481  0.1654
11552TIP3    H256072   3.689   0.038  16.611 -0.7412  0.2121  1.3147
11553TIP3   OH256073   3.885   6.036  11.321 -1.1580  0.5194 -0.9167
11553TIP3    H156074   3.872   5.958  11.374  0.7409  0.7333 -0.0763
11553TIP3    H256075   3.817   6.097  11.352 -0.4164  0.4569  0.9469
11554TIP3   OH256076   6.135   2.120   4.359  0.3972 -0.6625  0.0081
11554TIP3    H156077   6.192   2.141   4.432 -0.9952  0.3728  0.8533
11554TIP3    H256078   6.051   2.161   4.381 -1.6513 -4.5339  0.2758
11555TIP3   OH256079   0.781   0.727   1.117  0.5668 -0.2639  0.1577
11555TIP3    H156080   0.778   0.686   1.030 -0.3298 -0.0581  0.0882
11555TIP3    H256081   0.791   0.820   1.099 -1.8921  0.0691  0.1821
11556TIP3   OH256082   3.367   4.602   3.328 -0.0585 -0.5637 -0.0448
11556TIP3    H156083   3.380   4.619   3.234  0.4247  0.8852  0.2665
11556TIP3    H256084   3.363   4.506   3.334  0.9004 -0.7200 -1.4146
11557TIP3   OH256085   0.803   0.415   5.166  0.2701 -0.4268  0.1517
11557TIP3    H156086   0.759   0.500   5.160 -0.9251 -0.9163  1.5146
11557TIP3    H256087   0.878   0.431   5.224  0.7706 -0.0469 -0.5789
11558TIP3   OH256088   5.654   2.222   5.715  0.4172  0.3362  0.1598
11558TIP3    H156089   5.662   2.317   5.710  0.1685  0.3243 -0.5475
11558TIP3    H256090   5.691   2.191   5.632 -3.8251  0.0836 -1.9139
11559TIP3   OH256091   2.572   6.603  13.202  0.3403 -0.0084  0.7803
11559TIP3    H156092   2.664   6.576  13.201  0.1306 -0.8077 -1.3609
11559TIP3    H256093   2.567   6.666  13.274  2.6321  0.3261  0.7397
11560TIP3   OH256094   1.499   6.031   2.653  0.0428 -0.5007 -0.3627
11560TIP3    H156095   1.535   6.055   2.568 -0.4247 -0.2370 -0.4874
11560TIP3    H256096   1.451   6.108   2.682 -1.3995 -1.2279 -0.7323
11561TIP3   OH256097   3.880   4.298   5.266 -0.0643 -0.3471  0.1908
11561TIP3    H156098   3.856   4.207   5.283 -0.5997 -0.2010  0.2237
11561TIP3    H256099   3.943   4.292   5.194  0.5284 -0.8004  0.7357
11562TIP3   OH256100   3.710   0.824  11.971 -0.2591 -0.2123 -0.1506
11562TIP3    H156101   3.779   0.757  11.976  2.0823  2.1029  1.7742
11562TIP3    H256102   3.733   0.876  11.894 -1.8085 -1.2244 -1.3689
11563TIP3   OH256103   3.610   2.631  12.878  0.3883 -0.2636 -0.2840
11563TIP3    H156104   3.594   2.549  12.832  1.0979  0.8473 -2.7100
11563TIP3    H256105   3.622   2.696  12.808 -2.8993  2.5428  1.3996
11564TIP3   OH256106   3.088   2.974   6.134  0.6096 -0.7228  0.2322
11564TIP3    H156107   3.023   2.942   6.071 -0.4514  1.7321 -0.0272
11564TIP3    H256108   3.149   3.027   6.081  0.5300  0.2022  1.0390
11565TIP3   OH256109   1.689   5.476   6.130  0.2050 -0.2974 -0.7267
11565TIP3    H156110   1.707   5.393   6.174  0.5983  0.7857  1.2554
11565TIP3    H256111   1.774   5.502   6.094  0.6963  0.4980  0.9428
11566TIP3   OH256112   6.539   0.933  16.613  0.1004 -0.3570  0.5311
11566TIP3    H156113   6.571   1.010  16.661 -0.3032  0.8095 -0.9676
11566TIP3    H256114   6.605   0.918  16.545 -0.3071 -0.7243  0.2133
11567TIP3   OH256115   4.198   5.758   5.615  0.4214 -0.1176  0.1289
11567TIP3    H156116   4.219   5.809   5.693  0.5159 -0.6839  0.4787
11567TIP3    H256117   4.278   5.707   5.598  0.9831  1.1555 -1.2612
11568TIP3   OH256118   0.972   1.269   1.145  0.1614  0.4944 -0.4850
11568TIP3    H156119   0.974   1.199   1.080 -0.4639 -0.1660  0.1825
11568TIP3    H256120   0.921   1.338   1.105 -0.5726 -0.0741 -0.5530
11569TIP3   OH256121   2.284   0.447   1.686 -0.2943 -0.0801 -0.4245
11569TIP3    H156122   2.286   0.534   1.724 -0.4155 -0.5290  0.6575
11569TIP3    H256123   2.323   0.457   1.599  2.4392  0.5289  0.7552
11570TIP3   OH256124   5.815   4.461   4.999 -0.6117 -0.4124 -0.1763
11570TIP3    H156125   5.842   4.514   5.074 -0.0955  0.1214 -0.7284
11570TIP3    H256126   5.896   4.440   4.953 -1.0396  0.7047 -1.5140
11571TIP3   OH256127   3.101   4.686   5.818  0.2500 -0.0282  0.1260
11571TIP3    H156128   3.026   4.681   5.878  1.1716  0.3625  1.3364
11571TIP3    H256129   3.126   4.595   5.805  0.0136 -0.1196  0.2871
11572TIP3   OH256130   3.160   5.378  13.329 -0.1226 -0.1593  0.0013
11572TIP3    H156131   3.105   5.449  13.361 -1.3376 -1.2039  0.3043
11572TIP3    H256132   3.133   5.365  13.238  1.1704  0.7602 -0.5385
11573TIP3   OH256133   2.163   1.332   4.526 -0.7307 -0.1351 -0.2484
11573TIP3    H156134   2.232   1.398   4.528  0.3953 -1.2999  0.5801
11573TIP3    H256135   2.143   1.315   4.619  1.2525 -3.1696 -0.2192
11574TIP3   OH256136   0.326   0.948   2.758  0.3777 -0.0590 -0.0907
11574TIP3    H156137   0.312   1.017   2.822  1.1642  0.0778 -0.0638
11574TIP3    H256138   0.413   0.913   2.778 -0.5365 -1.9992  0.7796
11575TIP3   OH256139   6.589   6.466  16.784  0.0064  0.2608  0.3398
11575TIP3    H156140   6.584   6.372  16.802 -0.9611 -0.1744 -1.8740
11575TIP3    H256141   6.671   6.476  16.734  0.1264  0.6061  0.6012
11576TIP3   OH256142   1.970   1.313   2.139  0.1325  0.3748  0.6078
11576TIP3    H156143   1.946   1.237   2.086  0.6107 -0.9550  2.1924
11576TIP3    H256144   2.066   1.314   2.136  0.1564  0.4008  1.2587
11577TIP3   OH256145   5.248   6.779  13.595  0.1798  0.5363  0.1572
11577TIP3    H156146   5.276   6.701  13.642  3.1733  1.2071 -0.2771
11577TIP3    H256147   5.174   6.750  13.542 -0.8216 -1.1605  2.3280
11578TIP3   OH256148   4.594   0.967   4.508  0.0095  0.5573  0.0417
11578TIP3    H156149   4.515   0.928   4.469  1.5098 -1.9475 -0.7524
11578TIP3    H256150   4.566   1.054   4.538 -3.9241 -1.3598  2.8447
11579TIP3   OH256151   3.983   1.396  13.184 -0.0811  0.4265  0.0461
11579TIP3    H156152   3.891   1.376  13.200 -0.2164  0.9030 -0.1111
11579TIP3    H256153   3.988   1.491  13.191  0.7554  0.2931  1.8690
11580TIP3   OH256154   2.390   2.166  12.126 -0.1229  0.4808  0.3220
11580TIP3    H156155   2.407   2.214  12.207 -0.5562  2.4491 -0.7024
11580TIP3    H256156   2.477   2.147  12.090  0.1088 -1.2638  1.6709
11581TIP3   OH256157   5.198   1.447   3.175 -0.0819 -0.3187  0.4555
11581TIP3    H156158   5.234   1.491   3.098 -0.2515  1.6340  1.4126
11581TIP3    H256159   5.250   1.368   3.185  1.2534  0.4031 -0.5103
11582TIP3   OH256160   4.563   4.138  10.292 -0.3402 -0.0822  0.0299
11582TIP3    H156161   4.517   4.213  10.254  0.2828  0.2077 -0.1636
11582TIP3    H256162   4.526   4.129  10.379  0.0448  0.8813  0.3091
11583TIP3   OH256163   5.536   2.879  12.663 -0.3449  0.1626 -0.5317
11583TIP3    H156164   5.497   2.950  12.612  1.4623  0.5018 -1.5339
11583TIP3    H256165   5.593   2.923  12.726 -1.6182 -0.3167  1.0290
11584TIP3   OH256166   3.432   5.558   4.978  0.0674  0.0516  0.6990
11584TIP3    H156167   3.423   5.533   5.070  0.0054  0.7582  0.8952
11584TIP3    H256168   3.383   5.640   4.971  0.4867  0.2610  0.1527
11585TIP3   OH256169   0.856   6.187   5.080 -0.4564 -0.1401  0.8051
11585TIP3    H156170   0.948   6.185   5.107  0.4291 -0.9441 -1.9218
11585TIP3    H256171   0.832   6.095   5.071 -0.2939  0.0132 -2.0108
11586TIP3   OH256172   6.615   6.179   0.067 -0.2981 -0.4109  0.2556
11586TIP3    H156173   6.570   6.215  -0.009  1.3189  0.6116 -0.2491
11586TIP3    H256174   6.666   6.251   0.102  0.5474 -1.3927  1.1224
11587TIP3   OH256175   3.380   6.361   3.146  0.3444  0.0130  0.2589
11587TIP3    H156176   3.383   6.443   3.196 -1.8018  1.3125 -1.5633
11587TIP3    H256177   3.337   6.298   3.204 -0.7082  1.0374  0.6152
11588TIP3   OH256178   4.574   4.208  13.701 -0.3116  0.0789  0.0608
11588TIP3    H156179   4.517   4.133  13.715  1.8207 -1.4329  1.1685
11588TIP3    H256180   4.559   4.233  13.609 -0.3956 -2.2914 -0.6294
11589TIP3   OH256181   1.946   6.535   4.740 -0.0116  0.2100  0.5338
11589TIP3    H156182   1.868   6.491   4.774  0.5604 -0.4692  0.9995
11589TIP3    H256183   2.012   6.466   4.734  0.0789  0.4062 -1.4868
11590TIP3   OH256184   1.370   6.767  15.386 -0.1949  0.0204 -0.4138
11590TIP3    H156185   1.393   6.830  15.317 -0.1464  0.6496  0.1726
11590TIP3    H256186   1.421   6.688  15.363 -0.2475  0.1863 -1.1437
11591TIP3   OH256187   0.275   6.278   4.770  0.4390 -0.0718 -0.0891
11591TIP3    H156188   0.370   6.291   4.762  0.4425 -0.3480 -0.5642
11591TIP3    H256189   0.254   6.310   4.858  0.4846  2.8022 -1.0270
11592TIP3   OH256190   3.898   6.268  14.738 -0.3691 -0.0323  0.1474
11592TIP3    H156191   3.957   6.293  14.667 -0.2035  1.0490  0.6437
11592TIP3    H256192   3.813   6.303  14.712 -1.0459 -2.2987 -0.9653
11593TIP3   OH256193   5.272   1.085  15.727  0.0237  0.4612  0.3391
11593TIP3    H156194   5.294   0.997  15.756 -0.8192 -0.3178 -1.2475
11593TIP3    H256195   5.269   1.137  15.807 -0.1512 -1.0945  1.3840
11594TIP3   OH256196   3.338   0.981  13.418 -0.5679  0.8011 -0.0156
11594TIP3    H156197   3.267   0.943  13.469  1.5432 -0.7725  1.9250
11594TIP3    H256198   3.368   0.911  13.361 -0.6266  1.4876 -0.9131
11595TIP3   OH256199   0.379   2.416   5.756 -0.1536 -0.4397  0.1437
11595TIP3    H156200   0.412   2.498   5.720 -1.4200 -1.2764 -3.2835
11595TIP3    H256201   0.450   2.384   5.812  1.8604  1.2544 -1.2853
11596TIP3   OH256202   6.353   4.584   6.307  0.5375  0.1124  0.1541
11596TIP3    H156203   6.335   4.492   6.288 -0.3570  0.2575  0.2463
11596TIP3    H256204   6.283   4.632   6.263  1.5141  0.8319 -0.6853
11597TIP3   OH256205   3.332   5.187  15.397 -0.2656  0.3646  0.3466
11597TIP3    H156206   3.349   5.108  15.345  0.1848  0.0911  0.9075
11597TIP3    H256207   3.411   5.199  15.449 -1.2014 -0.1050  1.9437
11598TIP3   OH256208   3.590   6.464  13.396  0.3722  0.5046  0.0630
11598TIP3    H156209   3.551   6.484  13.482  1.8338  3.4554  0.1641
11598TIP3    H256210   3.534   6.510  13.334  1.0977  1.0265 -0.2176
11599TIP3   OH256211   5.064   2.918  13.392 -0.3719 -0.1595 -0.2694
11599TIP3    H156212   5.067   2.907  13.297 -0.6611 -0.3353 -0.2588
11599TIP3    H256213   5.110   3.000  13.407  0.8071 -0.7656 -0.4442
11600TIP3   OH256214   1.013   5.434   0.180  0.1309  0.0206  0.2986
11600TIP3    H156215   1.070   5.363   0.211  2.2679  0.8360 -1.4797
11600TIP3    H256216   0.959   5.455   0.256  1.8001 -1.2214  1.9554
11601TIP3   OH256217   4.111   6.081   1.891  0.2922  0.2053 -0.2219
11601TIP3    H156218   4.122   6.169   1.854 -1.1824  0.8517  0.7385
11601TIP3    H256219   4.017   6.065   1.886  0.6584 -1.8832 -1.5219
11602TIP3   OH256220   0.038   1.062  14.789 -0.4560 -0.4175 -0.4103
11602TIP3    H156221   0.040   0.978  14.833  1.1266 -0.3100 -0.1931
11602TIP3    H256222   0.088   1.048  14.708 -0.4459  0.2333 -0.5251
11603TIP3   OH256223   5.320   6.495   4.114  0.5123 -0.0640  0.3397
11603TIP3    H156224   5.399   6.440   4.119  0.7403  0.0923 -1.0892
11603TIP3    H256225   5.248   6.435   4.135  0.8630 -0.6642 -0.1169
11604TIP3   OH256226   4.781   5.570  16.984  0.2612 -0.4978  0.0565
11604TIP3    H156227   4.786   5.520  16.903  0.3739  0.9410 -0.8576
11604TIP3    H256228   4.687   5.580  17.000 -0.1256  3.8740 -3.0254
11605TIP3   OH256229   4.074   2.436   2.787 -0.3827  0.4502  0.0853
11605TIP3    H156230   4.117   2.359   2.750  0.5938  0.8988  0.2585
11605TIP3    H256231   4.027   2.476   2.714 -1.4299 -0.6457  0.1271
11606TIP3   OH256232   1.008   6.157   5.448 -0.1331 -0.2053 -0.2726
11606TIP3    H156233   1.092   6.178   5.487 -1.0942 -0.1037  1.8898
11606TIP3    H256234   0.944   6.201   5.504 -1.6234  0.2557 -2.2109
11607TIP3   OH256235   3.059   3.063   5.306 -0.7619 -0.1401  0.5057
11607TIP3    H156236   3.079   3.130   5.371 -0.7527 -0.0316  0.3926
11607TIP3    H256237   2.995   3.006   5.348  0.3260 -0.9302  1.1560
11608TIP3   OH256238   5.898   5.682  11.122 -0.0405 -0.0425  0.6706
11608TIP3    H156239   5.933   5.770  11.134  1.2361 -0.2424 -1.0986
11608TIP3    H256240   5.807   5.687  11.151 -0.0117  1.8753  0.5309
11609TIP3   OH256241   2.233   3.299   0.181 -0.4062  0.2392  0.2992
11609TIP3    H156242   2.282   3.217   0.179  0.9056  0.9247  1.5636
11609TIP3    H256243   2.228   3.321   0.275 -1.5853  1.0987  0.0504
11610TIP3   OH256244   0.772   3.604  14.693  0.4835 -0.0343  0.0669
11610TIP3    H156245   0.734   3.541  14.754 -1.9211  0.5781 -0.6994
11610TIP3    H256246   0.721   3.594  14.613  2.5389  0.2778 -1.3818
11611TIP3   OH256247   1.721   4.434   5.015 -0.0068 -0.3159 -0.0210
11611TIP3    H156248   1.736   4.524   5.044  2.8961 -1.0991  1.2372
11611TIP3    H256249   1.658   4.442   4.943  0.8452  2.8011 -0.5596
11612TIP3   OH256250   0.816   1.077   3.218  0.0849  0.2808 -0.0071
11612TIP3    H156251   0.905   1.111   3.231  0.0592  0.3166  0.0759
11612TIP3    H256252   0.793   1.039   3.303  0.3394 -0.4725 -0.2609
11613TIP3   OH256253   5.903   0.743  13.480  0.1903 -0.1991  0.4328
11613TIP3    H156254   5.922   0.680  13.551  1.5110 -0.1402  0.1569
11613TIP3    H256255   5.928   0.828  13.516 -3.6104  0.6121  1.6177
11614TIP3   OH256256   1.896   1.952  14.884 -0.2687 -0.6868 -0.3671
11614TIP3    H156257   1.820   2.005  14.862 -0.7642 -0.5521  1.4840
11614TIP3    H256258   1.863   1.862  14.887 -0.0504 -0.7850 -0.8395
11615TIP3   OH256259   1.795   1.588   0.455 -0.3485  0.5819  0.2878
11615TIP3    H156260   1.784   1.576   0.549  1.1985  1.1755  0.5914
11615TIP3    H256261   1.735   1.659   0.432 -0.3653  0.7826  0.9368
11616TIP3   OH256262   0.318   0.190   0.150 -0.5894 -0.1934  0.1100
11616TIP3    H156263   0.223   0.177   0.144 -0.5522 -0.4557  0.0815
11616TIP3    H256264   0.351   0.105   0.179 -0.4849  0.2132  1.2510
11617TIP3   OH256265   4.646   5.203   3.085  0.3786 -0.3170 -0.1563
11617TIP3    H156266   4.649   5.208   3.180  0.7679  1.0823 -0.2231
11617TIP3    H256267   4.590   5.127   3.066 -0.7167  0.1203  1.1803
11618TIP3   OH256268   1.894   0.929  16.693 -0.0270 -0.0639 -0.5061
11618TIP3    H156269   1.853   0.851  16.655 -2.3123  1.2019 -0.7973
11618TIP3    H256270   1.821   0.980  16.728  1.4301  1.8316 -0.0689
11619TIP3   OH256271   1.544   5.200   5.195 -0.4240 -0.7235  0.2109
11619TIP3    H156272   1.502   5.134   5.140 -3.1500  0.1206  1.1120
11619TIP3    H256273   1.472   5.244   5.240  1.4717  0.8198  1.9844
11620TIP3   OH256274   5.004   5.428   6.700  0.1256 -0.3252 -0.1059
11620TIP3    H156275   4.949   5.412   6.777 -0.0295  0.0107 -0.1458
11620TIP3    H256276   5.006   5.344   6.654  1.4115 -0.9512  1.0164
11621TIP3   OH256277   3.602   2.550   3.344  0.2039  0.2670 -0.7511
11621TIP3    H156278   3.654   2.555   3.424 -1.4076  0.5664  0.3336
11621TIP3    H256279   3.581   2.641   3.323 -2.3520  0.0556  0.5773
11622TIP3   OH256280   4.691   0.662  16.040 -0.2033 -0.6184 -0.1791
11622TIP3    H156281   4.699   0.642  16.133 -1.0181  0.0195  0.0461
11622TIP3    H256282   4.601   0.694  16.030  0.3665  0.8717 -0.8824
11623TIP3   OH256283   5.905   0.264   4.940 -0.1693 -0.3350 -0.4754
11623TIP3    H156284   5.864   0.183   4.971  0.3319 -0.8647 -1.1599
11623TIP3    H256285   5.870   0.332   4.997  0.6832 -1.2495  1.2428
11624TIP3   OH256286   2.738   5.790   0.716  0.0213  0.5567  0.5321
11624TIP3    H156287   2.787   5.708   0.705 -0.1804  0.7245 -2.7452
11624TIP3    H256288   2.674   5.789   0.645 -1.6824  2.4718  1.9263
11625TIP3   OH256289   1.159   3.344   2.837  0.3931  0.1742  0.7469
11625TIP3    H156290   1.119   3.354   2.751  0.2113  1.4768  0.9670
11625TIP3    H256291   1.146   3.251   2.859  0.2190 -0.1129 -0.5027
11626TIP3   OH256292   1.798   4.586   5.944  0.3862  0.0843 -0.3601
11626TIP3    H156293   1.723   4.582   5.884 -0.0737  0.9927  0.1239
11626TIP3    H256294   1.849   4.661   5.913  0.5376  0.1066 -0.0633
11627TIP3   OH256295   2.011   1.710  14.719 -0.0385 -0.0921  0.5837
11627TIP3    H156296   2.012   1.709  14.623  0.4231  1.6134  0.5437
11627TIP3    H256297   1.940   1.650  14.743 -2.3046  1.8082 -0.9227
11628TIP3   OH256298   0.683   3.563  12.575 -0.2584 -0.2722  0.3898
11628TIP3    H156299   0.646   3.479  12.603 -0.9752  0.9908  3.6261
11628TIP3    H256300   0.607   3.617  12.554  0.2063 -0.3699 -1.7836
11629TIP3   OH256301   3.907   4.748   0.914 -0.0591 -0.4065  0.1929
11629TIP3    H156302   3.849   4.779   0.844 -0.3545 -2.4149 -0.5174
11629TIP3    H256303   3.848   4.706   0.977  0.4858 -1.3546  0.0883
11630TIP3   OH256304   4.049   1.142  15.302  0.0434  0.1566  0.4173
11630TIP3    H156305   4.008   1.156  15.388  0.3994 -0.0520  0.6223
11630TIP3    H256306   4.097   1.223  15.285 -0.3921  0.3717  0.2126
11631TIP3   OH256307   1.107   2.648   5.497 -0.3232 -0.2100  0.8437
11631TIP3    H156308   1.023   2.661   5.540  0.2226 -0.8135  2.1752
11631TIP3    H256309   1.124   2.730   5.451 -1.0563  0.3872  1.6084
11632TIP3   OH256310   5.626   3.392   0.035 -0.0566  0.5602  0.6227
11632TIP3    H156311   5.719   3.412   0.038  0.0317  0.1970  0.4111
11632TIP3    H256312   5.586   3.470  -0.004  0.2581  0.4096 -0.0090
11633TIP3   OH256313   5.896   4.949   4.388  0.6976 -0.1380  0.2331
11633TIP3    H156314   5.909   4.869   4.336 -0.3995 -0.8013  0.9391
11633TIP3    H256315   5.963   4.944   4.456  1.3844  0.1474 -0.4065
11634TIP3   OH256316   5.868   4.801   0.718 -0.4671  0.0048 -0.0244
11634TIP3    H156317   5.803   4.801   0.787 -0.1204  1.4082  0.3349
11634TIP3    H256318   5.947   4.836   0.759 -0.0592  0.1996 -0.9399
11635TIP3   OH256319   6.236   3.050   4.521 -0.1178  0.1864 -0.1849
11635TIP3    H156320   6.257   3.120   4.459  1.8605 -2.2219 -2.4863
11635TIP3    H256321   6.319   3.031   4.564 -0.9924  0.2881  1.6407
11636TIP3   OH256322   5.946   1.998   5.224  0.2306  0.5673  0.7486
11636TIP3    H156323   5.873   1.983   5.164  1.3496 -0.3039 -0.4451
11636TIP3    H256324   5.939   1.928   5.289  0.4637  0.0018  0.1691
11637TIP3   OH256325   3.494   2.885  13.937 -0.2556 -0.4573  0.4953
11637TIP3    H156326   3.471   2.897  14.029  0.0168  1.0724  0.3866
11637TIP3    H256327   3.559   2.954  13.919 -1.6805  0.5075 -1.3072
11638TIP3   OH256328   5.649   2.572   2.602  0.2119  0.5503 -0.0570
11638TIP3    H156329   5.681   2.586   2.691  1.0631  0.6954 -0.3734
11638TIP3    H256330   5.572   2.628   2.596  0.9093  1.5902  0.1811
11639TIP3   OH256331   2.234   2.596   3.062  0.1315 -0.5832 -0.5368
11639TIP3    H156332   2.230   2.538   2.986 -1.7116  0.7330 -1.5066
11639TIP3    H256333   2.264   2.539   3.133 -0.9227 -2.5601 -1.5800
11640TIP3   OH256334   3.216   6.114   0.723  0.3771  0.3772  0.2115
11640TIP3    H156335   3.243   6.109   0.631 -3.8891 -0.5265 -1.1828
11640TIP3    H256336   3.162   6.036   0.737  0.4519  0.7728  3.3758
11641TIP3   OH256337   3.089   0.035  13.940  0.8266 -0.2150  0.0905
11641TIP3    H156338   3.123   0.078  13.862  2.9712 -0.5835  0.7582
11641TIP3    H256339   3.166   0.018  13.994 -0.3590 -1.7187  1.4231
11642TIP3   OH256340   2.261   5.083  13.296 -0.0855  0.6837  0.4050
11642TIP3    H156341   2.341   5.096  13.245 -0.3775  1.9399  0.2220
11642TIP3    H256342   2.291   5.043  13.378  0.4792 -0.6301 -0.4161
11643TIP3   OH256343   5.860   4.041  15.954 -0.5558  0.4765 -0.0952
11643TIP3    H156344   5.929   4.028  15.888  0.8467  2.5291  0.8618
11643TIP3    H256345   5.784   4.069  15.904  0.8767  3.3871 -0.8528
11644TIP3   OH256346   2.202   2.921   4.674  0.0022  0.4032  0.0993
11644TIP3    H156347   2.273   2.960   4.623  0.5748  0.4304  0.8913
11644TIP3    H256348   2.209   2.963   4.760 -0.4104 -0.2487  0.4629
11645TIP3   OH256349   4.631   1.057  17.026  0.1354  1.3782  0.6738
11645TIP3    H156350   4.576   1.026  16.954 -0.8362  1.5084  1.3577
11645TIP3    H256351   4.716   1.016  17.009  0.0022  1.5981 -0.6846
11646TIP3   OH256352   3.679   1.088   1.950  0.1998 -0.1160 -0.4885
11646TIP3    H156353   3.584   1.091   1.934  0.3530  1.0948 -1.3309
11646TIP3    H256354   3.701   1.176   1.980  1.1250 -0.2457 -0.7399
11647TIP3   OH256355   5.425   1.215  14.451  0.4472 -0.2606  0.1255
11647TIP3    H156356   5.399   1.173  14.369 -1.4768  1.0650  0.0075
11647TIP3    H256357   5.479   1.290  14.424 -0.1912  0.1792  0.0632
11648TIP3   OH256358   5.321   4.437   4.987  0.2762 -0.5633  0.9172
11648TIP3    H156359   5.375   4.404   5.058  0.3217 -0.7519  0.7960
11648TIP3    H256360   5.336   4.532   4.988  1.4968 -0.7256  0.1729
11649TIP3   OH256361   2.082   3.000   3.025  0.0245 -0.1226  0.0918
11649TIP3    H156362   2.077   3.095   3.033  0.1506 -0.1329  0.3333
11649TIP3    H256363   2.176   2.981   3.030  0.1699 -0.1057 -1.9453
11650TIP3   OH256364   4.777   4.820  10.421  0.0060 -0.9255 -0.3598
11650TIP3    H156365   4.726   4.827  10.341 -1.8866 -2.1174  0.6583
11650TIP3    H256366   4.848   4.883  10.411 -2.6025  2.1085 -1.1900
11651TIP3   OH256367   3.584   5.272   2.800  0.1935 -0.4382  0.2305
11651TIP3    H156368   3.603   5.182   2.828 -0.3717 -0.1472  1.6074
11651TIP3    H256369   3.488   5.274   2.792  0.2767 -0.2287 -0.7844
11652TIP3   OH256370   4.916   5.095   5.703  0.7955 -0.3851  0.9224
11652TIP3    H156371   4.930   5.017   5.757  0.0071 -0.2097  1.3941
11652TIP3    H256372   4.842   5.139   5.744  0.6470  0.1312  0.1138
11653TIP3   OH256373   5.514   3.262   5.623  0.0207 -0.9314 -0.6211
11653TIP3    H156374   5.582   3.198   5.603  1.7036  0.6721 -0.2879
11653TIP3    H256375   5.558   3.328   5.676 -1.3407  1.0550 -1.8325
11654TIP3   OH256376   6.444   5.512  12.419 -0.4530  0.9502 -0.5695
11654TIP3    H156377   6.432   5.447  12.350  0.3277  0.8875 -0.6626
11654TIP3    H256378   6.521   5.481  12.468 -0.5573  1.3781 -0.1229
11655TIP3   OH256379   6.654   0.304   1.503 -0.5348 -0.7992  0.1294
11655TIP3    H156380   6.605   0.317   1.584  0.0457 -1.3318  0.5766
11655TIP3    H256381   6.697   0.387   1.486 -0.6087 -0.7074  0.3959
11656TIP3   OH256382   4.145   0.440  11.206 -0.1414 -0.1317  0.2446
11656TIP3    H156383   4.224   0.410  11.250 -1.3744 -3.6496  0.3259
11656TIP3    H256384   4.166   0.433  11.113  0.1447  0.5734  0.2446
11657TIP3   OH256385   5.383   3.278   3.808  0.5065  0.1038  0.3160
11657TIP3    H156386   5.333   3.197   3.819 -1.7990  1.2812 -0.8267
11657TIP3    H256387   5.378   3.321   3.893 -1.7025  0.8314 -0.1233
11658TIP3   OH256388   4.313   6.476   0.874  0.2558 -0.8646  0.6633
11658TIP3    H156389   4.277   6.409   0.933 -0.8844 -2.0764 -1.2945
11658TIP3    H256390   4.399   6.443   0.850  0.5773 -0.5424  1.3422
11659TIP3   OH256391   0.180   0.370   2.562  0.1730  0.3262 -0.1533
11659TIP3    H156392   0.149   0.420   2.487 -2.1391  1.4048  1.4060
11659TIP3    H256393   0.117   0.299   2.572  0.8615 -0.2343  0.3653
11660TIP3   OH256394   4.592   6.558   5.387  0.3444 -0.1844 -0.8303
11660TIP3    H156395   4.596   6.474   5.433 -1.3942 -0.8308 -1.7650
11660TIP3    H256396   4.499   6.571   5.368  0.2939  2.9394  0.9762
11661TIP3   OH256397   5.625   1.128   4.549 -0.8419  0.8600 -0.1253
11661TIP3    H156398   5.718   1.144   4.536 -0.8515  0.2113 -1.0329
11661TIP3    H256399   5.584   1.155   4.467 -1.1976 -0.8402 -0.5492
11662TIP3   OH256400   3.522   2.985  12.487 -0.0194 -0.6548  0.3246
11662TIP3    H156401   3.493   2.963  12.575 -1.0029 -1.2238 -0.1192
11662TIP3    H256402   3.448   2.961  12.431  1.2329 -1.9711 -0.8606
11663TIP3   OH256403   0.251   4.545  16.849 -0.1356  0.2098  0.2651
11663TIP3    H156404   0.167   4.525  16.891  0.1884 -1.2269  0.2813
11663TIP3    H256405   0.312   4.483  16.888  0.2201 -1.0849 -2.1554
11664TIP3   OH256406   6.022   3.933  11.720  0.3342 -0.5608  0.0398
11664TIP3    H156407   6.104   3.943  11.767 -0.4568 -0.6022  1.4976
11664TIP3    H256408   5.956   3.925  11.789 -1.5724  4.1476 -0.8458
11665TIP3   OH256409   3.254   3.396  12.996  0.5450 -0.2057  0.1372
11665TIP3    H156410   3.223   3.486  12.997  0.1587 -0.3340  0.9976
11665TIP3    H256411   3.192   3.349  13.052  0.7699 -0.9918 -0.2643
11666TIP3   OH256412   4.036   5.384  10.400  0.1281 -0.2798 -0.2576
11666TIP3    H156413   3.996   5.302  10.371  1.6718 -0.3393 -2.5048
11666TIP3    H256414   4.126   5.359  10.422  0.5637  0.7675 -0.8053
11667TIP3   OH256415   1.289   2.982   4.298 -0.2202 -0.2041 -0.1532
11667TIP3    H156416   1.265   2.931   4.220  1.0789 -1.6605  0.3468
11667TIP3    H256417   1.247   2.935   4.370  1.1274 -0.7018  0.3331
11668TIP3   OH256418   0.639   6.574  16.896  0.2586 -0.3146  0.0571
11668TIP3    H156419   0.651   6.537  16.809  0.9729 -1.6856  0.7132
11668TIP3    H256420   0.726   6.571  16.936 -0.2251 -0.5652  1.1418
11669TIP3   OH256421   6.492   6.580  11.788 -0.2133  0.0811  0.0964
11669TIP3    H156422   6.407   6.554  11.823  0.1170 -0.7562  0.3172
11669TIP3    H256423   6.553   6.516  11.826  1.2228  3.0452  3.3862
11670TIP3   OH256424   2.879   3.870  12.303  0.1683 -0.1537 -0.6458
11670TIP3    H156425   2.964   3.907  12.330 -0.5867 -0.1742  2.0605
11670TIP3    H256426   2.823   3.947  12.292 -0.3623 -0.2469  1.1205
11671TIP3   OH256427   5.721   5.574  13.680  0.0698  0.4392  0.2875
11671TIP3    H156428   5.647   5.566  13.740  0.8043 -2.5472  0.9296
11671TIP3    H256429   5.777   5.640  13.720 -0.1259 -0.4911  2.2242
11672TIP3   OH256430   6.721   2.477  14.788  0.1124  0.1816 -0.0540
11672TIP3    H156431   6.771   2.395  14.781 -0.7383 -0.3024 -0.7037
11672TIP3    H256432   6.707   2.504  14.697  0.0630  0.8444  0.1501
11673TIP3   OH256433   2.007   2.692  12.655  0.0299  0.5508  0.2255
11673TIP3    H156434   2.048   2.606  12.648  0.0033  0.6413 -1.5355
11673TIP3    H256435   1.990   2.718  12.564 -3.6682  0.6779  0.7998
11674TIP3   OH256436   0.588   5.475   4.495 -0.0851 -0.0075 -0.1617
11674TIP3    H156437   0.648   5.545   4.472 -1.2493  0.8691 -0.5992
11674TIP3    H256438   0.561   5.495   4.585  0.8903 -0.8690  0.3506
11675TIP3   OH256439   1.184   5.315   6.245 -0.3287 -0.4391  0.1463
11675TIP3    H156440   1.132   5.396   6.251 -1.0886 -0.8472 -0.7115
11675TIP3    H256441   1.236   5.325   6.166 -1.9819 -1.6352 -1.1628
11676TIP3   OH256442   2.318   3.123  11.358  0.1539  0.0185 -0.7691
11676TIP3    H156443   2.373   3.137  11.281  0.1283  0.3858 -0.7232
11676TIP3    H256444   2.239   3.175  11.341 -0.7768 -1.5460 -1.4364
11677TIP3   OH256445   3.967   1.210   5.430 -0.6060  0.6811 -0.4321
11677TIP3    H156446   3.877   1.196   5.458 -0.6192  2.3951  0.5254
11677TIP3    H256447   4.018   1.207   5.512  0.3190 -0.8295 -1.0119
11678TIP3   OH256448   3.289   5.180   5.619  0.0015 -0.2410 -0.3096
11678TIP3    H156449   3.209   5.222   5.587  1.1329  2.1843 -0.0885
11678TIP3    H256450   3.256   5.104   5.668 -2.5032  2.4592  2.6496
11679TIP3   OH256451   6.090   3.559   5.665  0.3711 -0.0138 -0.8062
11679TIP3    H156452   6.144   3.633   5.638 -0.4809  1.1141  0.4567
11679TIP3    H256453   6.002   3.582   5.636  0.1328 -0.6167 -0.5700
11680TIP3   OH256454   5.886   1.326  14.799 -0.0028  0.1790 -0.6242
11680TIP3    H156455   5.906   1.419  14.809  1.5432  0.0615 -2.2434
11680TIP3    H256456   5.970   1.284  14.782 -0.0675 -2.1132  3.3867
11681TIP3   OH256457   6.105   1.083  11.893 -0.0788 -0.3838 -0.5901
11681TIP3    H156458   6.106   1.178  11.895  0.8251 -0.3974 -0.2851
11681TIP3    H256459   6.039   1.058  11.958  0.7649  0.0097  0.4442
11682TIP3   OH256460   4.375   1.431  11.284  0.2165 -0.3027  0.1279
11682TIP3    H156461   4.281   1.440  11.301  0.1235 -0.7886 -0.1084
11682TIP3    H256462   4.381   1.414  11.190  0.6471  1.2378 -0.1493
11683TIP3   OH256463   2.276   6.399  11.997 -0.3459 -0.1415  0.0186
11683TIP3    H156464   2.348   6.352  11.954  0.3027  0.2945  0.6021
11683TIP3    H256465   2.214   6.331  12.023  1.1334 -0.8519  1.9332
11684TIP3   OH256466   3.527   0.091  14.223  0.3933 -0.3592  0.5688
11684TIP3    H156467   3.608   0.132  14.255 -0.6816  2.0282  0.4582
11684TIP3    H256468   3.501   0.031  14.292  1.5355 -0.1253  1.2286
11685TIP3   OH256469   5.509   1.756  15.343 -0.3953 -0.4119  0.1263
11685TIP3    H156470   5.598   1.723  15.345 -0.4609 -0.5677  0.6073
11685TIP3    H256471   5.454   1.678  15.348 -0.5538 -0.2088  2.6580
11686TIP3   OH256472   1.818   5.842  13.721  0.2823 -0.3994  0.3658
11686TIP3    H156473   1.876   5.917  13.729  0.0894  0.2665 -3.0444
11686TIP3    H256474   1.772   5.856  13.639 -1.4935 -3.1293  0.7624
11687TIP3   OH256475   2.370   5.768   3.495 -0.1346  0.2793  0.5996
11687TIP3    H156476   2.331   5.848   3.531  1.0195  1.2223 -0.1600
11687TIP3    H256477   2.414   5.797   3.415  0.4576 -1.0934  0.4044
11688TIP3   OH256478   0.626   5.987   0.187 -0.1333 -0.0427 -0.3928
11688TIP3    H156479   0.539   6.028   0.187 -0.5210 -0.8485 -0.6284
11688TIP3    H256480   0.665   6.012   0.103 -0.1698  0.2411 -0.3271
11689TIP3   OH256481   1.143   0.886   2.948 -0.3514  0.2974 -0.4691
11689TIP3    H156482   1.053   0.863   2.925 -0.4926  1.3294 -1.0062
11689TIP3    H256483   1.197   0.835   2.887 -0.3122 -3.3761  2.3088
11690TIP3   OH256484   6.210   4.469   1.518  0.4741 -0.2325  0.4972
11690TIP3    H156485   6.232   4.376   1.527 -1.0365 -0.5344  1.3803
11690TIP3    H256486   6.283   4.515   1.561  0.9902 -1.0184  0.4838
11691TIP3   OH256487   3.609   4.573   2.374  0.0298 -0.6905  0.3616
11691TIP3    H156488   3.541   4.579   2.307  0.0224 -2.4258  0.1711
11691TIP3    H256489   3.675   4.637   2.347 -0.2614 -0.9212 -0.9510
11692TIP3   OH256490   2.718   3.425  11.825  0.4643  0.4313  0.0454
11692TIP3    H156491   2.807   3.459  11.814  0.3562  0.5764 -0.3800
11692TIP3    H256492   2.682   3.475  11.899  0.6763  0.4858  0.1122
11693TIP3   OH256493   6.602   4.970  15.291 -0.3450 -0.3636  0.0823
11693TIP3    H156494   6.689   4.989  15.326 -0.1927 -0.7295 -0.0847
11693TIP3    H256495   6.545   4.969  15.368 -0.2481  0.1439  0.1586
11694TIP3   OH256496   2.406   1.009   3.529  0.2775 -0.3102  0.1343
11694TIP3    H156497   2.383   0.977   3.617  0.8595 -1.4721 -0.1091
11694TIP3    H256498   2.500   1.029   3.535  0.5134 -1.2069 -0.4388
11695TIP3   OH256499   6.441   5.415   3.690  0.0155  0.4121  0.0698
11695TIP3    H156500   6.444   5.384   3.780  1.9419 -0.7733 -0.3357
11695TIP3    H256501   6.362   5.375   3.653  0.4126 -0.9300  0.6357
11696TIP3   OH256502   5.844   2.334   0.500  0.0245  0.1442 -0.1073
11696TIP3    H156503   5.805   2.319   0.414  1.7973 -0.5169 -0.8494
11696TIP3    H256504   5.776   2.309   0.562 -1.1616  0.2656 -1.3119
11697TIP3   OH256505   5.723   5.965  11.271 -0.4633 -0.0323  0.5023
11697TIP3    H156506   5.695   5.900  11.336  1.7302 -2.5469 -0.8914
11697TIP3    H256507   5.649   5.972  11.211 -1.9610  1.2677  2.3365
11698TIP3   OH256508   1.581   4.248   4.091 -0.2130  0.0160 -0.9964
11698TIP3    H156509   1.635   4.218   4.018 -1.6149 -0.5469 -1.8313
11698TIP3    H256510   1.626   4.215   4.169 -0.5360 -2.4363 -1.7714
11699TIP3   OH256511   1.825   2.346   5.230 -0.2176 -0.2222  0.3104
11699TIP3    H156512   1.860   2.435   5.224  0.9637 -0.7874 -2.7932
11699TIP3    H256513   1.732   2.359   5.252  0.5389  1.5302  3.1010
11700TIP3   OH256514   6.722   6.051   6.452  0.3508 -0.2324  0.0933
11700TIP3    H156515   6.785   6.117   6.424 -0.6761  0.6257 -0.2632
11700TIP3    H256516   6.664   6.039   6.377  0.1387 -1.0802  0.3813
11701TIP3   OH256517   5.233   4.027   4.514  0.5053 -0.1455 -0.2771
11701TIP3    H156518   5.276   4.024   4.599 -0.0456 -2.4726 -0.0089
11701TIP3    H256519   5.285   3.969   4.458 -0.2116 -0.1383 -0.9747
11702TIP3   OH256520   0.753   4.210  14.497  0.7087  0.5623  0.3798
11702TIP3    H156521   0.678   4.256  14.459 -0.2017  0.0967  1.5549
11702TIP3    H256522   0.715   4.137  14.545  2.0813 -1.1067 -0.9170
11703TIP3   OH256523   4.034   0.347   4.197 -0.7422  0.2733 -0.0308
11703TIP3    H156524   4.076   0.388   4.273 -1.1267  1.4823 -0.4519
11703TIP3    H256525   4.073   0.391   4.122  0.1197 -1.3674 -0.6033
11704TIP3   OH256526   0.520   2.815  15.290 -0.0467  0.3396 -0.0587
11704TIP3    H156527   0.469   2.768  15.356 -0.6487  1.1088  0.0400
11704TIP3    H256528   0.587   2.862  15.340 -0.7805  1.2805  0.0725
11705TIP3   OH256529   3.560   4.332  14.436 -0.5437 -0.2291  0.2702
11705TIP3    H156530   3.626   4.276  14.478 -1.6255 -1.1416  0.7899
11705TIP3    H256531   3.476   4.299  14.468 -1.3793 -0.3639 -1.9028
11706TIP3   OH256532   1.839   0.281   5.913  0.2290 -0.0867  0.4436
11706TIP3    H156533   1.903   0.346   5.944 -0.4240  0.7214  0.1438
11706TIP3    H256534   1.763   0.333   5.887 -0.1162 -0.9381 -0.3049
11707TIP3   OH256535   2.204   4.674   2.297  0.0111 -0.3017  0.1774
11707TIP3    H156536   2.128   4.670   2.240 -1.1399  0.4478  1.6108
11707TIP3    H256537   2.278   4.650   2.240 -0.9253  1.3268 -1.8652
11708TIP3   OH256538   6.752   2.310   2.499  0.8380  0.0665 -0.1644
11708TIP3    H156539   6.828   2.332   2.553 -1.6029 -1.5282  4.4331
11708TIP3    H256540   6.766   2.218   2.474  1.0761  0.2229 -0.6166
11709TIP3   OH256541   4.014   3.617  14.373  0.1270 -0.0095 -0.0646
11709TIP3    H156542   3.929   3.576  14.387 -0.7071  1.1682 -1.3929
11709TIP3    H256543   4.021   3.627  14.278  1.4576  0.5184  0.0624
11710TIP3   OH256544   4.535   6.587  15.468  0.0494  0.6432  0.3193
11710TIP3    H156545   4.440   6.590  15.463  0.0156 -0.8979 -0.8300
11710TIP3    H256546   4.556   6.614  15.558 -1.3723  2.0873  0.2530
11711TIP3   OH256547   5.198   5.965   4.558  0.1191  0.1412 -0.0908
11711TIP3    H156548   5.160   5.953   4.645 -0.3442 -0.1093 -0.3233
11711TIP3    H256549   5.223   5.877   4.531 -1.2065 -0.0284 -0.8663
11712TIP3   OH256550   4.251   4.147  13.092 -0.2781 -0.2246 -0.0632
11712TIP3    H156551   4.291   4.180  13.173 -0.6650  0.9686 -0.3283
11712TIP3    H256552   4.159   4.134  13.115 -0.1842 -0.8813 -0.0420
11713TIP3   OH256553   0.928   0.114  16.196  0.4683  0.0996 -0.0080
11713TIP3    H156554   0.950   0.068  16.277 -0.3089  1.8679  1.2694
11713TIP3    H256555   1.013   0.146  16.164  0.9728 -1.8362 -0.7355
11714TIP3   OH256556   3.931   0.889   5.349  0.3965  0.8875  0.3621
11714TIP3    H156557   3.920   0.801   5.312 -0.3194 -0.0885  2.7042
11714TIP3    H256558   3.850   0.906   5.396  1.2395  2.0148  1.4832
11715TIP3   OH256559   4.678   1.486  12.371  0.1215  0.4682  0.3104
11715TIP3    H156560   4.628   1.436  12.306 -0.5531 -1.4683  2.1880
11715TIP3    H256561   4.763   1.442  12.374  0.2918  0.8065  0.4792
11716TIP3   OH256562   3.361   0.464  10.754  0.1166  0.5823 -0.1167
11716TIP3    H156563   3.406   0.422  10.681  0.8695 -0.1818  0.7454
11716TIP3    H256564   3.274   0.485  10.721 -0.1046 -1.2019 -0.7514
11717TIP3   OH256565   5.825   3.815   2.914  0.3166 -0.7789 -0.1506
11717TIP3    H156566   5.729   3.816   2.916  0.3220  0.8106  0.6898
11717TIP3    H256567   5.851   3.781   2.999  0.4608  1.0544  0.5924
11718TIP3   OH256568   1.799   5.924   3.228 -0.2262 -0.0417  0.0365
11718TIP3    H156569   1.857   5.992   3.192 -0.7736 -0.0981 -0.9888
11718TIP3    H256570   1.820   5.922   3.321 -0.1598  1.4956  0.0860
11719TIP3   OH256571   1.445   2.254   5.559 -0.3116  0.6340  0.1056
11719TIP3    H156572   1.518   2.201   5.526  0.8434  0.5126  2.6774
11719TIP3    H256573   1.450   2.335   5.509  1.7517  0.7124  0.3368
11720TIP3   OH256574   3.254   2.667  13.044  0.3581  0.0361  0.1967
11720TIP3    H156575   3.323   2.604  13.066 -0.3153 -0.9301 -0.3786
11720TIP3    H256576   3.212   2.631  12.966  0.0881  1.3251 -0.2815
11721TIP3   OH256577   6.003   0.325  15.255 -0.0165 -0.1567 -0.1114
11721TIP3    H156578   6.034   0.247  15.209  0.6808  0.0565 -0.0223
11721TIP3    H256579   6.033   0.314  15.345  2.1886  1.2820 -0.6001
11722TIP3   OH256580   2.280   6.209   2.126 -0.2854 -0.5667  0.9411
11722TIP3    H156581   2.335   6.260   2.185  0.8174 -1.5760  0.8268
11722TIP3    H256582   2.228   6.274   2.079  0.5918  0.3942  1.2765
11723TIP3   OH256583   6.233   4.783   1.776 -0.2195 -0.4009 -0.4127
11723TIP3    H156584   6.320   4.821   1.769 -0.3498 -0.1604 -0.7365
11723TIP3    H256585   6.246   4.703   1.827  0.1964 -0.3958 -0.5061
11724TIP3   OH256586   2.559   4.393   6.392  0.5334  0.8050 -0.2518
11724TIP3    H156587   2.545   4.327   6.459  2.4640  1.9615  1.4247
11724TIP3    H256588   2.486   4.453   6.402  0.3450  0.4990  0.2567
11725TIP3   OH256589   4.892   3.331   4.665 -0.2647 -0.5159  0.1603
11725TIP3    H156590   4.867   3.416   4.630  1.5512 -0.2299 -0.5183
11725TIP3    H256591   4.871   3.269   4.595  2.2075 -0.0904 -1.0444
11726TIP3   OH256592   2.959   4.326  13.151 -0.8239  0.3733  0.2811
11726TIP3    H156593   2.904   4.249  13.169  0.5224 -0.6823  0.0549
11726TIP3    H256594   2.965   4.371  13.235 -0.0931 -0.8117  0.8930
11727TIP3   OH256595   6.702   4.565  10.916  0.5654  0.5382  0.4550
11727TIP3    H156596   6.679   4.474  10.934 -1.2290  0.9256  0.2810
11727TIP3    H256597   6.663   4.583  10.830  1.0750  1.4201  0.3944
11728TIP3   OH256598   2.958   0.555   2.842  0.0872 -0.2578  0.7254
11728TIP3    H156599   2.939   0.618   2.773  0.7030 -0.3133  0.4971
11728TIP3    H256600   2.951   0.470   2.799 -0.0554 -0.3167  0.8634
11729TIP3   OH256601   4.163   2.709  11.454  0.3180  0.1051 -0.1614
11729TIP3    H156602   4.191   2.621  11.428  0.2891  0.6537 -2.2754
11729TIP3    H256603   4.238   2.765  11.433  0.0490  0.6945  0.4228
11730TIP3   OH256604   4.184   2.314   1.641 -0.2386 -0.0086  0.1860
11730TIP3    H156605   4.091   2.305   1.624  0.0608  1.0012 -2.4788
11730TIP3    H256606   4.226   2.261   1.574  1.1154  1.7769 -0.4415
11731TIP3   OH256607   1.782   3.438  14.947 -0.0688 -0.6767  0.2207
11731TIP3    H156608   1.771   3.500  15.018  0.4209 -1.2710  0.8315
11731TIP3    H256609   1.807   3.492  14.872 -0.0090 -0.0972  0.6494
11732TIP3   OH256610   1.197   4.851   5.330  0.0943  0.2459  0.2127
11732TIP3    H156611   1.259   4.849   5.404  1.2901 -2.1072 -0.7665
11732TIP3    H256612   1.136   4.780   5.348 -1.9955  2.0602  0.7684
11733TIP3   OH256613   1.476   4.819  14.105 -0.2558 -0.3122  0.0522
11733TIP3    H156614   1.487   4.871  14.026  0.4761 -0.2037  0.2120
11733TIP3    H256615   1.452   4.883  14.173 -0.4006 -0.3337  0.0210
11734TIP3   OH256616   5.568   0.156  14.600 -0.4893  0.4455  0.2438
11734TIP3    H156617   5.521   0.074  14.618  1.5534 -0.8585 -0.0785
11734TIP3    H256618   5.657   0.129  14.580 -0.3992  2.4883 -2.9242
11735TIP3   OH256619   5.273   4.231   3.798 -0.5064  0.5564 -0.1444
11735TIP3    H156620   5.193   4.184   3.774 -0.3406  0.2456 -0.0928
11735TIP3    H256621   5.261   4.253   3.890 -1.2698  2.0024 -0.5559
11736TIP3   OH256622   0.360   3.730  16.840 -0.1994 -0.1567  0.0945
11736TIP3    H156623   0.356   3.791  16.767  0.7188  1.2454  1.1762
11736TIP3    H256624   0.449   3.694  16.837  0.4598  1.2396  1.5139
11737TIP3   OH256625   4.587   1.616   4.534  0.2351  0.0896 -0.2925
11737TIP3    H156626   4.568   1.673   4.609 -0.5473  2.7956 -2.4061
11737TIP3    H256627   4.630   1.540   4.573 -0.4675  1.1701  2.9301
11738TIP3   OH256628   1.254   4.030  16.275 -0.6186 -0.1986  0.1193
11738TIP3    H156629   1.290   3.942  16.275  1.5464  0.6176 -0.3656
11738TIP3    H256630   1.264   4.060  16.365  1.4560  0.5440 -0.2945
11739TIP3   OH256631   0.324   6.364  11.605 -1.0127 -0.4146 -0.0559
11739TIP3    H156632   0.408   6.324  11.582 -0.6583  0.3231 -0.1006
11739TIP3    H256633   0.264   6.291  11.613 -0.6782 -0.8655 -1.3408
11740TIP3   OH256634   4.832   6.031  15.726 -0.5599 -0.4655  0.0432
11740TIP3    H156635   4.923   6.051  15.703 -0.6516  0.8377  0.6843
11740TIP3    H256636   4.838   5.988  15.811 -0.4633 -1.7697 -0.6060
11741TIP3   OH256637   5.521   2.699  12.457 -0.3104 -0.4503  0.5076
11741TIP3    H156638   5.559   2.748  12.384 -1.5323 -1.6329 -0.9873
11741TIP3    H256639   5.535   2.755  12.533  1.4245  0.6244 -0.5307
11742TIP3   OH256640   4.177   0.005  17.125  0.6004 -0.3247 -0.5272
11742TIP3    H156641   4.163  -0.014  17.218  0.3749 -0.2393 -0.5450
11742TIP3    H256642   4.229  -0.070  17.093  1.5060  0.1173 -0.1147
11743TIP3   OH256643   0.629   4.526   3.842 -0.1436 -0.8752  0.0606
11743TIP3    H156644   0.591   4.473   3.912  1.6211 -0.8331  1.1105
11743TIP3    H256645   0.706   4.477   3.813  0.6490  0.3641 -0.0203
11744TIP3   OH256646   3.771   6.011  11.016 -0.0598 -0.3093  0.0469
11744TIP3    H156647   3.732   6.051  11.094 -2.2610 -0.5282 -0.8773
11744TIP3    H256648   3.766   6.078  10.949  0.8924 -0.4640 -0.1900
11745TIP3   OH256649   4.240   2.825   6.256  0.3862 -0.4008 -0.3890
11745TIP3    H156650   4.155   2.792   6.286  0.3044 -1.1463 -1.3927
11745TIP3    H256651   4.220   2.911   6.219  0.0955 -0.4783 -0.4218
11746TIP3   OH256652   6.305   2.536   1.544 -0.4420 -0.4066 -0.0512
11746TIP3    H156653   6.317   2.502   1.456  1.1498  2.6551 -1.1810
11746TIP3    H256654   6.249   2.613   1.533 -1.0496 -0.5368  1.7738
11747TIP3   OH256655   3.034   0.589  13.773 -0.2942 -0.6591 -0.0809
11747TIP3    H156656   3.127   0.581  13.752 -0.2649 -0.5025 -0.0104
11747TIP3    H256657   3.024   0.539  13.854  0.1030  0.8820  0.9572
11748TIP3   OH256658   3.980   4.251  15.180 -0.9259  0.0943 -0.0123
11748TIP3    H156659   3.905   4.301  15.212  0.2005  1.4337  0.6481
11748TIP3    H256660   4.028   4.226  15.259  0.6958  1.5096 -0.4982
11749TIP3   OH256661   0.472   6.178  14.304  0.4106 -0.0432 -0.0206
11749TIP3    H156662   0.555   6.159  14.347  0.7226  0.2307 -0.4864
11749TIP3    H256663   0.479   6.270  14.276 -0.2018  0.1010  0.2757
11750TIP3   OH256664   6.227   0.913  10.735 -0.5024 -0.6271 -0.6608
11750TIP3    H156665   6.151   0.971  10.732 -1.1885 -1.3497  0.9629
11750TIP3    H256666   6.302   0.971  10.728 -1.1871  0.1231 -2.1269
11751TIP3   OH256667   1.055   0.818  11.182 -0.2234  0.0961  0.0650
11751TIP3    H156668   1.145   0.850  11.172 -0.8642  1.6409 -1.2302
11751TIP3    H256669   1.043   0.810  11.277  1.2556 -0.1411  0.2651
11752TIP3   OH256670   2.853   2.875  12.283 -0.0784 -0.0942 -0.6958
11752TIP3    H156671   2.904   2.845  12.358  1.1450  1.2881 -0.9075
11752TIP3    H256672   2.830   2.796  12.235 -0.9690 -1.0190  1.1556
11753TIP3   OH256673   2.963   0.477  12.856 -0.7338 -0.2058  0.1432
11753TIP3    H156674   3.011   0.541  12.804 -1.0873  0.1792  0.2850
11753TIP3    H256675   3.016   0.397  12.852 -0.2825  0.1032 -0.0187
11754TIP3   OH256676   3.190   2.133  15.109 -0.0477  0.1122  0.1149
11754TIP3    H156677   3.234   2.171  15.185  0.3409 -1.2996  0.6117
11754TIP3    H256678   3.255   2.140  15.039  0.6003 -0.9727  0.5807
11755TIP3   OH256679   2.812   4.923  16.826 -0.5667 -0.2542  0.3196
11755TIP3    H156680   2.834   4.847  16.879 -0.3420 -0.1889  0.3243
11755TIP3    H256681   2.827   4.894  16.736  1.2047  0.2941  0.3885
11756TIP3   OH256682   4.489   5.835   4.963 -0.1023  0.6291  0.2494
11756TIP3    H156683   4.479   5.861   4.872  1.0448 -4.6279 -1.7397
11756TIP3    H256684   4.580   5.855   4.985 -0.5331  2.4256  0.5635
11757TIP3   OH256685   3.611   4.746  11.871 -0.3665  0.5557 -0.0025
11757TIP3    H156686   3.690   4.702  11.840 -0.0881 -0.0467  1.4871
11757TIP3    H256687   3.636   4.784  11.955 -1.2794  1.5506 -0.1617
11758TIP3   OH256688   1.238   1.526  13.356 -0.2380  0.3321 -0.6475
11758TIP3    H156689   1.202   1.582  13.287  0.6120  2.3506  0.4797
11758TIP3    H256690   1.276   1.452  13.309  0.1755  1.5767 -2.3553
11759TIP3   OH256691   3.898   1.709  12.399  0.7199  0.4620  0.3462
11759TIP3    H156692   3.870   1.746  12.316  0.2640 -0.0671  0.2618
11759TIP3    H256693   3.983   1.670  12.381  1.0040  1.0734  0.3332
11760TIP3   OH256694   5.397   6.152   0.014  0.3556 -0.1182 -0.0019
11760TIP3    H156695   5.303   6.170   0.024  0.4434  0.0612  0.5538
11760TIP3    H256696   5.430   6.148   0.104  0.9445  0.1644 -0.1981
11761TIP3   OH256697   6.407   2.585  10.907  0.4644 -0.9662  0.2332
11761TIP3    H156698   6.361   2.662  10.874  0.3285 -0.9030  0.5602
11761TIP3    H256699   6.476   2.569  10.844  0.3474 -0.7158  0.0389
11762TIP3   OH256700   3.370   0.340  16.349  0.1089  0.0861  0.1003
11762TIP3    H156701   3.294   0.300  16.304 -0.1457 -0.1326  0.7140
11762TIP3    H256702   3.445   0.288  16.319  0.1409  0.7810 -1.1106
11763TIP3   OH256703   2.569   6.557   5.502 -0.0704  0.4979 -0.4207
11763TIP3    H156704   2.655   6.583   5.534 -1.1939  3.6103  0.3326
11763TIP3    H256705   2.585   6.534   5.410  1.7847 -0.6202  0.1149
11764TIP3   OH256706   1.014   2.617  14.336 -0.2266  0.4852 -0.2837
11764TIP3    H156707   0.982   2.700  14.372  0.7819  0.6199  0.3543
11764TIP3    H256708   1.090   2.596  14.390 -0.2896 -0.7069 -0.6347
11765TIP3   OH256709   5.980   2.024  10.771 -0.8251  0.0864 -0.4541
11765TIP3    H156710   6.004   1.941  10.730 -1.9887  0.3135 -1.6369
11765TIP3    H256711   5.993   2.009  10.865  2.0466 -0.3924 -0.8390
11766TIP3   OH256712   3.777   4.314   4.939  0.3011  0.3437 -0.0816
11766TIP3    H156713   3.825   4.395   4.921  1.6477 -0.4653 -0.1806
11766TIP3    H256714   3.820   4.248   4.885 -0.8221 -0.4414 -0.0406
11767TIP3   OH256715   6.546   3.546   5.895  0.1465  0.0046 -0.8246
11767TIP3    H156716   6.498   3.508   5.821  0.7007  0.0992 -1.2330
11767TIP3    H256717   6.636   3.516   5.883  0.1899 -0.2024 -0.0373
11768TIP3   OH256718   0.679   4.518   6.251 -0.0455 -0.0389 -0.1778
11768TIP3    H156719   0.670   4.451   6.182 -1.5456  1.0054 -1.0628
11768TIP3    H256720   0.647   4.475   6.330 -3.2477  0.1988 -1.1671
11769TIP3   OH256721   2.826   0.359  11.628 -0.1773 -0.0438  0.2207
11769TIP3    H156722   2.852   0.301  11.557  1.8468  0.2067  0.6959
11769TIP3    H256723   2.732   0.371  11.617  0.1549  0.4762 -2.7920
11770TIP3   OH256724   5.663   3.856  12.210 -0.3524 -0.3674  0.1334
11770TIP3    H156725   5.686   3.852  12.303 -0.2001  0.8521  0.1713
11770TIP3    H256726   5.608   3.779  12.195  0.7076 -1.3033  0.9103
11771TIP3   OH256727   1.682   3.308  12.331  0.6130 -0.2480  0.0076
11771TIP3    H156728   1.716   3.368  12.265  1.1145  0.3029  0.7490
11771TIP3    H256729   1.719   3.223  12.307  2.0121  0.2196  0.4133
11772TIP3   OH256730   6.390   0.520  15.985 -0.4958 -0.1796  0.0698
11772TIP3    H156731   6.402   0.553  15.896  1.5298  1.1315  0.7803
11772TIP3    H256732   6.321   0.453  15.976 -1.3419  0.8858 -2.2198
11773TIP3   OH256733   6.347   1.263  14.786  0.0786  0.4406  0.0338
11773TIP3    H156734   6.442   1.257  14.790  0.3101  3.1212  0.4975
11773TIP3    H256735   6.328   1.287  14.695 -0.4544 -2.6112 -0.7749
11774TIP3   OH256736   6.379   0.724   3.431 -0.1563  0.1645 -0.3755
11774TIP3    H156737   6.377   0.628   3.440  0.4563  0.1359 -0.5210
11774TIP3    H256738   6.310   0.743   3.368 -1.3332 -0.0432  0.8088
11775TIP3   OH256739   3.138   2.327  12.880 -0.1884  0.3817  0.5952
11775TIP3    H156740   3.172   2.363  12.798  0.2186 -0.6257  0.2969
11775TIP3    H256741   3.044   2.316  12.865 -0.1904  0.6220  0.4307
11776TIP3   OH256742   3.603   5.995  14.891 -0.5515 -0.3339  0.0431
11776TIP3    H156743   3.665   6.012  14.962  1.6392  1.2155 -2.1178
11776TIP3    H256744   3.521   6.032  14.922  0.8581  2.1926  0.9851
11777TIP3   OH256745   4.750   4.378   2.402 -0.1318  0.1681  0.6422
11777TIP3    H156746   4.801   4.426   2.336 -0.3850 -0.3767  0.0407
11777TIP3    H256747   4.662   4.376   2.366 -0.3816  0.2899  1.2398
11778TIP3   OH256748   4.317   5.282  11.637  0.5250  0.1264  0.1639
11778TIP3    H156749   4.383   5.270  11.705  0.6602  2.7477  0.6225
11778TIP3    H256750   4.330   5.372  11.606 -3.4827  1.2550  1.0752
11779TIP3   OH256751   2.643   0.170  11.815  0.0180  0.3552  0.3925
11779TIP3    H156752   2.578   0.114  11.772 -0.4760  0.1340  1.3980
11779TIP3    H256753   2.693   0.209  11.742 -0.9772  0.2278 -0.3879
11780TIP3   OH256754   1.120   0.779   5.440 -0.3485 -0.1380 -0.6274
11780TIP3    H156755   1.079   0.851   5.487  0.3571 -0.8338  1.1660
11780TIP3    H256756   1.129   0.811   5.350 -2.7140  0.8604 -0.5966
11781TIP3   OH256757   3.888   1.449   1.425 -0.2014 -0.3693  0.1994
11781TIP3    H156758   3.900   1.415   1.336 -0.5523 -0.5192  0.2087
11781TIP3    H256759   3.794   1.447   1.439 -0.3676  1.6783 -0.2281
11782TIP3   OH256760   5.987   4.466   2.595 -0.2012  0.1367 -0.0314
11782TIP3    H156761   6.046   4.539   2.576  1.1282 -0.6475  0.8731
11782TIP3    H256762   6.023   4.427   2.675 -0.7334 -1.6488 -0.6131
11783TIP3   OH256763   0.214   6.383   3.880  0.2288  0.3621  0.3420
11783TIP3    H156764   0.285   6.424   3.929  0.7017 -0.1938  0.1339
11783TIP3    H256765   0.135   6.407   3.928  0.6649 -0.0130  1.2750
11784TIP3   OH256766   2.833   6.246  15.339  0.6524 -0.1240  0.0659
11784TIP3    H156767   2.869   6.309  15.402 -0.4805 -0.2281  0.8484
11784TIP3    H256768   2.846   6.161  15.381 -0.5585 -0.1549  0.3931
11785TIP3   OH256769   5.417   1.502  12.887  0.3716 -0.4891  0.1800
11785TIP3    H156770   5.330   1.528  12.917  0.5799 -0.7621  1.0451
11785TIP3    H256771   5.418   1.524  12.794 -0.3237  0.2862  0.3496
11786TIP3   OH256772   1.149   0.566  11.105  0.4132  0.4708  0.6029
11786TIP3    H156773   1.120   0.654  11.129  0.3766  0.6380 -0.0235
11786TIP3    H256774   1.173   0.574  11.012  0.1896 -0.2338  0.4834
11787TIP3   OH256775   1.949   2.459   4.819  0.3987  0.1737 -0.3530
11787TIP3    H156776   1.855   2.472   4.826  0.0799 -0.3283 -2.8030
11787TIP3    H256777   1.985   2.548   4.816 -0.3553  0.4648 -2.5713
11788TIP3   OH256778   4.562   6.719   4.137  0.1937 -0.1040  0.0976
11788TIP3    H156779   4.555   6.689   4.228 -1.2281  1.3801  0.5284
11788TIP3    H256780   4.567   6.815   4.145  0.1143  0.0385 -1.3956
11789TIP3   OH256781   0.886   4.099  11.863 -0.1473 -0.2213  0.4191
11789TIP3    H156782   0.897   4.193  11.849  3.0427 -0.7400 -1.6876
11789TIP3    H256783   0.953   4.077  11.928 -0.8179 -1.0530  0.8442
11790TIP3   OH256784   6.204   4.680  15.514  0.0649  0.3126  0.1531
11790TIP3    H156785   6.187   4.596  15.558  1.2948 -0.2376 -0.3710
11790TIP3    H256786   6.243   4.655  15.430 -1.6105  1.3637 -0.9811
11791TIP3   OH256787   3.111   4.347   3.002 -0.3518 -0.6751  0.1519
11791TIP3    H156788   3.200   4.317   3.020  0.3746  1.1038 -0.3009
11791TIP3    H256789   3.090   4.406   3.075 -0.1425  0.9362 -1.0482
11792TIP3   OH256790   1.931   2.039  12.879  0.1286 -0.1242 -0.3598
11792TIP3    H156791   1.843   2.018  12.848 -0.4892  1.2280  0.3353
11792TIP3    H256792   1.927   2.024  12.974  0.4774  0.4206 -0.2502
11793TIP3   OH256793   1.995   3.119  13.376  0.1099  0.1474  0.4034
11793TIP3    H156794   2.019   3.027  13.380  1.3098  0.3778 -0.8901
11793TIP3    H256795   1.992   3.140  13.282 -4.9304  0.2541  0.2948
11794TIP3   OH256796   0.914   5.069  13.165  0.2749  0.2744  0.4727
11794TIP3    H156797   0.974   5.143  13.158 -0.1527  0.5917  0.1692
11794TIP3    H256798   0.971   4.995  13.190  0.9531  0.3444 -0.7731
11795TIP3   OH256799   3.715   2.549   4.185  0.1893  0.3168 -0.3893
11795TIP3    H156800   3.786   2.515   4.130 -0.4272 -0.8385 -0.5073
11795TIP3    H256801   3.675   2.471   4.223 -1.0857  0.9375 -0.4098
11796TIP3   OH256802   4.508   6.416  12.407 -0.7446  0.1968 -0.1308
11796TIP3    H156803   4.591   6.404  12.453 -0.1332  0.3560 -1.1786
11796TIP3    H256804   4.448   6.354  12.450 -0.3654  0.7816  1.2774
11797TIP3   OH256805   2.679   6.206   5.059  0.7485 -0.1174  0.1582
11797TIP3    H156806   2.707   6.116   5.076  0.0614 -0.3691 -0.0006
11797TIP3    H256807   2.756   6.259   5.076  1.2837 -0.7798 -0.1466
11798TIP3   OH256808   2.652   6.510   2.391 -0.2701  0.2716  0.2063
11798TIP3    H156809   2.672   6.552   2.474  1.5491  0.6588 -0.3757
11798TIP3    H256810   2.673   6.418   2.405 -1.0862  0.1319  0.5153
11799TIP3   OH256811   1.533   1.304   0.946 -0.0978  0.3415  0.4721
11799TIP3    H156812   1.606   1.250   0.915  0.2359  1.1968 -0.2607
11799TIP3    H256813   1.568   1.351   1.021 -0.3285 -0.2874  0.9861
11800TIP3   OH256814   4.766   6.542   4.642 -0.1046  0.2040 -0.4474
11800TIP3    H156815   4.812   6.554   4.559  0.7594  0.6531  0.0821
11800TIP3    H256816   4.808   6.467   4.682 -1.0119 -0.4737 -0.7259
11801TIP3   OH256817   0.443   4.559  11.813 -0.3684 -0.2381 -0.1023
11801TIP3    H156818   0.423   4.497  11.743 -1.2375 -0.0317 -0.0438
11801TIP3    H256819   0.489   4.631  11.770  0.4698 -0.8253 -0.2022
11802TIP3   OH256820   3.712   0.817  14.089  0.1453  0.1926  0.6146
11802TIP3    H156821   3.786   0.823  14.150 -0.0516 -1.8539  1.1454
11802TIP3    H256822   3.746   0.764  14.016 -1.3488 -2.9141  1.9716
11803TIP3   OH256823   1.759   0.911  13.746  0.8429 -0.3741  0.6133
11803TIP3    H156824   1.685   0.972  13.749  1.3201  0.5595 -2.5253
11803TIP3    H256825   1.724   0.833  13.703  1.5136 -0.0571 -0.5753
11804TIP3   OH256826   4.962   4.852  15.971 -0.5975 -0.4580  0.1153
11804TIP3    H156827   4.902   4.865  16.045 -0.3314 -1.4231  0.5194
11804TIP3    H256828   5.032   4.798  16.007  0.4996  0.6087 -0.3737
11805TIP3   OH256829   4.862   0.017  11.868 -0.5340 -0.9606  0.4633
11805TIP3    H156830   4.816   0.038  11.786 -0.1963  0.1591  0.5401
11805TIP3    H256831   4.828   0.081  11.931 -1.9487 -2.7813  1.6498
11806TIP3   OH256832   5.794   3.954  16.984  0.4679  0.9874  0.4102
11806TIP3    H156833   5.875   3.904  16.985  0.9321  1.6975 -0.6292
11806TIP3    H256834   5.771   3.962  16.892 -0.2663  1.6196  0.6326
11807TIP3   OH256835   0.747   4.396   5.452 -0.1147 -0.2866  0.3706
11807TIP3    H156836   0.836   4.406   5.419 -0.2418  0.3403  0.2092
11807TIP3    H256837   0.752   4.322   5.513 -0.1841 -2.5083 -2.1422
11808TIP3   OH256838   3.031   2.503   5.498  0.1433 -0.4038 -0.2394
11808TIP3    H156839   3.120   2.498   5.533  0.1887 -0.2881 -0.3370
11808TIP3    H256840   2.996   2.586   5.531  0.5831  0.2695 -1.3761
11809TIP3   OH256841   4.975   5.894   3.317 -0.1524 -0.0407  0.5275
11809TIP3    H156842   4.982   5.982   3.279  1.0573  0.7999  2.5045
11809TIP3    H256843   4.915   5.905   3.391  0.4853 -0.7029  1.1635
11810TIP3   OH256844   6.415   5.977  13.486  0.0674 -0.0183  0.2162
11810TIP3    H156845   6.471   5.928  13.425  1.4197 -0.1591  1.5146
11810TIP3    H256846   6.329   5.938  13.475  0.5662 -0.9508 -0.6344
11811TIP3   OH256847   2.740   6.719   5.136  0.0717  0.4344 -0.7244
11811TIP3    H156848   2.711   6.679   5.054 -0.1745  1.4998 -1.1766
11811TIP3    H256849   2.666   6.705   5.196  0.1893 -0.2098 -0.7221
11812TIP3   OH256850   2.152   6.024   5.239  0.0867  0.4136 -0.1856
11812TIP3    H156851   2.143   6.001   5.332 -1.7385  0.2982 -0.3641
11812TIP3    H256852   2.122   6.115   5.234 -1.9576 -0.2351 -0.9491
11813TIP3   OH256853   6.029   0.221   3.137 -0.3038 -0.0077  0.5721
11813TIP3    H156854   6.012   0.131   3.111 -1.5017  0.2495  0.4157
11813TIP3    H256855   5.942   0.261   3.143  0.2675  1.8699 -1.9683
11814TIP3   OH256856   4.487   4.483  13.511  0.6065  0.2334  0.0407
11814TIP3    H156857   4.524   4.545  13.574 -0.4034  0.0622  0.8312
11814TIP3    H256858   4.402   4.459  13.549 -0.2322  0.4620 -1.6020
11815TIP3   OH256859   6.398   6.697   0.942  0.4217 -0.2110  0.6154
11815TIP3    H156860   6.341   6.765   0.978 -0.9541 -0.3868 -1.1367
11815TIP3    H256861   6.359   6.615   0.971  0.9387 -0.3098  1.0538
11816TIP3   OH256862   5.536   3.057   1.112 -0.2582 -0.5906  0.1419
11816TIP3    H156863   5.472   3.128   1.124 -1.2565 -1.2263 -1.0806
11816TIP3    H256864   5.621   3.097   1.130 -0.9434  0.4633  1.1552
11817TIP3   OH256865   6.272   0.709  14.658  0.5919 -0.3534  0.1620
11817TIP3    H156866   6.210   0.717  14.731 -1.6754 -1.1125 -1.5732
11817TIP3    H256867   6.351   0.754  14.689  0.0216 -1.2620  3.3494
11818TIP3   OH256868   4.826   3.854  14.641  0.1255 -0.4812  0.2976
11818TIP3    H156869   4.805   3.792  14.711 -0.8370 -0.0302  0.4204
11818TIP3    H256870   4.904   3.899  14.672  0.0871 -0.7428  0.7844
11819TIP3   OH256871   3.068   1.749   1.658 -0.2010  0.0449 -0.0738
11819TIP3    H156872   3.095   1.827   1.610  0.1336 -0.7674 -1.2603
11819TIP3    H256873   2.972   1.751   1.655 -0.3047  1.4795  1.7538
11820TIP3   OH256874   0.265   3.076   1.445  0.0682 -0.1738 -0.0224
11820TIP3    H156875   0.272   3.097   1.538  0.2341  1.1105 -0.3062
11820TIP3    H256876   0.171   3.064   1.430 -0.0966  0.9094  0.0633
11821TIP3   OH256877   6.765   0.368  10.720 -0.3328 -0.0118  0.3648
11821TIP3    H156878   6.832   0.304  10.745  0.6623  1.1244  0.7066
11821TIP3    H256879   6.683   0.327  10.744  0.4322  0.1804  3.8395
11822TIP3   OH256880   2.279   5.753   4.433  0.1939  0.1237 -0.1554
11822TIP3    H156881   2.263   5.746   4.527 -0.2484  0.0449 -0.2341
11822TIP3    H256882   2.213   5.814   4.401  1.5151  1.6287 -0.1258
11823TIP3   OH256883   5.252   4.986  16.547 -0.4917 -0.0057 -0.4014
11823TIP3    H156884   5.242   4.899  16.509 -2.2120 -0.2756  0.6052
11823TIP3    H256885   5.314   4.974  16.619 -1.2317 -0.5375  0.1528
11824TIP3   OH256886   5.737   2.252  12.703  0.2480  0.1605 -0.1825
11824TIP3    H156887   5.641   2.254  12.702  0.2053 -1.0854 -1.1223
11824TIP3    H256888   5.764   2.335  12.665 -0.4764  0.0086 -1.0486
11825TIP3   OH256889   5.128   1.556   2.774 -0.4813  0.5774  0.1368
11825TIP3    H156890   5.097   1.465   2.778  1.3974 -0.1245 -0.2048
11825TIP3    H256891   5.053   1.608   2.803 -1.6618 -1.0620  0.1871
11826TIP3   OH256892   1.840   1.538  14.564  0.0750  0.2015 -0.3401
11826TIP3    H156893   1.925   1.497  14.549  0.3590  0.8492 -0.5364
11826TIP3    H256894   1.849   1.626  14.527 -0.6429  0.3146 -0.2612
11827TIP3   OH256895   4.733   2.494  10.858 -0.5227  0.2676  0.0636
11827TIP3    H156896   4.792   2.492  10.933 -0.9170 -2.3630  0.4168
11827TIP3    H256897   4.790   2.486  10.782 -0.3009 -0.3259  0.2880
11828TIP3   OH256898   1.145   6.615   2.435 -0.1010 -0.0762  0.4299
11828TIP3    H156899   1.212   6.650   2.493 -1.0211  0.0792  1.4395
11828TIP3    H256900   1.062   6.646   2.473 -0.8035 -1.1507 -0.1712
11829TIP3   OH256901   4.685   5.673  15.312  0.3598  0.5007  0.3450
11829TIP3    H156902   4.724   5.598  15.356 -1.8358 -0.3993  0.8909
11829TIP3    H256903   4.691   5.745  15.376  0.9893  0.3539  0.4542
11830TIP3   OH256904   3.013   2.732   3.407 -0.2211 -0.2849  0.2642
11830TIP3    H156905   2.924   2.759   3.388  0.5716  2.0434 -0.5297
11830TIP3    H256906   3.047   2.800   3.465  1.3375 -0.5339 -0.2893
11831TIP3   OH256907   5.289   3.432   0.739 -0.2786  0.6414 -0.3263
11831TIP3    H156908   5.341   3.420   0.818  0.9340 -2.7153 -1.4494
11831TIP3    H256909   5.338   3.495   0.687  0.9823 -0.0083  0.0317
11832TIP3   OH256910   5.938   2.797   5.280  0.1140  0.2090  0.3154
11832TIP3    H156911   5.981   2.714   5.262 -1.4819 -1.4210  3.2431
11832TIP3    H256912   6.002   2.847   5.331  1.1173  0.8909 -1.5424
11833TIP3   OH256913   4.986   6.386   0.463 -0.3911  0.5582  0.1293
11833TIP3    H156914   4.968   6.314   0.524 -0.0163 -0.9920 -1.5280
11833TIP3    H256915   4.917   6.451   0.482 -3.8628 -2.2874 -1.4819
11834TIP3   OH256916   3.359   5.774  15.686 -0.3251  0.3412 -0.3761
11834TIP3    H156917   3.374   5.840  15.753  0.0950  1.3905 -1.4622
11834TIP3    H256918   3.369   5.821  15.603  0.5524 -1.2022 -1.2006
11835TIP3   OH256919   2.339   5.068   4.216 -0.0626  0.0536 -0.1158
11835TIP3    H156920   2.276   5.098   4.150 -0.5894  1.5367  0.9959
11835TIP3    H256921   2.286   5.017   4.277 -0.3994  1.8273  1.1671
11836TIP3   OH256922   5.076   4.004   0.407 -0.2957  0.5563  0.1080
11836TIP3    H156923   5.144   4.043   0.352  0.0028 -1.5155 -1.0576
11836TIP3    H256924   5.123   3.966   0.481 -0.2564 -0.2592 -0.3336
11837TIP3   OH256925   5.447   5.175  16.160  0.3243 -0.4732 -0.0421
11837TIP3    H156926   5.497   5.108  16.112 -0.5400 -0.4805 -0.9622
11837TIP3    H256927   5.446   5.144  16.250 -0.6676 -2.0895 -0.5734
11838TIP3   OH256928   3.130   5.624   3.472 -0.2168  0.4813  0.1553
11838TIP3    H156929   3.099   5.551   3.419  1.7154 -0.3524  0.0834
11838TIP3    H256930   3.063   5.635   3.539 -0.3352 -1.6848  0.4615
11839TIP3   OH256931   1.939   4.528  14.743 -0.3369  0.1684  0.0446
11839TIP3    H156932   1.862   4.507  14.692  0.2673  1.8099 -1.6599
11839TIP3    H256933   1.916   4.503  14.833 -1.3422 -3.0428 -0.9627
11840TIP3   OH256934   4.975   2.855  12.175 -0.6390  0.4464 -0.2562
11840TIP3    H156935   4.994   2.827  12.085  4.0780  0.8036  0.3592
11840TIP3    H256936   4.978   2.774  12.226  0.1599  0.6054 -0.0386
11841TIP3   OH256937   0.426   5.212   4.593 -0.3609  0.5662 -0.4390
11841TIP3    H156938   0.375   5.293   4.591  1.4654  2.0289  2.8363
11841TIP3    H256939   0.512   5.239   4.626  0.2416 -2.7176  1.1350
11842TIP3   OH256940   0.444   0.024  15.351 -0.0460 -0.1183 -0.7438
11842TIP3    H156941   0.522  -0.029  15.336 -0.4287 -1.4382  1.4109
11842TIP3    H256942   0.372  -0.039  15.353 -0.7663  0.6966  0.0953
11843TIP3   OH256943   0.888   1.241   1.685  0.0570  0.2468  0.8044
11843TIP3    H156944   0.843   1.300   1.625  0.0389 -1.3872 -0.8734
11843TIP3    H256945   0.966   1.213   1.637  0.7818 -0.0608  2.1032
11844TIP3   OH256946   5.441   1.996   4.249 -0.5099 -0.0704  0.7816
11844TIP3    H156947   5.354   2.036   4.261 -0.2812  1.0978 -1.0390
11844TIP3    H256948   5.442   1.969   4.157  0.1544 -2.4359  1.4162
11845TIP3   OH256949   2.459   3.509  11.072 -0.4673 -0.2062 -0.2043
11845TIP3    H156950   2.480   3.498  11.165  2.2164  1.2829 -0.5214
11845TIP3    H256951   2.365   3.491  11.066 -0.6053 -0.9208  2.6775
11846TIP3   OH256952   6.739   4.148  16.547 -0.1093  0.4352 -0.3787
11846TIP3    H156953   6.706   4.092  16.477 -1.3878 -1.6419  1.7718
11846TIP3    H256954   6.673   4.217  16.555  0.0794  0.7293 -1.1996
11847TIP3   OH256955   6.252   1.761   4.099  0.3061  0.5065 -0.3048
11847TIP3    H156956   6.312   1.829   4.068  1.5709  0.2790  1.5400
11847TIP3    H256957   6.308   1.693   4.136 -1.0372 -0.3763  0.2028
11848TIP3   OH256958   5.007   3.540   0.712  0.2145  0.2835  0.0093
11848TIP3    H156959   5.098   3.547   0.683  0.3713  0.4235  0.5245
11848TIP3    H256960   4.999   3.450   0.745 -0.0734 -0.0048 -0.8208
11849TIP3   OH256961   2.204   2.444  14.399 -0.0348 -0.0762 -0.0253
11849TIP3    H156962   2.280   2.481  14.353 -2.1533  0.2222 -3.6580
11849TIP3    H256963   2.235   2.359  14.431  2.2819  0.7630  0.1649
11850TIP3   OH256964   2.780   4.001   2.023 -0.2635  0.3856 -0.7271
11850TIP3    H156965   2.820   4.088   2.030  1.4446 -0.2272 -2.0297
11850TIP3    H256966   2.777   3.984   1.929 -1.1733 -0.7093 -0.5178
11851TIP3   OH256967   1.189   3.972  15.018 -0.1785  0.0362  0.5074
11851TIP3    H156968   1.247   3.904  15.051 -0.2883  0.2711  1.1972
11851TIP3    H256969   1.129   3.990  15.091 -0.5027  0.4772  0.1379
11852TIP3   OH256970   5.669   2.982   2.539  0.1846 -0.5865 -0.1158
11852TIP3    H156971   5.693   3.056   2.595 -1.5455 -0.5686  0.6684
11852TIP3    H256972   5.745   2.924   2.541  1.8110  1.3751 -1.1917
11853TIP3   OH256973   6.179   2.790  10.848 -0.9007 -0.4747  0.0629
11853TIP3    H156974   6.139   2.716  10.801 -1.1720 -0.0693 -0.3523
11853TIP3    H256975   6.104   2.842  10.878 -0.7260 -0.6505  0.8293
11854TIP3   OH256976   5.069   5.952   4.820 -0.1818  0.2804 -0.1247
11854TIP3    H156977   5.012   5.887   4.861 -0.6651 -1.4071 -3.1873
11854TIP3    H256978   5.027   6.036   4.838  0.0447 -0.1961  3.2650
11855TIP3   OH256979   3.604   6.790   2.610 -0.2961  0.1453  0.5400
11855TIP3    H156980   3.513   6.814   2.625 -0.3205 -1.1227  2.7730
11855TIP3    H256981   3.616   6.708   2.658  2.2061  0.6623  0.9406
11856TIP3   OH256982   6.764   3.054  14.525  0.1317 -0.3037 -0.5187
11856TIP3    H156983   6.691   2.994  14.509  0.2249 -0.6197  0.2049
11856TIP3    H256984   6.761   3.071  14.619  1.6133 -1.1453 -0.2829
11857TIP3   OH256985   5.487   5.954  10.239 -0.5741  0.2291 -0.3680
11857TIP3    H156986   5.561   5.974  10.298 -0.2387  0.8316 -0.9841
11857TIP3    H256987   5.503   5.864  10.211 -0.8070 -0.1159  0.5537
11858TIP3   OH256988   0.403   2.794   5.236  0.9965  0.2568  0.8278
11858TIP3    H156989   0.388   2.708   5.275  1.6666  1.1194  3.1504
11858TIP3    H256990   0.497   2.809   5.245  1.1524  0.5895 -1.0289
11859TIP3   OH256991   6.208   4.562   0.772  0.2653 -0.1358 -0.2198
11859TIP3    H156992   6.296   4.590   0.797  0.4814 -1.2386  0.2993
11859TIP3    H256993   6.222   4.484   0.719 -0.3970 -0.2488 -0.2300
11860TIP3   OH256994   1.273   5.634  14.138  0.3696  0.6901  0.0112
11860TIP3    H156995   1.262   5.729  14.142 -0.5789  0.6295 -0.8630
11860TIP3    H256996   1.189   5.599  14.169  0.0863  0.1675 -1.2600
11861TIP3   OH256997   0.529   4.939   1.530  0.4969  0.0473  0.7207
11861TIP3    H156998   0.613   4.928   1.485  0.0596  0.5319 -0.2317
11861TIP3    H256999   0.553   4.963   1.620  1.3934  1.7642  0.0722
11862TIP3   OH257000   6.115   5.844   5.926 -0.1437  0.4643  0.3421
11862TIP3    H157001   6.066   5.885   5.855  0.7831 -1.4207 -1.5207
11862TIP3    H257002   6.193   5.808   5.883  0.5888 -0.5508  2.3830
11863TIP3   OH257003   2.032   4.503  13.423 -0.0429 -0.9293  0.4895
11863TIP3    H157004   1.958   4.444  13.436 -1.0735  0.1934 -0.0351
11863TIP3    H257005   1.992   4.590  13.416  1.3893 -0.2097  0.8591
11864TIP3   OH257006   1.612   1.801   4.433 -0.1664 -0.4435  0.5210
11864TIP3    H157007   1.519   1.781   4.447 -0.4326  0.8204  0.6984
11864TIP3    H257008   1.658   1.723   4.463 -1.0159  0.0801  3.4918
11865TIP3   OH257009   5.587   0.349   6.282 -0.1415  0.3040  0.1228
11865TIP3    H157010   5.586   0.259   6.314  0.7434  0.3938  0.4369
11865TIP3    H257011   5.526   0.349   6.208  2.1093 -1.3058 -1.8720
11866TIP3   OH257012   1.956   6.569  11.216  0.1720  0.0791 -0.3448
11866TIP3    H157013   2.019   6.549  11.147  0.8104  0.3219  0.1554
11866TIP3    H257014   1.920   6.654  11.191  0.8982  0.4851 -0.0339
11867TIP3   OH257015   2.818   6.230   0.362  0.1285 -0.6717  0.5492
11867TIP3    H157016   2.823   6.314   0.408 -0.3467  1.1622 -2.4686
11867TIP3    H257017   2.727   6.202   0.373 -0.3162  0.3882 -0.2153
11868TIP3   OH257018   5.655   0.912  14.474  0.1548 -0.1793 -0.2541
11868TIP3    H157019   5.683   1.000  14.499 -0.9478  0.2242 -0.3860
11868TIP3    H257020   5.659   0.912  14.378  0.4819 -0.3882 -0.2409
11869TIP3   OH257021   1.137   6.182  16.539  0.2990  0.5920 -0.4321
11869TIP3    H157022   1.188   6.239  16.596 -1.4572  0.7596  1.0676
11869TIP3    H257023   1.055   6.168  16.586  0.1963 -2.2638 -1.2660
11870TIP3   OH257024   2.477   3.069  16.363 -0.4518  0.1979  0.2933
11870TIP3    H157025   2.471   3.061  16.268 -0.8119 -0.9223  0.3974
11870TIP3    H257026   2.569   3.087  16.380 -0.3202  0.0452 -0.2420
11871TIP3   OH257027   5.426   2.161  17.061  0.4457 -0.2100  0.2627
11871TIP3    H157028   5.354   2.223  17.072  0.2516 -0.3114 -0.4060
11871TIP3    H257029   5.387   2.075  17.071  0.6722 -0.2412  0.9472
11872TIP3   OH257030   2.459   4.109  11.837 -0.0406 -0.3154 -0.5720
11872TIP3    H157031   2.550   4.086  11.816 -0.0204 -0.4621 -0.3252
11872TIP3    H257032   2.466   4.161  11.917 -0.3041 -1.7263  0.4037
11873TIP3   OH257033   3.272   6.470  10.635  0.1503 -0.1633  0.3542
11873TIP3    H157034   3.250   6.394  10.688 -0.1123 -0.2586  0.1171
11873TIP3    H257035   3.366   6.463  10.619  0.0392 -0.7218 -0.0950
11874TIP3   OH257036   5.202   2.650  16.012  0.1374 -0.1866  0.0816
11874TIP3    H157037   5.145   2.612  15.945  0.8632 -0.8546 -0.1731
11874TIP3    H257038   5.185   2.598  16.091  1.9232 -1.8348 -0.5433
11875TIP3   OH257039   4.532   0.675   0.561  0.3780 -0.3341 -0.1809
11875TIP3    H157040   4.532   0.755   0.508  2.0188 -1.2571 -1.7013
11875TIP3    H257041   4.547   0.706   0.650  0.7117  1.0832 -0.6991
11876TIP3   OH257042   1.205   6.234   1.193  0.2356  0.4486 -0.0669
11876TIP3    H157043   1.244   6.148   1.206 -1.3316  0.0299  2.4532
11876TIP3    H257044   1.266   6.294   1.237  0.2120  0.3457  0.1066
11877TIP3   OH257045   0.749   3.755  15.176  0.4087  0.0907  0.2957
11877TIP3    H157046   0.759   3.818  15.105 -1.3498  1.8913  1.5242
11877TIP3    H257047   0.700   3.803  15.243 -0.0782 -2.2879  1.7407
11878TIP3   OH257048   2.009   4.781   5.910  0.2270  0.2867 -0.0447
11878TIP3    H157049   2.076   4.793   5.843  0.0259 -0.0585 -0.3086
11878TIP3    H257050   2.059   4.778   5.992  0.5057  0.3606 -0.2086
11879TIP3   OH257051   3.039   0.701   3.844 -0.5622  0.2876  0.3326
11879TIP3    H157052   3.115   0.665   3.890 -1.0089 -3.6391 -1.6046
11879TIP3    H257053   2.964   0.671   3.897 -0.9154 -1.2303 -0.9486
11880TIP3   OH257054   0.852   5.134   3.428  0.5410 -0.3000  0.0543
11880TIP3    H157055   0.904   5.074   3.375  0.4661 -0.8255  0.5581
11880TIP3    H257056   0.904   5.214   3.433  0.3641 -0.0884 -1.1379
11881TIP3   OH257057   5.624   3.293  10.681 -0.1982 -0.0337 -0.4410
11881TIP3    H157058   5.566   3.351  10.631  0.4474  2.1943  1.2361
11881TIP3    H257059   5.709   3.301  10.637 -0.0423  0.5319 -0.0414
11882TIP3   OH257060   3.693   1.428  10.407  0.5647 -0.0063  0.6278
11882TIP3    H157061   3.773   1.397  10.449  0.5374  0.7763  1.2741
11882TIP3    H257062   3.679   1.515  10.443  0.1861  0.4292 -0.5328
11883TIP3   OH257063   4.206   3.181   4.195 -0.2184  0.0563 -0.1757
11883TIP3    H157064   4.259   3.135   4.260  0.0001 -0.3328 -0.6184
11883TIP3    H257065   4.133   3.122   4.178 -1.2146  0.9102  0.9705
11884TIP3   OH257066   4.006   6.020  14.665  0.3609 -0.0569  0.1179
11884TIP3    H157067   3.961   6.097  14.700  1.0920  0.8114 -0.7889
11884TIP3    H257068   4.091   6.020  14.709  0.9860  0.6023 -1.0382
11885TIP3   OH257069   4.469   3.353   0.293 -0.3191 -1.1270 -0.0337
11885TIP3    H157070   4.490   3.267   0.329  0.1917 -1.0505 -0.1404
11885TIP3    H257071   4.510   3.415   0.353 -1.2536 -0.9230  0.4265
11886TIP3   OH257072   1.737   3.171  14.876 -0.2032 -0.0153 -0.2114
11886TIP3    H157073   1.764   3.251  14.921  2.2534 -1.6272  1.4079
11886TIP3    H257074   1.786   3.172  14.794 -1.3436  0.8051 -0.9183
11887TIP3   OH257075   3.944   3.118  13.815  0.0967  0.2858 -0.0055
11887TIP3    H157076   3.952   3.198  13.868  2.7472 -1.4165  2.4952
11887TIP3    H257077   4.019   3.121  13.756  0.3123 -0.4093  0.2265
11888TIP3   OH257078   4.857   5.653  10.762  0.0056  0.4272  0.2450
11888TIP3    H157079   4.904   5.571  10.753  0.1456  0.3462  1.5246
11888TIP3    H257080   4.765   5.631  10.744  0.1051  0.0785  0.1617
11889TIP3   OH257081   4.083   1.322  15.558 -0.1172 -0.3373 -0.1669
11889TIP3    H157082   4.088   1.417  15.550  0.5809 -0.4384 -1.0474
11889TIP3    H257083   3.995   1.300  15.526  0.0319 -0.0619 -0.7863
11890TIP3   OH257084   2.732   2.744   5.043  0.6185  0.1132  0.2034
11890TIP3    H157085   2.679   2.810   4.999  0.2623 -0.5281 -0.3585
11890TIP3    H257086   2.806   2.792   5.079  1.6480  0.5307 -2.2356
11891TIP3   OH257087   4.947   2.126   1.737  1.1149 -0.0725 -0.0043
11891TIP3    H157088   4.864   2.148   1.780  1.2644 -0.4388  0.4673
11891TIP3    H257089   5.014   2.160   1.796  1.3054  0.6088 -0.5912
11892TIP3   OH257090   4.744   2.187   4.142 -0.1323 -0.1902  0.3730
11892TIP3    H157091   4.703   2.271   4.163 -1.0741 -0.2188 -1.2162
11892TIP3    H257092   4.838   2.202   4.152 -0.2780  1.1323 -0.1541
11893TIP3   OH257093   0.822   1.750   1.434 -0.6205  0.0151 -0.5728
11893TIP3    H157094   0.734   1.754   1.471 -0.5345  0.6919 -0.4149
11893TIP3    H257095   0.828   1.664   1.393 -1.7047  0.3333 -1.4592
11894TIP3   OH257096   2.744   0.725   5.646 -0.1011  0.4432 -0.1352
11894TIP3    H157097   2.818   0.713   5.705  0.7370  0.5158 -1.1498
11894TIP3    H257098   2.722   0.637   5.617 -1.2617  0.2778  1.1392
11895TIP3   OH257099   6.274   1.804   5.720  0.4855 -0.0552 -0.6580
11895TIP3    H157100   6.185   1.822   5.690  0.4276 -0.1827 -0.5615
11895TIP3    H257101   6.279   1.709   5.726  0.3884 -0.0125  0.0833
11896TIP3   OH257102   5.527   3.145  12.030  0.5795  0.2936 -0.7375
11896TIP3    H157103   5.584   3.105  12.096  0.4356  1.0925 -0.1080
11896TIP3    H257104   5.455   3.083  12.020  0.5361  0.2209 -0.0459
11897TIP3   OH257105   3.056   6.569  12.108  0.1953  0.0627  0.0772
11897TIP3    H157106   3.081   6.645  12.055 -1.3191 -0.3234 -1.2783
11897TIP3    H257107   3.014   6.510  12.046  0.3350 -1.4019  1.3294
11898TIP3   OH257108   6.058   6.739  11.078 -0.4359  0.1819  0.2353
11898TIP3    H157109   6.062   6.644  11.091 -1.0762  0.3657  2.1501
11898TIP3    H257110   6.083   6.752  10.987 -1.8269 -1.9576 -0.5296
11899TIP3   OH257111   6.664   4.738  14.195  0.5512  0.1065  0.4320
11899TIP3    H157112   6.710   4.689  14.264  0.8423 -0.3941 -0.1106
11899TIP3    H257113   6.621   4.670  14.143  0.6510  0.4559 -0.1052
11900TIP3   OH257114   1.447   4.626  12.582  0.0695  0.4949  0.4526
11900TIP3    H157115   1.385   4.689  12.619  2.6362  3.5617 -0.0017
11900TIP3    H257116   1.406   4.599  12.499 -0.2473  3.4682 -0.5034
11901TIP3   OH257117   2.315   1.240  10.724 -0.1147  0.3661  0.3777
11901TIP3    H157118   2.409   1.220  10.718  0.3848  2.6253  0.0445
11901TIP3    H257119   2.272   1.156  10.707  1.8297 -1.4737  3.5842
11902TIP3   OH257120   6.312   0.529  12.460 -0.1126  0.5113 -0.1221
11902TIP3    H157121   6.278   0.590  12.394  0.0862  0.4955 -0.2384
11902TIP3    H257122   6.276   0.563  12.543 -0.9905  0.0893 -0.3142
11903TIP3   OH257123   5.137   1.505  12.872  0.4448 -1.1952 -0.1944
11903TIP3    H157124   5.048   1.484  12.903  0.8718 -0.6800  1.4834
11903TIP3    H257125   5.126   1.586  12.822  0.3014  0.5280  2.4321
11904TIP3   OH257126   2.368   0.602   5.230  0.4534 -0.4647 -0.3354
11904TIP3    H157127   2.459   0.573   5.223  0.7608  0.6549 -1.3191
11904TIP3    H257128   2.357   0.624   5.322  1.5066  0.3648 -0.3812
11905TIP3   OH257129   6.751   1.924  12.935  0.1595 -0.0328  0.4239
11905TIP3    H157130   6.817   1.939  12.868  0.3872  1.1251  0.8771
11905TIP3    H257131   6.802   1.909  13.015 -0.1194 -0.5355  0.5117
11906TIP3   OH257132   5.832   3.229  17.083 -0.4546 -0.2165 -0.0588
11906TIP3    H157133   5.901   3.248  17.019 -0.5397 -1.6237 -0.5787
11906TIP3    H257134   5.878   3.229  17.167  0.3757 -1.9112 -0.4681
11907TIP3   OH257135   2.349   6.331  14.189  0.1938 -0.6969  0.1840
11907TIP3    H157136   2.257   6.313  14.209 -0.7072  2.4564 -0.5399
11907TIP3    H257137   2.374   6.400  14.251  1.3421  0.0409 -1.0486
11908TIP3   OH257138   1.389   3.578  12.074 -0.0234  0.4880 -0.3838
11908TIP3    H157139   1.310   3.544  12.115 -0.2777 -0.0373 -1.2829
11908TIP3    H257140   1.449   3.594  12.146 -0.2592 -0.9214  0.1541
11909TIP3   OH257141   2.470   6.230  15.032  0.3917  0.4513 -0.0952
11909TIP3    H157142   2.479   6.181  14.950  0.3416  1.3010 -0.6238
11909TIP3    H257143   2.505   6.317  15.012 -1.2636  1.2346  0.2438
11910TIP3   OH257144   2.848   0.664  12.079 -0.0393 -0.2681  0.2782
11910TIP3    H157145   2.799   0.641  12.158 -1.3442 -1.3075 -0.7860
11910TIP3    H257146   2.810   0.747  12.051  1.0402  0.5758  1.1868
11911TIP3   OH257147   0.980   1.133  16.457  0.8802  0.7317 -0.5199
11911TIP3    H157148   0.956   1.064  16.518 -1.3786  0.7167 -1.3080
11911TIP3    H257149   0.942   1.105  16.373 -0.2362  2.9416 -0.8351
11912TIP3   OH257150   5.810   3.051  11.081 -1.1297 -0.0200 -0.1055
11912TIP3    H157151   5.862   3.008  11.149  0.0453  0.3529 -0.7279
11912TIP3    H257152   5.742   3.098  11.128 -0.0878  0.5647  0.8664
11913TIP3   OH257153   4.879   3.561   0.019 -0.0365 -0.4750  0.3710
11913TIP3    H157154   4.825   3.621  -0.033 -0.3626  1.1012  2.3904
11913TIP3    H257155   4.934   3.517  -0.045  0.4754  2.2574 -1.2397
11914TIP3   OH257156   5.508   4.076   0.692 -0.3966 -0.3077  0.1293
11914TIP3    H157157   5.517   4.040   0.780 -1.7904 -1.5722 -0.2081
11914TIP3    H257158   5.481   4.167   0.706 -0.2987 -0.4063  1.0097
11915TIP3   OH257159   4.411   1.779   2.942 -0.0428 -0.3152 -0.6104
11915TIP3    H157160   4.474   1.819   3.003 -1.4901  0.7877  0.2338
11915TIP3    H257161   4.329   1.826   2.959 -1.4633 -2.6377 -0.6897
11916TIP3   OH257162   5.182   1.120  10.785  0.1178  0.0543  0.0485
11916TIP3    H157163   5.154   1.194  10.839  1.0329 -0.5455  1.4025
11916TIP3    H257164   5.115   1.053  10.802  1.1969 -0.6715  1.7062
11917TIP3   OH257165   1.505   5.206   0.601 -0.2321  0.0687 -0.1319
11917TIP3    H157166   1.503   5.198   0.506 -1.2357 -0.9314 -0.0487
11917TIP3    H257167   1.531   5.119   0.632 -0.8656  0.1036  0.5323
11918TIP3   OH257168   3.426   0.325  15.669 -0.1266 -0.2063  0.0337
11918TIP3    H157169   3.441   0.344  15.761 -2.2876 -1.6895  0.7614
11918TIP3    H257170   3.442   0.231  15.660 -1.2594 -0.3523 -0.7750
11919TIP3   OH257171   3.102   3.658  12.028  0.2030 -0.0345 -0.4215
11919TIP3    H157172   3.007   3.665  12.017  0.0819 -0.3853  0.3394
11919TIP3    H257173   3.116   3.676  12.121  0.8437 -0.3677 -0.4544
11920TIP3   OH257174   5.055   3.876  16.029 -0.4389  0.6433  0.0475
11920TIP3    H157175   5.025   3.897  16.117 -1.1778 -0.2597  0.0243
11920TIP3    H257176   5.151   3.875  16.036 -0.4932 -0.6863  1.1669
11921TIP3   OH257177   6.690   2.477   3.540  0.1143  0.2360 -0.6197
11921TIP3    H157178   6.739   2.502   3.461  0.8272  3.3019  0.6208
11921TIP3    H257179   6.756   2.472   3.609 -0.7173 -0.6572  0.1387
11922TIP3   OH257180   5.032   3.345   3.963 -0.4683  0.0572  0.6648
11922TIP3    H157181   4.957   3.328   3.907  0.3335 -0.9829 -0.1339
11922TIP3    H257182   5.026   3.438   3.985 -1.7612  0.0708  0.3024
11923TIP3   OH257183   2.363   0.012   2.019 -0.3776 -0.2787 -0.0405
11923TIP3    H157184   2.272  -0.001   1.993 -0.6420  0.7795  0.2692
11923TIP3    H257185   2.382   0.103   1.994  0.7171 -0.6009 -0.4473
11924TIP3   OH257186   4.302   2.040   1.542 -0.4103  0.1867 -0.1420
11924TIP3    H157187   4.311   1.965   1.483  2.2510 -1.2370  1.8098
11924TIP3    H257188   4.243   2.010   1.611  0.3365 -0.0012  0.4290
11925TIP3   OH257189   2.218   3.674  11.924  0.1699  0.0080 -0.4662
11925TIP3    H157190   2.274   3.752  11.922 -0.7467  0.6776 -0.9630
11925TIP3    H257191   2.199   3.655  11.832 -0.5805 -0.0712 -0.3065
11926TIP3   OH257192   3.281   3.761  14.609  0.0066  0.4956  0.6659
11926TIP3    H157193   3.231   3.717  14.678 -1.1938  0.2333 -0.3387
11926TIP3    H257194   3.335   3.825  14.656  0.1546 -0.5140  1.9483
11927TIP3   OH257195   5.508   4.545   1.558 -0.0045 -0.1320 -0.0340
11927TIP3    H157196   5.564   4.594   1.498  1.1291 -1.8675 -0.4753
11927TIP3    H257197   5.499   4.601   1.634 -2.0156  2.4429 -1.9921
11928TIP3   OH257198   3.026   5.403  12.458  0.0313  0.0582 -0.1893
11928TIP3    H157199   2.954   5.461  12.482 -0.2849  0.0656 -1.1174
11928TIP3    H257200   3.088   5.460  12.412  2.8623  1.1618  4.2893
11929TIP3   OH257201   2.487   3.833  16.129 -0.1493 -0.2761  0.0969
11929TIP3    H157202   2.510   3.923  16.104  1.8574 -0.6232  0.4700
11929TIP3    H257203   2.405   3.842  16.177 -0.7016  1.1738 -1.0170
11930TIP3   OH257204   4.884   3.113   4.520  0.1003  0.1068  0.0598
11930TIP3    H157205   4.854   3.026   4.548  0.3375  0.1390  0.4259
11930TIP3    H257206   4.965   3.097   4.472 -2.5347 -0.4804 -4.8789
11931TIP3   OH257207   1.012   0.748  14.348 -0.3230 -0.1436  0.4675
11931TIP3    H157208   0.995   0.669  14.298 -1.1739 -0.0860  0.6505
11931TIP3    H257209   0.926   0.777  14.378 -0.1480  1.4022 -0.4200
11932TIP3   OH257210   1.556   2.858  14.549 -0.6690  0.4642 -0.5398
11932TIP3    H157211   1.616   2.933  14.539  1.1296 -0.4837  1.8994
11932TIP3    H257212   1.544   2.851  14.644 -1.2083 -2.0059 -0.7398
11933TIP3   OH257213   0.600   1.303   3.332  0.2562  0.0301  0.1879
11933TIP3    H157214   0.636   1.223   3.294  0.5801  0.4913 -0.4899
11933TIP3    H257215   0.660   1.372   3.305  1.0677  0.2552  2.3770
11934TIP3   OH257216   1.458   5.894  15.780  0.2327  0.6661 -0.5044
11934TIP3    H157217   1.415   5.833  15.840 -0.5114  1.2934 -0.3791
11934TIP3    H257218   1.455   5.851  15.695 -0.2391  0.5039 -0.4049
11935TIP3   OH257219   4.103   5.432  11.428 -0.2921  0.2194 -0.0234
11935TIP3    H157220   4.081   5.496  11.361 -0.4124  0.9079  0.6538
11935TIP3    H257221   4.167   5.476  11.484  0.2859 -0.5683 -0.0456
11936TIP3   OH257222   2.395   0.948  14.612 -0.1264  0.1229 -0.0665
11936TIP3    H157223   2.450   1.002  14.555 -3.3449 -0.3601 -4.0366
11936TIP3    H257224   2.324   1.005  14.639 -0.9743 -0.8156 -0.2448
11937TIP3   OH257225   4.595   5.261   1.132  0.5404  0.0212 -0.0482
11937TIP3    H157226   4.509   5.303   1.143 -0.2743 -1.5299 -0.2671
11937TIP3    H257227   4.648   5.327   1.088 -0.6727  0.8569 -0.3122
11938TIP3   OH257228   5.628   0.890   6.067  0.6139 -0.7894  0.0097
11938TIP3    H157229   5.652   0.982   6.054 -0.7096 -0.4201 -0.0153
11938TIP3    H257230   5.532   0.889   6.058  0.4482 -1.9158  1.4448
11939TIP3   OH257231   2.717   1.674  11.429  0.1267  0.1014 -0.5750
11939TIP3    H157232   2.655   1.742  11.402 -1.8499 -0.1839  2.6943
11939TIP3    H257233   2.681   1.593  11.392 -0.8324  0.1162  0.2653
11940TIP3   OH257234   2.336   4.593  16.491 -0.1548  0.0557 -0.0242
11940TIP3    H157235   2.339   4.680  16.450  1.0031  0.9412  1.8227
11940TIP3    H257236   2.269   4.601  16.559 -1.4162 -1.1269 -1.0695
11941TIP3   OH257237   3.047   5.381  12.774  0.4991  0.0156  0.5050
11941TIP3    H157238   3.036   5.474  12.758  1.1529  0.0686  0.3183
11941TIP3    H257239   3.073   5.345  12.689  2.5011  0.0417  1.0474
11942TIP3   OH257240   5.359   3.676   3.906 -0.2052  0.3152  0.0632
11942TIP3    H157241   5.300   3.681   3.981  0.1561 -0.4021  0.4093
11942TIP3    H257242   5.318   3.612   3.847  0.0623  0.0530  0.1588
11943TIP3   OH257243   4.525   1.512   0.606 -0.0730 -0.0107 -0.2884
11943TIP3    H157244   4.524   1.441   0.670  0.5828  0.2756  0.0476
11943TIP3    H257245   4.442   1.557   0.618 -0.4794 -0.7010 -0.4800
11944TIP3   OH257246   0.087   0.365  16.056 -0.2763  0.0676  0.1865
11944TIP3    H157247   0.091   0.461  16.060 -0.8183  0.0841  0.3457
11944TIP3    H257248  -0.005   0.345  16.040  0.0538 -0.3865 -1.3029
11945TIP3   OH257249   2.376   1.498   4.536  0.2668 -0.5679  0.5823
11945TIP3    H157250   2.413   1.514   4.624  1.0335  1.2664 -0.0244
11945TIP3    H257251   2.446   1.451   4.490  1.3885  1.6758 -0.1306
11946TIP3   OH257252   5.419   4.860  12.823  0.1220  0.3214  0.3434
11946TIP3    H157253   5.435   4.937  12.767  0.0298  0.3809  0.3992
11946TIP3    H257254   5.371   4.895  12.898 -0.1762  0.1556  0.2270
11947TIP3   OH257255   2.930   5.329   1.520  0.0112  0.6751  0.2133
11947TIP3    H157256   2.873   5.389   1.567 -1.9112 -0.8451 -0.0292
11947TIP3    H257257   2.900   5.333   1.429  0.0121 -0.4129  0.1445
11948TIP3   OH257258   0.242   5.661  13.391  0.7401  0.2330  0.3076
11948TIP3    H157259   0.228   5.647  13.298 -1.9771 -2.2212  0.9307
11948TIP3    H257260   0.261   5.574  13.426  2.1963  1.1732  2.0181
11949TIP3   OH257261   5.092   1.393   3.477  0.1989 -0.1860 -0.6524
11949TIP3    H157262   5.159   1.446   3.435 -0.3207  0.0081 -1.2415
11949TIP3    H257263   5.010   1.419   3.436 -0.6012  1.2974  1.6934
11950TIP3   OH257264   4.200   2.534   4.030 -0.3869 -0.0436 -0.1311
11950TIP3    H157265   4.197   2.446   4.068  2.0880 -0.1402  0.0137
11950TIP3    H257266   4.239   2.522   3.944 -0.2825  0.8778 -0.2238
11951TIP3   OH257267   5.225   2.290   0.861 -0.1964 -0.4630 -0.0968
11951TIP3    H157268   5.298   2.290   0.798  1.6465  1.1134  1.8794
11951TIP3    H257269   5.235   2.208   0.910  0.9626  0.2049  0.8484
11952TIP3   OH257270   3.317   6.311   0.914  0.1075  0.6719  0.6272
11952TIP3    H157271   3.257   6.259   0.861  0.2541  2.8567 -1.8715
11952TIP3    H257272   3.263   6.345   0.985 -1.2904  1.4274 -0.7446
11953TIP3   OH257273   6.545   1.707   1.641 -0.0603  0.2142  0.0423
11953TIP3    H157274   6.630   1.663   1.636 -0.1509 -0.0426  0.7032
11953TIP3    H257275   6.566   1.798   1.660  0.0713  0.1748  0.0852
11954TIP3   OH257276   3.557   5.282   4.198 -0.2085  0.1801  0.6086
11954TIP3    H157277   3.652   5.288   4.203 -0.1818  0.5861 -0.1718
11954TIP3    H257278   3.530   5.366   4.160 -1.0152  0.7254  2.2998
11955TIP3   OH257279   3.270   6.165  12.614  0.4817  0.0748  0.1232
11955TIP3    H157280   3.197   6.106  12.593  0.2201  0.8020 -1.1401
11955TIP3    H257281   3.333   6.151  12.544  0.5875  1.0007  0.0152
11956TIP3   OH257282   0.264   5.553   3.717 -0.0097  0.1825  0.3840
11956TIP3    H157283   0.314   5.517   3.790 -1.1983 -2.4058  0.0621
11956TIP3    H257284   0.257   5.480   3.655 -0.7597  1.6748 -1.3984
11957TIP3   OH257285   1.104   2.647  16.491 -0.2583 -0.7528  0.4095
11957TIP3    H157286   1.198   2.638  16.507 -0.2081  0.2238  0.7069
11957TIP3    H257287   1.091   2.608  16.404  0.7014  0.5425 -0.3350
11958TIP3   OH257288   2.901   1.004   2.576  0.5681 -0.4489 -0.1819
11958TIP3    H157289   2.946   1.001   2.492  0.1147 -0.0675 -0.4411
11958TIP3    H257290   2.884   1.097   2.591 -1.6429 -0.6804 -0.9159
11959TIP3   OH257291   1.528   1.708  14.634  0.2939  0.1908 -0.0691
11959TIP3    H157292   1.497   1.618  14.644  1.4931 -0.3638 -1.0724
11959TIP3    H257293   1.450   1.762  14.650 -0.0356 -0.8979  2.4744
11960TIP3   OH257294   5.989   5.457   2.035 -0.4110  0.3600 -0.7368
11960TIP3    H157295   5.988   5.533   2.092 -0.6472  0.8634 -1.3945
11960TIP3    H257296   6.042   5.392   2.081 -0.9676  0.5891  0.2452
11961TIP3   OH257297   4.175   5.969   6.260 -0.5417 -0.5410  0.0999
11961TIP3    H157298   4.082   5.975   6.234 -0.9001  0.4891  1.5235
11961TIP3    H257299   4.196   6.056   6.293  0.7303 -0.9921  0.5135
11962TIP3   OH257300   1.827   4.957   2.843  0.0855  0.0074  0.4564
11962TIP3    H157301   1.811   4.863   2.841 -1.6428  0.1401  3.0675
11962TIP3    H257302   1.923   4.965   2.849  0.3032 -1.5040 -0.4526
11963TIP3   OH257303   3.784   1.706   5.094 -0.1296  0.0158 -0.2073
11963TIP3    H157304   3.845   1.778   5.106  0.2077 -0.5439  1.7757
11963TIP3    H257305   3.714   1.724   5.157 -0.6044 -0.8173 -0.4855
11964TIP3   OH257306   6.285   0.029   5.371 -0.5796 -0.3991  0.4739
11964TIP3    H157307   6.327   0.115   5.371 -0.4922 -0.4374 -0.5500
11964TIP3    H257308   6.191   0.049   5.369 -0.5623 -0.2900 -1.7014
11965TIP3   OH257309   5.318   5.436   2.655 -0.2013 -0.1885  0.3629
11965TIP3    H157310   5.249   5.496   2.627  0.4896  0.1100 -0.7884
11965TIP3    H257311   5.272   5.353   2.670 -1.0044  0.3478  0.9461
11966TIP3   OH257312   1.627   6.791  16.450 -0.1991  0.2095  0.0874
11966TIP3    H157313   1.585   6.860  16.501  0.4191 -0.2029  1.1918
11966TIP3    H257314   1.681   6.838  16.386  1.8160  0.8520  2.1331
11967TIP3   OH257315   2.164   5.087   3.999 -0.4243  0.4566  0.8685
11967TIP3    H157316   2.078   5.046   3.986 -1.4527  2.9911 -1.4225
11967TIP3    H257317   2.143   5.175   4.031  1.2453  1.3633 -0.3892
11968TIP3   OH257318   4.700   5.623   2.897  0.3452 -0.0392  0.2228
11968TIP3    H157319   4.619   5.672   2.913  0.3893  0.5726 -1.3084
11968TIP3    H257320   4.671   5.534   2.878  0.0511  0.0936  0.0477
11969TIP3   OH257321   5.896   3.614   2.005 -0.2887 -0.2784  0.0295
11969TIP3    H157322   5.882   3.708   2.019 -0.8550 -0.4807  0.8993
11969TIP3    H257323   5.810   3.582   1.976 -0.2564 -0.6369  0.3334
11970TIP3   OH257324   0.989   2.951  15.808 -0.1016 -0.4388 -0.0508
11970TIP3    H157325   0.951   2.983  15.726 -0.0981 -1.1810 -0.3519
11970TIP3    H257326   0.928   2.884  15.838 -0.5295  0.3910  0.9916
11971TIP3   OH257327   4.122   1.014   4.278 -0.1425 -0.3039  0.0786
11971TIP3    H157328   4.106   0.989   4.187 -0.1170  0.8594 -0.2521
11971TIP3    H257329   4.035   1.020   4.317 -0.2726  1.0283 -0.3758
11972TIP3   OH257330   0.501   1.792  15.435 -0.1174  0.2155 -0.1780
11972TIP3    H157331   0.586   1.834  15.419  0.4281 -0.3920  0.9704
11972TIP3    H257332   0.524   1.707  15.473 -1.2419  0.6336  1.5176
11973TIP3   OH257333   5.528   6.265   1.519  1.1604 -0.1398  0.1396
11973TIP3    H157334   5.445   6.219   1.506 -0.0327  1.4341  1.6145
11973TIP3    H257335   5.529   6.331   1.449  1.4025 -0.4504 -0.1528
11974TIP3   OH257336   0.110   0.115  13.081 -0.3886  0.1009 -0.0367
11974TIP3    H157337   0.168   0.068  13.140  1.4698  0.8290 -1.1928
11974TIP3    H257338   0.076   0.188  13.134 -1.6771 -1.3042  1.1541
11975TIP3   OH257339   4.864   1.585  12.091 -0.2631 -0.0683  0.2053
11975TIP3    H157340   4.826   1.603  12.005 -1.1998  1.4912  0.8955
11975TIP3    H257341   4.796   1.536  12.137 -0.0982 -0.1777  0.3345
11976TIP3   OH257342   6.718   3.344   6.367  0.2940 -0.8461 -0.8031
11976TIP3    H157343   6.690   3.285   6.438  1.6568  0.2146  0.6818
11976TIP3    H257344   6.648   3.338   6.302 -1.9979 -0.4074  1.4779
11977TIP3   OH257345   0.948   2.620  16.715 -0.3007  0.0926 -0.0314
11977TIP3    H157346   0.971   2.530  16.740  1.4305  0.3565 -0.5228
11977TIP3    H257347   0.992   2.633  16.631 -0.6526  1.3572 -0.0384
11978TIP3   OH257348   5.189   1.270  14.783 -0.4665  0.2665  0.3182
11978TIP3    H157349   5.134   1.341  14.818 -1.7670  0.0210 -1.1613
11978TIP3    H257350   5.130   1.215  14.733  0.5552 -1.8056  1.2419
11979TIP3   OH257351   3.605   3.084  12.901 -0.2767  0.1659 -0.1258
11979TIP3    H157352   3.548   3.121  12.968 -0.3972 -0.0909 -0.0840
11979TIP3    H257353   3.667   3.153  12.880 -1.2504  0.8338 -0.9142
11980TIP3   OH257354   0.929   1.091  10.531  0.0433  0.0542 -0.0827
11980TIP3    H157355   0.847   1.137  10.549  0.8018  0.6539  2.1975
11980TIP3    H257356   0.998   1.154  10.551  1.0729 -1.0150 -0.1079
11981TIP3   OH257357   2.718   1.625  13.711  0.1142 -0.2147 -0.5190
11981TIP3    H157358   2.791   1.562  13.710  0.1070 -0.2471  0.5548
11981TIP3    H257359   2.647   1.578  13.668 -0.4590 -1.6775  1.8562
11982TIP3   OH257360   5.655   3.299  15.573  0.0322 -0.9357 -0.5713
11982TIP3    H157361   5.677   3.210  15.545  0.3521 -0.9428 -0.3029
11982TIP3    H257362   5.732   3.351  15.549 -0.1491 -0.7298 -0.7170
11983TIP3   OH257363   5.277   2.894   3.607  0.5248 -0.2747  0.1627
11983TIP3    H157364   5.318   2.968   3.562  1.5231 -1.3700 -0.7969
11983TIP3    H257365   5.221   2.853   3.542 -1.1714  0.4440  1.1066
11984TIP3   OH257366   5.270   2.010  12.486 -0.3815 -0.4640  0.5238
11984TIP3    H157367   5.236   2.020  12.574 -1.2801  0.4175  0.0987
11984TIP3    H257368   5.260   1.917  12.466 -0.3874 -0.6204  1.2589
11985TIP3   OH257369   3.884   0.205  16.136 -0.5862 -0.2137 -0.1469
11985TIP3    H157370   3.811   0.266  16.132 -0.4342  0.0047  0.3326
11985TIP3    H257371   3.844   0.118  16.134 -0.9408 -0.0990  1.3229
11986TIP3   OH257372   1.126   6.250   5.974 -0.5666 -0.2834  0.4238
11986TIP3    H157373   1.058   6.305   6.013  0.4025  1.9015 -0.8094
11986TIP3    H257374   1.113   6.258   5.880  0.2098 -1.4093  0.1991
11987TIP3   OH257375   6.593   5.773  11.392 -0.1259  0.1098 -0.0337
11987TIP3    H157376   6.532   5.846  11.396 -0.3557 -0.1132  0.6504
11987TIP3    H257377   6.657   5.790  11.461 -0.9386 -0.9803  1.0308
11988TIP3   OH257378   4.151   2.940  12.152 -0.8806 -0.1051 -0.0562
11988TIP3    H157379   4.143   2.952  12.246  0.3825  1.6853 -0.1159
11988TIP3    H257380   4.114   2.854  12.135 -2.0923 -0.0330  1.9180
11989TIP3   OH257381   1.137   5.872   3.441 -0.6400 -0.4215 -0.4280
11989TIP3    H157382   1.055   5.889   3.488  0.2742  0.8604  0.7716
11989TIP3    H257383   1.111   5.869   3.349 -1.8206  1.5905 -0.2238
11990TIP3   OH257384   3.885   1.591   0.019  0.0781 -0.2855  0.2046
11990TIP3    H157385   3.919   1.521   0.074  1.0479 -2.5181 -2.9689
11990TIP3    H257386   3.953   1.659   0.022  0.7807 -0.9892  0.5721
11991TIP3   OH257387   2.771   6.423  13.454  0.6764  0.7705  0.2470
11991TIP3    H157388   2.776   6.446  13.361 -1.5966  2.4987  0.4806
11991TIP3    H257389   2.852   6.374  13.470  2.0386  1.9986 -2.1900
11992TIP3   OH257390   2.871   3.750   5.288  0.3879 -0.2326 -0.1823
11992TIP3    H157391   2.901   3.661   5.270 -0.0281 -0.3664 -0.2092
11992TIP3    H257392   2.853   3.788   5.202 -2.6959 -1.2458 -0.0919
11993TIP3   OH257393   4.117   4.225  15.444 -0.0002  0.0077  0.0997
11993TIP3    H157394   4.205   4.250  15.473 -0.2318  0.1860  0.6697
11993TIP3    H257395   4.085   4.168  15.514 -0.9314  1.1933  0.6609
11994TIP3   OH257396   4.716   0.853   1.140 -0.1145 -0.0876  0.3938
11994TIP3    H157397   4.766   0.777   1.112 -0.6511 -0.2508 -0.1475
11994TIP3    H257398   4.686   0.831   1.228 -0.9941 -0.8811 -0.0841
11995TIP3   OH257399   0.554   6.036  15.879  0.6490 -0.0544  0.0156
11995TIP3    H157400   0.576   6.120  15.921  0.7208  0.3228 -0.7602
11995TIP3    H257401   0.638   5.997  15.858  0.6066  0.0003 -0.2537
11996TIP3   OH257402   1.909   0.603  14.808 -0.9353 -0.3283  0.1653
11996TIP3    H157403   1.817   0.586  14.825 -0.5480 -1.3154  1.5215
11996TIP3    H257404   1.951   0.590  14.894  0.4567  0.0418 -0.4387
11997TIP3   OH257405   2.473   0.998  15.292 -0.1352  0.6859 -0.0472
11997TIP3    H157406   2.394   0.978  15.342 -0.7081 -2.2161 -1.8690
11997TIP3    H257407   2.533   1.034  15.356 -2.1626  0.8649  1.8775
11998TIP3   OH257408   1.105   6.478   1.039  0.5422 -0.1288  1.0696
11998TIP3    H157409   1.156   6.483   0.957 -1.1277 -1.8757 -0.1719
11998TIP3    H257410   1.140   6.401   1.083 -0.0252 -0.4630  0.9338
11999TIP3   OH257411   3.803   4.740  15.917  0.1157  1.0367 -0.3573
11999TIP3    H157412   3.816   4.696  15.833  0.6821 -1.6445  1.0035
11999TIP3    H257413   3.838   4.828  15.904  2.5569 -0.0719 -2.2502
12000TIP3   OH257414   1.898   3.482  11.826  0.4774 -0.2046 -0.0039
12000TIP3    H157415   1.923   3.430  11.903  0.8144  1.4548  1.0671
12000TIP3    H257416   1.968   3.547  11.818  1.0208 -0.9881 -2.4069
12001TIP3   OH257417   0.626   3.599  14.443  0.5574  0.4988  0.0888
12001TIP3    H157418   0.572   3.551  14.380  1.3375 -0.3869  0.0726
12001TIP3    H257419   0.568   3.666  14.478 -0.2720  0.1701 -0.6153
12002TIP3   OH257420   3.738   3.708   1.190  0.0299 -0.0797 -0.2048
12002TIP3    H157421   3.673   3.643   1.218  0.8500 -1.5759 -1.5986
12002TIP3    H257422   3.770   3.675   1.106  0.6039  2.0756 -0.8943
12003TIP3   OH257423   4.154   6.099   1.523  0.0299  0.0251 -0.4146
12003TIP3    H157424   4.069   6.140   1.533 -0.7996 -1.7782  0.4446
12003TIP3    H257425   4.204   6.159   1.469 -1.7244  1.2077 -0.7870
12004TIP3   OH257426   3.661   1.331   3.115  0.2566 -0.1630 -0.2535
12004TIP3    H157427   3.665   1.255   3.172 -0.4338 -0.3602 -0.4678
12004TIP3    H257428   3.749   1.338   3.078  0.6919 -0.0784  0.7638
12005TIP3   OH257429   6.336   6.680  16.495 -0.0486  0.2362  0.2168
12005TIP3    H157430   6.270   6.651  16.432 -0.3082  2.0548 -0.4141
12005TIP3    H257431   6.361   6.601  16.542 -0.6133 -1.0018 -1.4626
12006TIP3   OH257432   2.552   6.572  16.398  0.3184 -0.3563 -0.0964
12006TIP3    H157433   2.584   6.554  16.486 -0.6454  1.0694  0.5883
12006TIP3    H257434   2.615   6.633  16.360  0.0158  0.1227  0.1495
12007TIP3   OH257435   2.395   4.740  14.556  0.0015  0.7442  0.2144
12007TIP3    H157436   2.346   4.748  14.475  0.9316  1.5922 -0.2888
12007TIP3    H257437   2.348   4.794  14.619  1.7468  3.9030 -0.9980
12008TIP3   OH257438   5.792   5.413   4.072 -0.1082 -0.1498  0.0386
12008TIP3    H157439   5.795   5.489   4.130  0.8350 -0.3238  0.2280
12008TIP3    H257440   5.840   5.345   4.118 -1.2935 -1.0101  0.0534
12009TIP3   OH257441   1.013   3.287  13.257  0.1605  0.4876  0.4359
12009TIP3    H157442   0.937   3.339  13.230 -0.7388  0.4355  2.6502
12009TIP3    H257443   1.088   3.340  13.231 -0.5411  0.2132 -2.4679
12010TIP3   OH257444   6.258   0.155  16.413  0.5596 -0.2481  0.1119
12010TIP3    H157445   6.262   0.064  16.442  2.5539 -0.7362 -1.4402
12010TIP3    H257446   6.189   0.156  16.347 -0.1766 -0.3849  0.8699
12011TIP3   OH257447   1.044   3.144  11.818 -0.1089 -0.1661  0.5646
12011TIP3    H157448   0.986   3.184  11.753 -0.2369  0.3360  0.9747
12011TIP3    H257449   1.104   3.089  11.767  0.0607  0.5432 -0.0234
12012TIP3   OH257450   6.598   0.313  16.692 -0.0806 -0.0198  0.0777
12012TIP3    H157451   6.686   0.342  16.716  0.4545 -0.5918 -1.1656
12012TIP3    H257452   6.540   0.380  16.729  1.0177  1.6549 -1.1258
12013TIP3   OH257453   0.401   2.710  15.510 -0.3894  0.5120  0.6586
12013TIP3    H157454   0.317   2.675  15.541 -0.1210 -1.3231 -0.5791
12013TIP3    H257455   0.455   2.715  15.589 -1.2784  0.6662  1.2848
12014TIP3   OH257456   0.596   4.795   3.817  0.4938 -0.0464 -0.0067
12014TIP3    H157457   0.522   4.787   3.757  0.2079  0.3183  0.2883
12014TIP3    H257458   0.627   4.705   3.830  0.5086 -0.1338 -0.6334
12015TIP3   OH257459   5.864   5.354   1.816 -0.2331 -0.0078 -0.1909
12015TIP3    H157460   5.798   5.423   1.818 -0.6879 -0.4513  0.7569
12015TIP3    H257461   5.930   5.381   1.879 -0.5534 -0.5582  0.3924
12016TIP3   OH257462   1.686   3.512   2.723 -0.0495 -0.1945 -0.1552
12016TIP3    H157463   1.591   3.522   2.729 -0.2506 -2.1564  0.5693
12016TIP3    H257464   1.706   3.524   2.631 -1.2161 -1.2368 -0.5727
12017TIP3   OH257465   1.322   5.702  12.572  0.5925  0.1611 -0.0587
12017TIP3    H157466   1.396   5.687  12.514  1.8208  1.4417  1.0957
12017TIP3    H257467   1.338   5.644  12.647 -0.8055 -1.2380 -0.7903
12018TIP3   OH257468   1.692   1.535  12.343  0.8243  0.3155 -0.1418
12018TIP3    H157469   1.637   1.498  12.412 -0.5481 -0.0247 -1.3587
12018TIP3    H257470   1.644   1.612  12.312  0.4713 -0.5524 -1.9004
12019TIP3   OH257471   0.331   1.603   2.655  0.5303  0.3982  0.1140
12019TIP3    H157472   0.334   1.512   2.626  1.4452  0.8631 -1.3943
12019TIP3    H257473   0.321   1.598   2.750  1.2266 -1.2879  0.1332
12020TIP3   OH257474   1.035   5.370   1.031 -0.3682  0.0378  0.1160
12020TIP3    H157475   1.117   5.352   0.985 -0.2580  1.4257 -0.2776
12020TIP3    H257476   0.969   5.369   0.963 -0.2984  1.4573  0.0063
12021TIP3   OH257477   6.220   1.975  15.564 -0.1766  0.7231 -0.0694
12021TIP3    H157478   6.140   1.959  15.614  1.0122 -0.9919  1.4573
12021TIP3    H257479   6.238   2.068  15.577 -0.4458  0.5529  1.9839
12022TIP3   OH257480   2.331   1.092  16.675 -0.4090 -0.4612 -0.0381
12022TIP3    H157481   2.286   1.027  16.729 -0.6401  0.6558  1.1418
12022TIP3    H257482   2.275   1.170  16.678  0.2605  0.0678 -0.7782
12023TIP3   OH257483   6.677   6.664  11.347 -0.4488 -0.1558  0.1775
12023TIP3    H157484   6.617   6.672  11.421  1.1573 -0.7487  1.5897
12023TIP3    H257485   6.750   6.721  11.369 -0.0007 -0.2391 -1.0366
12024TIP3   OH257486   0.953   6.261  16.185  0.0279 -0.1700  0.1647
12024TIP3    H157487   1.043   6.228  16.195  0.2640  0.3902 -0.0706
12024TIP3    H257488   0.963   6.355  16.178 -0.6500 -0.0395  0.8418
12025TIP3   OH257489   4.397   4.054   2.080  0.8592 -0.3590 -0.3936
12025TIP3    H157490   4.309   4.086   2.060 -0.5804 -3.5764  0.0884
12025TIP3    H257491   4.438   4.126   2.128 -0.8426  1.8898 -2.0875
12026TIP3   OH257492   6.413   3.056   6.386  0.1206  0.5807  0.3467
12026TIP3    H157493   6.477   3.032   6.319  0.5236  1.5380  0.3735
12026TIP3    H257494   6.461   3.111   6.448 -0.9620  2.2389 -0.2147
12027TIP3   OH257495   6.766   5.054   4.598 -0.0275 -0.4609  0.5491
12027TIP3    H157496   6.817   5.100   4.665 -0.2687 -0.4302  0.7158
12027TIP3    H257497   6.685   5.103   4.592  0.5273  0.3284 -0.7396
12028TIP3   OH257498   0.068   4.825  12.500 -0.2651 -0.2428 -0.3633
12028TIP3    H157499   0.148   4.773  12.505  1.4833  2.1937 -1.0428
12028TIP3    H257500   0.061   4.848  12.407 -1.6029 -0.1743 -0.2587
12029TIP3   OH257501   0.620   0.003   0.114  0.3733 -0.4815 -0.3846
12029TIP3    H157502   0.691  -0.055   0.141 -0.8555 -1.0014  1.9656
12029TIP3    H257503   0.545  -0.023   0.168 -0.8651  1.7627 -0.8851
12030TIP3   OH257504   5.924   1.110   1.372 -0.1238  0.1231  0.1466
12030TIP3    H157505   5.975   1.117   1.453 -0.0533 -1.1973  0.2297
12030TIP3    H257506   5.983   1.145   1.304  0.1327  0.4657  0.5419
12031TIP3   OH257507   0.084   0.977   5.705 -0.4262  0.7893  0.7098
12031TIP3    H157508   0.073   1.028   5.625 -0.7497  1.5101  1.2034
12031TIP3    H257509   0.024   0.903   5.694  0.7550 -0.0397 -0.4365
12032TIP3   OH257510   3.890   1.063   4.713 -0.1308  0.1732 -0.1005
12032TIP3    H157511   3.856   1.148   4.740  0.4234 -0.0038  1.2635
12032TIP3    H257512   3.947   1.036   4.785  0.3946 -0.9607 -0.9011
12033TIP3   OH257513   1.177   5.374   6.563  0.4608  0.0792  0.1022
12033TIP3    H157514   1.240   5.411   6.500  1.8862  0.5441  1.7198
12033TIP3    H257515   1.226   5.305   6.608 -0.5165 -0.2116  0.7470
12034TIP3   OH257516   5.776   0.132  13.151  0.2189  0.0728 -0.2723
12034TIP3    H157517   5.756   0.219  13.187  0.6406  1.1829 -2.5482
12034TIP3    H257518   5.843   0.097  13.210  0.8504  1.7620  0.0813
12035TIP3   OH257519   0.930   1.738  13.294 -0.4731  0.4203  0.2424
12035TIP3    H157520   0.872   1.814  13.288 -1.8415 -0.6434 -0.5290
12035TIP3    H257521   0.899   1.690  13.370 -0.7654 -0.2701 -0.3009
12036TIP3   OH257522   6.431   3.589  11.644  0.1862 -0.9067  0.0701
12036TIP3    H157523   6.417   3.683  11.656 -2.0794 -1.0237 -1.1402
12036TIP3    H257524   6.526   3.577  11.655  0.4170  1.3633  1.0663
12037TIP3   OH257525   4.408   6.627  15.046 -0.3652 -0.0348 -0.2683
12037TIP3    H157526   4.455   6.697  15.091 -1.4768  1.1317 -0.8558
12037TIP3    H257527   4.354   6.672  14.981 -0.8930 -1.4669 -0.8666
12038TIP3   OH257528   5.723   1.965  14.106 -0.2778 -0.2582 -0.0414
12038TIP3    H157529   5.640   1.999  14.140  0.0013  0.1451  0.2442
12038TIP3    H257530   5.729   2.001  14.018  0.5969  1.4925  0.6789
12039TIP3   OH257531   6.269   6.294  11.635  0.0556 -0.1132 -0.0842
12039TIP3    H157532   6.258   6.362  11.702 -1.0921  1.1925 -1.5209
12039TIP3    H257533   6.349   6.318  11.589  0.1852 -0.3058  0.0412
12040TIP3   OH257534   5.972   5.683   5.100  0.3148  0.0234 -0.9346
12040TIP3    H157535   5.877   5.686   5.086  0.0242  0.8758  0.8651
12040TIP3    H257536   5.995   5.774   5.120  0.7922 -0.7517  2.5311
12041TIP3   OH257537   2.484   6.076  15.622  0.4845  0.2345  0.0349
12041TIP3    H157538   2.392   6.071  15.650  0.8252  0.5510  1.2756
12041TIP3    H257539   2.491   6.012  15.552 -0.9614  0.9974 -0.8563
12042TIP3   OH257540   5.225   1.579   1.098 -0.0993 -0.0917  0.0899
12042TIP3    H157541   5.236   1.505   1.158 -1.0759 -0.9279 -0.7422
12042TIP3    H257542   5.273   1.650   1.140  2.4441 -1.6378  0.0591
12043TIP3   OH257543   0.522   3.353   0.668  0.2480  0.7917  0.3941
12043TIP3    H157544   0.546   3.373   0.758 -1.6780  0.2031  1.0873
12043TIP3    H257545   0.428   3.333   0.672  0.5409 -1.2510 -1.4111
12044TIP3   OH257546   2.995   3.796  11.745  0.2419 -0.1920 -0.0389
12044TIP3    H157547   3.018   3.888  11.744 -1.7688  0.3540 -1.0923
12044TIP3    H257548   2.961   3.780  11.833 -0.4844  0.3728 -0.2152
12045TIP3   OH257549   3.910   5.039  14.496  0.5555 -0.2030 -0.3590
12045TIP3    H157550   3.951   5.039  14.583 -0.7155 -2.9468  0.3258
12045TIP3    H257551   3.953   4.968  14.449 -0.7823 -0.6502 -0.9475
12046TIP3   OH257552   1.851   4.998   2.051  0.0045  0.1735 -0.3249
12046TIP3    H157553   1.904   4.992   2.130  0.7362 -1.6737 -0.8926
12046TIP3    H257554   1.808   4.913   2.044 -0.7711  0.6273 -1.4213
12047TIP3   OH257555   0.049   6.415   1.157 -0.4009  0.0655  0.0924
12047TIP3    H157556   0.075   6.500   1.121  1.5825 -0.8367 -0.7583
12047TIP3    H257557   0.064   6.423   1.251 -0.5968  0.7807  0.0682
12048TIP3   OH257558   4.220   5.110  12.195  0.2756  0.0535 -0.0611
12048TIP3    H157559   4.256   5.138  12.111 -0.4367  0.2259 -0.3162
12048TIP3    H257560   4.136   5.071  12.173  0.0144  0.2423  0.5903
12049TIP3   OH257561   0.147   1.006   0.218  0.2639 -0.3189 -0.0241
12049TIP3    H157562   0.148   1.057   0.137  1.0187  0.0937  0.2394
12049TIP3    H257563   0.063   1.027   0.259  0.7248  1.0526  0.2843
12050TIP3   OH257564   3.717   5.149   5.870 -0.1858  0.1817 -0.0730
12050TIP3    H157565   3.795   5.188   5.831  0.5256  0.9185  1.9169
12050TIP3    H257566   3.653   5.146   5.800  0.2593  3.4500 -0.7807
12051TIP3   OH257567   0.388   5.843   1.336  0.0254  0.5511  0.0145
12051TIP3    H157568   0.434   5.923   1.362  0.4141  0.5100 -0.5160
12051TIP3    H257569   0.346   5.865   1.253 -0.3820  0.3937  0.1791
12052TIP3   OH257570   5.396   2.572  12.240  0.2344 -0.6020 -0.3720
12052TIP3    H157571   5.472   2.599  12.188 -0.1872  0.2809 -0.5298
12052TIP3    H257572   5.421   2.592  12.331 -0.3030  0.9345 -0.5316
12053TIP3   OH257573   6.405   3.503   5.652 -0.0829  0.2877  0.1476
12053TIP3    H157574   6.427   3.525   5.561 -1.5048 -0.8880 -0.5189
12053TIP3    H257575   6.320   3.543   5.667  0.4703  1.1077  1.2447
12054TIP3   OH257576   0.254   0.737  12.917  0.1301 -0.4041  0.2248
12054TIP3    H157577   0.273   0.643  12.921  0.9193 -0.2499  0.2524
12054TIP3    H257578   0.321   0.773  12.859  0.6106  0.3297  1.2121
12055TIP3   OH257579   1.191   0.930  12.516  0.4678 -0.0683  0.1583
12055TIP3    H157580   1.148   0.857  12.471  0.3319  0.5379 -0.7285
12055TIP3    H257581   1.285   0.911  12.508  0.4115 -0.6874  0.8808
12056TIP3   OH257582   6.170   2.061  14.646  0.6779  0.2092 -0.8546
12056TIP3    H157583   6.090   2.011  14.662  1.9528 -2.2254 -1.4810
12056TIP3    H257584   6.216   2.060  14.730 -0.0042  1.8102 -0.4309
12057TIP3   OH257585   2.891   2.251  12.499  1.2621 -0.6992 -0.4237
12057TIP3    H157586   2.897   2.267  12.593 -0.7223 -1.0568 -0.1941
12057TIP3    H257587   2.870   2.158  12.492  1.1927 -0.6287 -1.2159
12058TIP3   OH257588   6.358   4.662   0.353 -0.1940  0.1635  0.0584
12058TIP3    H157589   6.273   4.641   0.391  0.1146  0.0989  0.7327
12058TIP3    H257590   6.404   4.710   0.422  0.1284  0.6415 -0.4842
12059TIP3   OH257591   4.276   6.793   1.955  0.2432 -0.5941 -0.1093
12059TIP3    H157592   4.364   6.817   1.924  0.5364 -1.6125 -0.0744
12059TIP3    H257593   4.217   6.831   1.890  0.5246  2.2924  1.1571
12060TIP3   OH257594   4.031   2.189  16.134  0.0594  0.0710  0.0253
12060TIP3    H157595   3.998   2.183  16.045 -1.1990  0.9669  0.4081
12060TIP3    H257596   4.057   2.100  16.156  0.1987 -0.1962 -1.1532
12061TIP3   OH257597   4.878   5.402  16.186 -0.2784 -0.5606  0.1318
12061TIP3    H157598   4.923   5.483  16.211  1.0382 -1.1709 -0.1814
12061TIP3    H257599   4.826   5.426  16.109  0.4207 -0.1083 -0.2044
12062TIP3   OH257600   4.740   0.318  16.969 -0.5509  0.0677  0.2740
12062TIP3    H157601   4.835   0.312  16.973 -0.6237 -1.6340  0.1215
12062TIP3    H257602   4.713   0.239  16.921 -1.8834  1.8486 -2.1414
12063TIP3   OH257603   1.647   1.073  13.074  0.6785 -0.0725 -0.1025
12063TIP3    H157604   1.610   1.159  13.055  0.1741 -0.3941 -0.6393
12063TIP3    H257605   1.584   1.033  13.134  1.5145  0.3715  1.1037
12064TIP3   OH257606   5.500   1.822  12.036  0.2886 -0.0362 -0.0441
12064TIP3    H157607   5.518   1.850  11.946 -0.5836  0.1854 -0.1581
12064TIP3    H257608   5.512   1.901  12.088  0.9095 -0.1923  0.0509
12065TIP3   OH257609   2.776   0.014   5.711  0.0122  0.1518 -0.3757
12065TIP3    H157610   2.801  -0.055   5.649  0.9641  0.0675  0.0921
12065TIP3    H257611   2.696  -0.019   5.753 -0.9300  0.4137 -1.8656
12066TIP3   OH257612   6.428   1.572  14.059  0.2484  0.1359 -0.2995
12066TIP3    H157613   6.333   1.561  14.053  0.1720  0.4003  0.3109
12066TIP3    H257614   6.449   1.638  13.994 -0.1093  0.7043  0.1499
12067TIP3   OH257615   5.987   2.646   2.649  0.2768  0.1252  0.2515
12067TIP3    H157616   5.972   2.584   2.720  0.8852 -0.8519 -0.4445
12067TIP3    H257617   6.067   2.615   2.606 -0.2991  0.4481 -1.1097
12068TIP3   OH257618   1.045   3.481   4.065 -0.7923  0.3607  0.2913
12068TIP3    H157619   1.085   3.498   4.150 -0.2350  2.7610 -0.3496
12068TIP3    H257620   1.117   3.491   4.002 -1.4346 -0.1043 -0.5504
12069TIP3   OH257621   0.717   3.463  11.496 -0.0232 -0.5504  0.0669
12069TIP3    H157622   0.703   3.434  11.407  1.1600 -3.8542  0.8290
12069TIP3    H257623   0.664   3.405  11.550  2.0926 -1.1024  1.7075
12070TIP3   OH257624   5.218   2.881  11.533  0.1371 -0.2115 -0.1546
12070TIP3    H157625   5.290   2.866  11.595  2.2797  0.2236 -2.3580
12070TIP3    H257626   5.242   2.962  11.488 -0.4944 -1.2650 -2.5429
12071TIP3   OH257627   3.756   1.191  16.287 -0.8716 -0.2961  0.0563
12071TIP3    H157628   3.725   1.267  16.337 -2.6127 -1.3735  0.6906
12071TIP3    H257629   3.698   1.119  16.313  0.7090 -1.8640 -0.5320
12072TIP3   OH257630   0.499   2.165   1.180  0.1718  0.2357  0.2201
12072TIP3    H157631   0.559   2.161   1.254 -0.0069 -1.4036  0.3001
12072TIP3    H257632   0.445   2.242   1.198 -0.7245 -0.8132  2.4833
12073TIP3   OH257633   2.518   0.458   0.907  0.5971 -0.3543  0.0217
12073TIP3    H157634   2.570   0.408   0.971  0.4795  0.6854  0.9661
12073TIP3    H257635   2.488   0.392   0.844  0.0626 -1.5626  1.4718
12074TIP3   OH257636   4.544   3.673   1.675  0.5646 -0.4892  0.2740
12074TIP3    H157637   4.640   3.675   1.675  0.5954  1.4644 -2.1973
12074TIP3    H257638   4.523   3.608   1.743  3.5859 -0.6739  1.2167
12075TIP3   OH257639   2.185   6.346   1.255 -0.0378 -0.1726  0.0785
12075TIP3    H157640   2.152   6.330   1.343  1.4359 -1.6900  0.4095
12075TIP3    H257641   2.273   6.308   1.255  0.3273  0.5374 -1.8077
12076TIP3   OH257642   4.886   6.122   4.515  0.8342 -0.6293 -1.0525
12076TIP3    H157643   4.854   6.049   4.462  1.7510 -0.0744 -2.3997
12076TIP3    H257644   4.968   6.148   4.474  0.1013  1.7310 -1.1368
12077TIP3   OH257645   2.664   5.216   0.927  0.1344  0.1807 -0.1839
12077TIP3    H157646   2.625   5.225   0.839 -1.3338 -1.2125  0.2694
12077TIP3    H257647   2.730   5.148   0.916 -1.8116 -1.8966  0.2417
12078TIP3   OH257648   4.557   6.626   2.055  0.6560  0.1934  0.3330
12078TIP3    H157649   4.508   6.552   2.019 -0.8018  1.2792 -0.0526
12078TIP3    H257650   4.519   6.703   2.011  1.3572  1.2507  1.5089
12079TIP3   OH257651   5.948   4.327   2.328 -0.1078 -0.0412 -0.2211
12079TIP3    H157652   5.997   4.304   2.249  1.1717 -2.2130  1.1066
12079TIP3    H257653   6.011   4.374   2.382 -1.0254  1.5740 -0.4907
12080TIP3   OH257654   4.167   2.272  15.030 -0.1936  0.1562 -0.1729
12080TIP3    H157655   4.116   2.289  14.951 -0.9187  1.8270  0.6029
12080TIP3    H257656   4.231   2.343  15.033  0.0948 -0.1230  0.5331
12081TIP3   OH257657   1.852   4.575   3.218 -0.3919  0.0565  0.8116
12081TIP3    H157658   1.922   4.513   3.240  0.5685  0.4407 -0.9079
12081TIP3    H257659   1.774   4.521   3.208 -0.0873 -0.5475  1.5777
12082TIP3   OH257660   3.979   4.187   1.659  0.3226  0.6042 -0.0760
12082TIP3    H157661   3.998   4.093   1.657  2.7689  1.0370 -0.5533
12082TIP3    H257662   4.035   4.221   1.729 -0.6879  1.7135  0.2332
12083TIP3   OH257663   4.272   5.130  15.942  0.5620 -0.0694  0.1787
12083TIP3    H157664   4.357   5.122  15.898  0.8424 -0.9210  0.8456
12083TIP3    H257665   4.282   5.208  15.998  0.6875  0.1937 -0.2101
12084TIP3   OH257666   6.494   3.715   4.726 -0.5881 -0.1782  0.7141
12084TIP3    H157667   6.422   3.661   4.756 -1.2782  0.4085  0.1461
12084TIP3    H257668   6.459   3.763   4.650  1.0073 -1.4345 -0.9092
12085TIP3   OH257669   2.487   1.568   4.974  0.0696 -0.0893 -0.3181
12085TIP3    H157670   2.491   1.592   5.066 -0.9823  2.2202 -0.8093
12085TIP3    H257671   2.434   1.636   4.933  1.8322 -0.1105 -2.9371
12086TIP3   OH257672   0.867   5.507   1.388  0.8896 -0.6121 -0.0559
12086TIP3    H157673   0.948   5.557   1.382  0.4256  0.3685  1.4383
12086TIP3    H257674   0.889   5.423   1.347  2.6331 -0.3455  0.2311
12087TIP3   OH257675   4.972   1.800   1.827 -0.3544  0.2744 -0.2318
12087TIP3    H157676   5.058   1.758   1.835 -0.6020 -0.4680 -1.2541
12087TIP3    H257677   4.951   1.829   1.916 -0.5874 -2.6036  0.7497
12088TIP3   OH257678   1.769   5.005  14.012  0.2657  0.1393  0.2011
12088TIP3    H157679   1.806   4.928  14.056  1.2261  0.0337 -0.7480
12088TIP3    H257680   1.756   5.069  14.082 -0.1406 -0.7333  0.9387
12089TIP3   OH257681   3.306   5.299   2.836 -0.2176  0.1191 -0.5932
12089TIP3    H157682   3.314   5.318   2.930  0.9631 -2.5738 -0.0628
12089TIP3    H257683   3.216   5.271   2.825  0.0121 -0.9046  0.0405
12090TIP3   OH257684   2.390   1.678  12.311 -0.3405 -0.5934 -0.4209
12090TIP3    H157685   2.399   1.626  12.231 -0.3322  0.3487 -1.0453
12090TIP3    H257686   2.314   1.733  12.296 -1.3031 -1.5106  0.8692
12091TIP3   OH257687   0.724   3.128   5.782  0.0206  0.1171  0.2056
12091TIP3    H157688   0.753   3.137   5.873 -0.3271  0.6339  0.2695
12091TIP3    H257689   0.670   3.206   5.767 -1.7769 -1.0758  0.2436
12092TIP3   OH257690   4.294   2.105  13.608  0.1330  0.2554  0.0791
12092TIP3    H157691   4.368   2.045  13.606 -0.0072  0.0956 -0.9568
12092TIP3    H257692   4.330   2.189  13.579  0.3855  0.7728  1.7653
12093TIP3   OH257693   1.880   5.061  12.978 -0.1225 -0.1523  0.1405
12093TIP3    H157694   1.822   5.108  13.038  0.2507  1.5617 -0.7915
12093TIP3    H257695   1.963   5.109  12.981  0.6155 -1.3610 -0.1009
12094TIP3   OH257696   4.312   0.086  14.898  0.3389 -0.3821 -0.4105
12094TIP3    H157697   4.281   0.092  14.988  0.1592  0.8174 -0.5363
12094TIP3    H257698   4.384   0.148  14.893  0.2596 -0.3407 -1.1318
12095TIP3   OH257699   4.408   0.785   4.696  0.2267 -0.3761  0.2145
12095TIP3    H157700   4.392   0.864   4.747  0.6245  0.6435 -1.1779
12095TIP3    H257701   4.356   0.797   4.616  1.4495 -0.8190 -0.6734
12096TIP3   OH257702   5.985   0.673  16.913 -0.1732  0.2742  0.7414
12096TIP3    H157703   6.011   0.581  16.918 -0.4821  0.0348 -1.1249
12096TIP3    H257704   6.061   0.717  16.875 -1.0947  0.1906 -1.3502
12097TIP3   OH257705   5.736   1.640   3.517 -0.1186 -0.2168  0.2285
12097TIP3    H157706   5.759   1.708   3.580 -1.5345  0.7494 -0.2284
12097TIP3    H257707   5.817   1.622   3.469  0.0514  2.0806 -0.4624
12098TIP3   OH257708   3.743   2.419   5.802  0.3432 -0.6415  0.0992
12098TIP3    H157709   3.792   2.370   5.736  2.2964 -0.0529  1.0548
12098TIP3    H257710   3.750   2.367   5.882 -0.5817 -0.5264  0.2633
12099TIP3   OH257711   5.162   5.035   6.016  0.0459 -0.4604 -0.1308
12099TIP3    H157712   5.070   5.027   5.990 -0.8340  2.0983  1.7397
12099TIP3    H257713   5.190   4.945   6.033 -2.7613 -1.2315  1.1097
12100TIP3   OH257714   3.720   2.425  15.211 -0.4469  0.1779 -0.1253
12100TIP3    H157715   3.680   2.456  15.291  0.2882  3.0660 -0.7667
12100TIP3    H257716   3.810   2.402  15.236  0.2730  2.5696 -0.3339
12101TIP3   OH257717   6.410   5.387  12.964 -0.0064 -0.3253  0.1939
12101TIP3    H157718   6.505   5.389  12.975 -0.1858  0.7898  1.9504
12101TIP3    H257719   6.380   5.320  13.025 -0.4492  0.6323  1.0773
12102TIP3   OH257720   1.448   4.544   1.439 -0.4028  0.0299  0.0464
12102TIP3    H157721   1.455   4.521   1.532  2.4543 -0.4007 -0.1622
12102TIP3    H257722   1.356   4.533   1.418 -1.1584  0.2676  2.8571
12103TIP3   OH257723   0.504   3.985   2.219 -0.1854  0.3660 -0.0266
12103TIP3    H157724   0.467   3.983   2.307 -0.0012 -0.2452  0.0460
12103TIP3    H257725   0.599   3.980   2.233 -0.2030 -1.3745 -0.2858
12104TIP3   OH257726   1.899   1.410   5.576 -0.0661 -0.0907 -0.2162
12104TIP3    H157727   1.846   1.342   5.534 -0.5613  1.2453 -1.9032
12104TIP3    H257728   1.980   1.366   5.601 -0.4870 -1.3558 -0.9933
12105TIP3   OH257729   2.939   5.958   1.345 -0.1444 -0.2756  0.2951
12105TIP3    H157730   2.868   5.954   1.282 -0.2692 -0.0126  0.4171
12105TIP3    H257731   2.986   5.876   1.334 -0.7113 -0.6372  0.4940
12106TIP3   OH257732   0.982   4.754  11.681  0.2272  0.7520 -0.1717
12106TIP3    H157733   0.910   4.731  11.739 -1.7145  0.4902 -2.5211
12106TIP3    H257734   1.048   4.686  11.697 -1.0290 -0.3807  0.3886
12107TIP3   OH257735   1.464   2.789   2.547  0.5675  0.0611  0.2362
12107TIP3    H157736   1.404   2.790   2.622 -0.6344 -0.6800 -0.6722
12107TIP3    H257737   1.535   2.730   2.574  1.0128  1.0719  1.3865
12108TIP3   OH257738   4.815   2.936   1.466 -0.0099 -0.1660 -0.3985
12108TIP3    H157739   4.723   2.959   1.479 -0.2261 -0.8180 -0.7503
12108TIP3    H257740   4.840   2.985   1.387 -0.4389 -1.0193 -1.0814
12109TIP3   OH257741   0.790   4.876   4.960 -0.4353  0.1390  0.2600
12109TIP3    H157742   0.707   4.831   4.946 -0.2715  0.6318 -3.3192
12109TIP3    H257743   0.769   4.969   4.950  0.5268  0.2529 -1.0479
12110TIP3   OH257744   6.442   0.395  14.221  0.0178 -0.5491 -0.5788
12110TIP3    H157745   6.479   0.480  14.198 -0.2027  0.6514  3.0008
12110TIP3    H257746   6.501   0.359  14.287 -1.0228 -2.2531 -0.5080
12111TIP3   OH257747   4.409   3.506  12.417  0.4777 -0.4161 -0.3854
12111TIP3    H157748   4.414   3.439  12.349  0.1743 -0.6368 -0.1934
12111TIP3    H257749   4.497   3.541  12.423  1.0617 -1.9750  0.7024
12112TIP3   OH257750   6.711   3.700  16.436 -0.5035 -0.6680  0.0549
12112TIP3    H157751   6.785   3.740  16.481 -1.6943  2.1705 -0.2279
12112TIP3    H257752   6.732   3.707  16.343 -0.1132 -2.0847  0.0223
12113TIP3   OH257753   0.982   3.254  12.067 -0.7038  0.3409  0.1013
12113TIP3    H157754   0.929   3.185  12.106 -0.1448 -1.0976 -1.5524
12113TIP3    H257755   1.013   3.216  11.985  1.0010  1.9756 -0.0601
12114TIP3   OH257756   0.036   0.065  15.002 -0.0274 -0.6105  0.5021
12114TIP3    H157757  -0.040   0.012  15.025 -0.5153  0.0217  0.3782
12114TIP3    H257758  -0.001   0.149  14.975  0.6748 -0.5264 -0.2277
12115TIP3   OH257759   3.604   3.063  16.468  0.0573 -0.5011  0.2979
12115TIP3    H157760   3.522   3.043  16.512 -0.6647  1.5940  0.0179
12115TIP3    H257761   3.670   3.015  16.519 -1.1901 -1.3254  1.2131
12116TIP3   OH257762   6.691   4.581   3.705 -0.3416  0.0538 -0.5138
12116TIP3    H157763   6.666   4.610   3.617 -1.0178  1.5011  0.1085
12116TIP3    H257764   6.628   4.625   3.763 -0.5952 -1.7211  0.6340
12117TIP3   OH257765   2.407   1.209   2.903 -0.3245 -0.4328 -0.0818
12117TIP3    H157766   2.406   1.116   2.927  0.4617 -0.3172  0.4268
12117TIP3    H257767   2.368   1.253   2.978  1.8215 -0.1048  0.9054
12118TIP3   OH257768   3.367   1.334  12.979  0.7410  0.3749 -0.6308
12118TIP3    H157769   3.348   1.374  13.064  2.7520  1.6731 -0.7355
12118TIP3    H257770   3.349   1.241  12.992  0.7977  0.5777  1.1449
12119TIP3   OH257771   2.554   3.300  16.677 -0.7295 -0.3096 -0.1371
12119TIP3    H157772   2.523   3.217  16.714 -1.6390 -0.6265 -1.5022
12119TIP3    H257773   2.488   3.364  16.703 -1.0494 -0.4126 -0.6779
12120TIP3   OH257774   2.628   1.087   5.368  0.7183  0.4727 -0.1968
12120TIP3    H157775   2.576   1.014   5.400  0.8766 -0.1785 -1.3521
12120TIP3    H257776   2.677   1.118   5.444  2.0175 -1.7739 -0.0574
12121TIP3   OH257777   3.123   1.798  11.216  0.0506  0.3478  0.1817
12121TIP3    H157778   3.061   1.852  11.265  0.8059  0.4331  1.0727
12121TIP3    H257779   3.081   1.783  11.131 -0.2582  2.1772 -0.0198
12122TIP3   OH257780   5.133   2.624  11.434  0.0717  0.5571 -0.9030
12122TIP3    H157781   5.164   2.713  11.452  0.5828  0.0739  0.8063
12122TIP3    H257782   5.209   2.579  11.396  1.1842 -0.2173  1.9514
12123TIP3   OH257783   4.610   5.270  14.195  0.0773 -0.0049 -0.1830
12123TIP3    H157784   4.694   5.276  14.241  0.1143  1.3824 -0.3951
12123TIP3    H257785   4.567   5.194  14.234  1.2063 -0.4217  0.2980
12124TIP3   OH257786   1.303   6.690   6.809 -0.5394 -0.3534  0.0822
12124TIP3    H157787   1.366   6.721   6.744 -1.0427  2.6988  0.8903
12124TIP3    H257788   1.273   6.605   6.775  0.7235  0.1614 -2.5744
12125TIP3   OH257789   2.510   6.451   1.932  0.0208  0.3641  0.2517
12125TIP3    H157790   2.465   6.495   1.860  1.1280  1.1072 -0.0075
12125TIP3    H257791   2.526   6.363   1.900 -0.3840  0.3899 -0.0262
12126TIP3   OH257792   5.093   1.515   1.661  0.2424  0.3220 -0.4886
12126TIP3    H157793   5.106   1.431   1.705  1.4977  0.5215 -0.4411
12126TIP3    H257794   5.002   1.514   1.634  0.4884 -1.5199 -1.4334
12127TIP3   OH257795   3.684   0.297  16.715 -0.3999 -0.3799  0.3042
12127TIP3    H157796   3.673   0.207  16.684 -2.0533 -0.9657  2.3161
12127TIP3    H257797   3.666   0.351  16.638  2.7997 -1.6694 -1.5512
12128TIP3   OH257798   3.321   1.383   2.459 -0.0432 -0.5116 -0.3883
12128TIP3    H157799   3.328   1.363   2.553  1.6495 -0.5910 -0.5120
12128TIP3    H257800   3.407   1.363   2.423  0.2612  2.3052 -1.4263
12129TIP3   OH257801   3.685   2.751  15.034  0.5934  0.0961 -0.1297
12129TIP3    H157802   3.760   2.729  15.088  1.1234  1.6262 -0.1768
12129TIP3    H257803   3.628   2.675  15.039  2.0067 -0.9885  0.1472
12130TIP3   OH257804   1.953   4.110  14.702 -0.9174  0.0258 -0.0248
12130TIP3    H157805   2.029   4.056  14.723  1.1041  3.0323  1.0788
12130TIP3    H257806   1.894   4.101  14.777 -1.5694 -2.0313 -0.7227
12131TIP3   OH257807   1.326   1.655  12.975  0.5046  0.7346 -0.4003
12131TIP3    H157808   1.337   1.705  12.894 -2.1827 -0.1442 -1.4361
12131TIP3    H257809   1.237   1.674  13.003  1.4486  1.1898  2.5678
12132TIP3   OH257810   3.014   6.647  13.744 -0.0297 -0.1258 -0.2036
12132TIP3    H157811   3.084   6.582  13.729  0.3248 -0.0923  1.1578
12132TIP3    H257812   3.043   6.695  13.822 -0.4938  1.4057 -0.9459
12133TIP3   OH257813   6.143   5.366  10.784  0.1151  0.0099  0.5705
12133TIP3    H157814   6.146   5.454  10.820 -1.3358 -0.3015  1.5424
12133TIP3    H257815   6.096   5.314  10.850  2.3120 -1.8765  0.8050
12134TIP3   OH257816   0.122   6.460   3.634 -0.4683  0.2139  0.0391
12134TIP3    H157817   0.163   6.534   3.589  0.7280 -0.4682 -0.0553
12134TIP3    H257818   0.160   6.462   3.722  1.4687 -1.6292 -0.6521
12135TIP3   OH257819   4.826   2.761  16.110  0.1176  0.3715 -1.0075
12135TIP3    H157820   4.794   2.712  16.186 -0.6344  1.1806 -0.7898
12135TIP3    H257821   4.861   2.842  16.146 -0.3234  0.7961 -1.5290
12136TIP3   OH257822   1.248   2.194   4.366  0.0944  0.1344  0.0397
12136TIP3    H157823   1.242   2.160   4.277  1.5213 -2.3608  0.8041
12136TIP3    H257824   1.162   2.175   4.405 -1.3962  3.2857 -1.3194
12137TIP3   OH257825   3.186   6.532   0.714 -0.0843  0.0060 -0.1336
12137TIP3    H157826   3.222   6.617   0.740 -0.2608 -0.1247  0.5802
12137TIP3    H257827   3.163   6.542   0.622  1.5756  0.1504 -0.5521
12138TIP3   OH257828   4.000   1.784  16.397 -0.2815  0.2020  0.2543
12138TIP3    H157829   4.018   1.690  16.393  0.0862  0.2271  0.9835
12138TIP3    H257830   4.008   1.805  16.490  1.9390  1.3810 -0.1346
12139TIP3   OH257831   0.486   3.637   5.460  0.7217  0.1520 -0.2848
12139TIP3    H157832   0.531   3.581   5.523  0.5498  0.5871  0.2410
12139TIP3    H257833   0.419   3.682   5.512  0.1868  0.0807 -0.9019
12140TIP3   OH257834   3.006   2.069  15.477 -0.6111 -0.1545 -0.2400
12140TIP3    H157835   3.047   2.005  15.419  0.8137  0.1226  0.4075
12140TIP3    H257836   2.977   2.018  15.553  2.5331  0.1218  1.3399
12141TIP3   OH257837   1.231   4.810  11.922  0.1454 -0.7208  0.5619
12141TIP3    H157838   1.226   4.744  11.853 -1.8590  0.9167 -0.9771
12141TIP3    H257839   1.306   4.864  11.899 -1.3785  0.7269 -1.3123
12142TIP3   OH257840   5.352   3.231   4.997  0.4004 -0.3363 -0.7505
12142TIP3    H157841   5.258   3.214   4.983 -0.3656  0.8628  2.1827
12142TIP3    H257842   5.380   3.160   5.055  0.3912  1.1498  1.1401
12143TIP3   OH257843   0.965   0.754  14.944 -0.1381 -0.7790 -0.3463
12143TIP3    H157844   0.989   0.720  15.030  1.3535 -1.1305 -0.8691
12143TIP3    H257845   0.991   0.685  14.883  0.1615  0.0510 -1.1850
12144TIP3   OH257846   2.773   3.338  14.735  0.6224 -0.0539  0.3259
12144TIP3    H157847   2.696   3.325  14.680  0.6315 -1.8973  0.6833
12144TIP3    H257848   2.738   3.367  14.819  0.3370 -0.5497  0.3807
12145TIP3   OH257849   0.453   6.385   2.854 -0.1263  0.2853 -0.3460
12145TIP3    H157850   0.419   6.368   2.766  2.2173  1.4059 -1.5570
12145TIP3    H257851   0.490   6.301   2.882 -0.6262 -0.0064 -0.5605
12146TIP3   OH257852   0.227   1.941   1.118  0.2674 -0.3075 -0.2980
12146TIP3    H157853   0.303   1.949   1.175 -0.3706 -1.3665  0.7436
12146TIP3    H257854   0.163   2.001   1.154 -0.6346 -1.9639  1.0010
12147TIP3   OH257855   2.425   1.173  13.707  0.5664 -0.4221  0.1006
12147TIP3    H157856   2.385   1.247  13.753  0.4279  0.4220 -1.2942
12147TIP3    H257857   2.510   1.162  13.749  1.0824  1.3014 -0.3862
12148TIP3   OH257858   5.001   3.009   0.681 -0.1883 -0.6998 -0.0859
12148TIP3    H157859   5.052   2.986   0.604  0.7390 -0.2140  0.3633
12148TIP3    H257860   4.960   2.927   0.709  0.5523 -1.1517 -0.3164
12149TIP3   OH257861   4.112   6.354   1.744 -0.0235  0.3910  0.3367
12149TIP3    H157862   4.069   6.321   1.665  1.3031 -1.0043  0.1432
12149TIP3    H257863   4.172   6.421   1.712  1.4938 -1.0939 -0.0843
12150TIP3   OH257864   5.401   4.460   2.741  0.3832  0.3118 -0.7362
12150TIP3    H157865   5.357   4.379   2.715  0.0164  0.4910 -0.6807
12150TIP3    H257866   5.330   4.518   2.769  0.7477  0.1461  0.6178
12151TIP3   OH257867   0.140   3.623  11.730  0.1085 -0.4973 -0.2124
12151TIP3    H157868   0.153   3.697  11.790  0.1994  2.2365 -3.3327
12151TIP3    H257869   0.221   3.621  11.678 -0.4668 -1.9423 -1.0976
12152TIP3   OH257870   4.291   0.306  16.132 -0.5617 -0.4116  0.2479
12152TIP3    H157871   4.235   0.305  16.055 -1.1745 -1.6495  0.6814
12152TIP3    H257872   4.357   0.372  16.113  0.0040 -1.4934 -1.8316
12153TIP3   OH257873   2.855   6.463   4.209 -0.0946  0.3138 -0.5720
12153TIP3    H157874   2.853   6.378   4.254  0.9394  0.3458 -0.4344
12153TIP3    H257875   2.764   6.479   4.184 -0.6727  0.1727  1.2729
12154TIP3   OH257876   5.995   5.204   0.600 -0.2026 -0.2275  0.4317
12154TIP3    H157877   6.003   5.274   0.535 -0.0695 -1.3397 -0.7741
12154TIP3    H257878   5.904   5.174   0.592  0.1984 -1.2826 -0.1975
12155TIP3   OH257879   3.092   2.291   4.050 -0.3552 -0.3170 -0.7836
12155TIP3    H157880   3.135   2.221   4.001 -0.5935 -1.4156  0.5148
12155TIP3    H257881   2.998   2.271   4.043 -0.4096 -0.2873 -0.1767
12156TIP3   OH257882   3.525   0.622   1.042  0.1356 -0.6484 -0.2260
12156TIP3    H157883   3.552   0.682   1.111  0.0466 -2.5317  1.5226
12156TIP3    H257884   3.429   0.623   1.045  0.1221 -0.2954 -0.7227
12157TIP3   OH257885   3.198   3.030   0.353  0.0259  0.2391  0.1510
12157TIP3    H157886   3.154   3.072   0.427 -0.4525  0.7759 -0.4256
12157TIP3    H257887   3.134   2.967   0.320  1.8416 -3.5401  3.0269
12158TIP3   OH257888   1.527   3.136   4.284 -0.5984  0.3547  0.1979
12158TIP3    H157889   1.476   3.055   4.295 -0.5149  0.3616  0.6755
12158TIP3    H257890   1.618   3.106   4.277 -0.4159  0.4590  1.6581
12159TIP3   OH257891   1.565   1.474  14.539 -1.1008  0.0822 -0.2800
12159TIP3    H157892   1.648   1.477  14.587 -1.4372  0.2103  0.2986
12159TIP3    H257893   1.574   1.541  14.472 -0.2132 -0.8101 -1.0867
12160TIP3   OH257894   5.877   3.301  15.968 -0.5204  0.1937 -0.2479
12160TIP3    H157895   5.917   3.301  16.056 -2.4850 -1.2788  0.7302
12160TIP3    H257896   5.858   3.393  15.951  0.5384  0.5887  0.5437
12161TIP3   OH257897   1.446   0.144  13.693 -0.0507 -0.1868 -0.0679
12161TIP3    H157898   1.402   0.201  13.756 -1.3327 -0.2304 -0.8772
12161TIP3    H257899   1.527   0.117  13.737 -0.3935  0.6359  1.1182
12162TIP3   OH257900   6.315   5.706   4.500  0.0025  0.4737 -0.2021
12162TIP3    H157901   6.346   5.709   4.590  0.6179 -0.6673 -0.3630
12162TIP3    H257902   6.230   5.661   4.506 -0.7821  1.9124 -0.0019
12163TIP3   OH257903   6.290   2.218   1.173 -0.0197 -0.2613 -0.5465
12163TIP3    H157904   6.301   2.300   1.222 -1.0968 -0.1777 -0.4180
12163TIP3    H257905   6.377   2.179   1.172  0.4367  0.7225 -0.3109
12164TIP3   OH257906   2.862   1.179   3.593  0.1115  0.3815  0.5031
12164TIP3    H157907   2.936   1.139   3.547 -0.6989  0.8231 -1.2370
12164TIP3    H257908   2.790   1.118   3.579 -0.5576  1.3149 -0.2297
12165TIP3   OH257909   3.094   0.517  10.656  0.5744 -0.0845 -0.3056
12165TIP3    H157910   3.085   0.608  10.683  0.6518 -0.6749  1.8459
12165TIP3    H257911   3.010   0.495  10.616  0.5396  0.9008 -0.7937
12166TIP3   OH257912   5.895   0.423  16.701 -0.2130 -0.2788 -0.0153
12166TIP3    H157913   5.886   0.328  16.706 -1.0380 -0.2116 -0.2126
12166TIP3    H257914   5.975   0.436  16.650  0.0561 -0.8646  0.2455
12167TIP3   OH257915   1.990   5.858   5.073 -0.6236  0.3973  0.1345
12167TIP3    H157916   2.042   5.932   5.104 -1.4546  1.1485 -0.2159
12167TIP3    H257917   2.038   5.781   5.103  1.4245  1.0069 -1.3271
12168TIP3   OH257918   1.187   5.601   3.425  0.1429 -0.2821  0.4954
12168TIP3    H157919   1.201   5.696   3.434 -0.1938 -0.0885 -0.8391
12168TIP3    H257920   1.273   5.566   3.402  0.1426 -0.2206  0.4015
12169TIP3   OH257921   1.622   4.863  12.804 -0.2883  0.5704  0.0941
12169TIP3    H157922   1.560   4.864  12.731 -1.6131 -0.3721  1.1652
12169TIP3    H257923   1.620   4.952  12.838 -0.2275  0.8245 -0.5574
12170TIP3   OH257924   1.364   1.372  14.773  0.3417 -0.0284 -0.3082
12170TIP3    H157925   1.281   1.331  14.748  0.4120 -1.5400  1.7529
12170TIP3    H257926   1.351   1.402  14.863  2.1520 -0.6720  0.2120
12171TIP3   OH257927   5.907   6.358  12.397 -0.0534 -0.3894 -0.4182
12171TIP3    H157928   5.927   6.266  12.381 -0.3559 -0.2016 -2.0812
12171TIP3    H257929   5.989   6.404  12.376 -0.3449 -0.1700 -1.1387
12172TIP3   OH257930   0.350   5.428   0.962  0.4901 -0.0637 -0.1398
12172TIP3    H157931   0.431   5.416   1.011  1.4125  0.2697 -1.5066
12172TIP3    H257932   0.324   5.339   0.937  1.3753 -0.0827 -1.0900
12173TIP3   OH257933   4.905   0.553   0.394 -0.3609 -0.0955  0.5549
12173TIP3    H157934   4.815   0.557   0.363 -0.3469 -0.1500  0.5077
12173TIP3    H257935   4.956   0.524   0.318 -0.3497 -0.3863  0.6709
12174TIP3   OH257936   1.956   2.008   4.623  0.0032  0.6699  0.2000
12174TIP3    H157937   2.037   2.057   4.609 -0.0696  1.1560  1.3593
12174TIP3    H257938   1.919   1.998   4.536  1.8148 -0.4694 -0.4916
12175TIP3   OH257939   3.083   6.780   4.203  0.2920  0.2131 -0.5407
12175TIP3    H157940   3.100   6.867   4.166 -0.2728  0.3520 -0.4876
12175TIP3    H257941   3.158   6.763   4.260 -1.0882  2.0874  2.0442
12176TIP3   OH257942   0.100   0.670  15.669 -0.2694 -0.2545 -0.5794
12176TIP3    H157943   0.177   0.672  15.726  0.3031  2.2764 -1.2883
12176TIP3    H257944   0.027   0.649  15.727  0.8461 -2.3332  0.1859
12177TIP3   OH257945   0.388   3.485  15.507 -0.6389  0.0083  0.1809
12177TIP3    H157946   0.301   3.505  15.542 -0.4139  1.7670 -0.1749
12177TIP3    H257947   0.377   3.490  15.412 -0.1575  0.2056  0.1367
12178TIP3   OH257948   5.412   3.063  12.287  0.1868 -0.3798  0.1031
12178TIP3    H157949   5.369   2.982  12.314 -1.1634  0.6002  0.9799
12178TIP3    H257950   5.343   3.115  12.246  0.3760  1.4069  1.9408
12179TIP3   OH257951   3.343   4.251  16.644  0.3925 -0.2050 -0.2154
12179TIP3    H157952   3.373   4.319  16.584 -0.3263 -0.6009 -1.0482
12179TIP3    H257953   3.412   4.245  16.710  1.5264 -0.2040 -1.3610
12180TIP3   OH257954   0.435   3.541  12.869 -0.0790  0.1258  0.1406
12180TIP3    H157955   0.400   3.532  12.780 -0.7907 -1.0247  0.5095
12180TIP3    H257956   0.520   3.496  12.865 -0.1332  0.0292  0.0615
12181TIP3   OH257957   0.184   0.323   4.519 -0.1381  0.0288 -0.2401
12181TIP3    H157958   0.279   0.314   4.527 -0.0726 -0.0219 -0.9752
12181TIP3    H257959   0.171   0.349   4.428 -0.7714  0.9094  0.1001
12182TIP3   OH257960   4.748   5.417  14.863 -0.1981 -0.6712  0.3442
12182TIP3    H157961   4.694   5.464  14.799 -0.4000 -0.9096  0.3376
12182TIP3    H257962   4.801   5.485  14.904  1.4872 -0.7434 -1.5435
12183TIP3   OH257963   1.252   1.455   3.458 -0.5451  0.1601  0.0272
12183TIP3    H157964   1.230   1.380   3.512 -0.0023  0.5579  0.8244
12183TIP3    H257965   1.324   1.498   3.505 -0.8819  1.2038 -0.3875
12184TIP3   OH257966   0.283   4.998   5.275  0.0396 -0.0404  0.1942
12184TIP3    H157967   0.240   4.995   5.360 -0.2152 -2.6794  0.0587
12184TIP3    H257968   0.371   4.965   5.291  0.2559  0.2062 -0.4367
12185TIP3   OH257969   6.141   0.888  11.162 -0.0304 -0.2604 -0.2582
12185TIP3    H157970   6.099   0.895  11.076  0.2585 -0.8023 -0.4545
12185TIP3    H257971   6.195   0.967  11.169  0.1406 -0.3372 -0.6885
12186TIP3   OH257972   6.012   4.767  11.611  0.1586  0.3868 -0.0439
12186TIP3    H157973   6.104   4.761  11.586  0.0673  1.4241 -0.6810
12186TIP3    H257974   6.006   4.717  11.693  1.3236  0.4875  0.1161
12187TIP3   OH257975   3.388   3.468   4.591  0.4924  0.1516  0.0392
12187TIP3    H157976   3.371   3.459   4.497  2.5410  0.4979 -0.4129
12187TIP3    H257977   3.390   3.563   4.605  1.2663  0.1152  0.1972
12188TIP3   OH257978   1.500   2.099   4.481  0.2257  0.2905 -0.2607
12188TIP3    H157979   1.565   2.031   4.466 -1.8105 -1.7811 -0.2358
12188TIP3    H257980   1.478   2.132   4.394  0.4998  0.1961 -0.3649
12189TIP3   OH257981   3.553   6.605   1.454 -0.3610  0.1576 -0.2220
12189TIP3    H157982   3.585   6.536   1.512 -0.3518  0.4995  0.1832
12189TIP3    H257983   3.513   6.669   1.512 -3.6396 -1.1653 -0.8334
12190TIP3   OH257984   3.114   5.027   1.078  0.3599 -1.0159  0.7254
12190TIP3    H157985   3.042   4.991   1.027  0.3795 -0.4182  0.2598
12190TIP3    H257986   3.186   4.967   1.065  0.1421 -1.2614  0.6488
12191TIP3   OH257987   4.040   0.251  12.248 -1.0675  0.7216  0.1592
12191TIP3    H157988   4.069   0.162  12.230 -2.1566  0.6986 -1.8911
12191TIP3    H257989   4.078   0.303  12.177 -0.5099  1.8966  1.2814
12192TIP3   OH257990   0.637   6.378  15.323 -0.4371  0.2400 -0.3196
12192TIP3    H157991   0.712   6.364  15.381 -0.9716 -1.8097 -0.0750
12192TIP3    H257992   0.627   6.473  15.320  1.1170  0.4838  0.9866
12193TIP3   OH257993   5.051   6.195   3.333  0.1599 -0.1903 -0.3217
12193TIP3    H157994   5.142   6.208   3.309  0.0856  0.5675 -0.2299
12193TIP3    H257995   5.050   6.205   3.428 -0.0607  0.0770 -0.3514
12194TIP3   OH257996   6.297   1.753   4.698  0.0681 -0.0961 -0.3043
12194TIP3    H157997   6.362   1.781   4.762  0.8092  0.1170 -1.1212
12194TIP3    H257998   6.348   1.712   4.628 -0.8597 -2.0318  0.0832
12195TIP3   OH257999   1.589   1.502   1.741 -0.1279  0.5795 -0.1736
12195TIP3    H158000   1.573   1.557   1.664  1.4664 -0.9632 -1.7174
12195TIP3    H258001   1.518   1.522   1.801 -0.8506  2.6090 -1.6214
12196TIP3   OH258002   3.788   2.032  15.797 -0.4140  0.0477  0.1555
12196TIP3    H158003   3.866   2.086  15.811 -0.9132  1.1239 -0.9861
12196TIP3    H258004   3.817   1.965  15.736 -0.3780  0.4984 -0.3360
12197TIP3   OH258005   1.207   0.506  15.492  0.0922 -0.6852 -0.0548
12197TIP3    H158006   1.199   0.583  15.548  2.7761 -0.1496 -0.2821
12197TIP3    H258007   1.192   0.431  15.550 -0.2586 -0.0524  0.6766
12198TIP3   OH258008   6.409   4.690  13.225 -0.1050  0.3681  0.2221
12198TIP3    H158009   6.354   4.768  13.231 -1.8091 -0.6673 -1.1421
12198TIP3    H258010   6.417   4.660  13.315 -1.6785  0.6291  0.4830
12199TIP3   OH258011   5.328   1.185   2.019  0.9182 -0.1011 -0.0872
12199TIP3    H158012   5.316   1.266   1.970 -0.0333 -1.5693 -2.4421
12199TIP3    H258013   5.266   1.192   2.092 -0.2164  0.6614 -1.0923
12200TIP3   OH258014   0.359   3.361   6.578  0.6644 -0.0375  0.0440
12200TIP3    H158015   0.424   3.369   6.648  0.7502  0.7873 -0.1174
12200TIP3    H258016   0.406   3.319   6.506  0.8176 -0.1165  0.1908
12201TIP3   OH258017   0.994   1.873  16.889  0.3453  0.7626 -0.0685
12201TIP3    H158018   0.925   1.881  16.823 -0.9952 -1.1502  1.0055
12201TIP3    H258019   1.075   1.864  16.839 -0.3133  1.8497 -1.3844
12202TIP3   OH258020   1.785   3.145   3.963  0.3294 -0.0239 -0.4812
12202TIP3    H158021   1.796   3.146   4.058  2.0280 -0.1925 -0.6362
12202TIP3    H258022   1.869   3.112   3.930 -0.1424  0.2670 -2.0451
12203TIP3   OH258023   6.561   5.220   4.490  0.9864  0.0562  0.6213
12203TIP3    H158024   6.482   5.230   4.544  0.3400  0.1107 -0.3063
12203TIP3    H258025   6.527   5.196   4.404  2.0607 -1.3959  0.5749
12204TIP3   OH258026   5.489   1.426  13.501 -0.5652  0.2015 -0.3116
12204TIP3    H158027   5.417   1.393  13.554  1.0651 -2.8333  0.2152
12204TIP3    H258028   5.465   1.406  13.411 -0.8806  0.2783 -0.2445
12205TIP3   OH258029   4.883   5.967  15.990 -0.2160  0.1129  0.6063
12205TIP3    H158030   4.967   6.013  15.999  0.4129 -0.6046 -1.1632
12205TIP3    H258031   4.900   5.878  16.020 -0.2395 -0.1243 -0.0643
12206TIP3   OH258032   5.882   5.052  13.422 -0.2278  0.2076 -0.3431
12206TIP3    H158033   5.885   5.020  13.332 -0.1443 -2.3350  0.4930
12206TIP3    H258034   5.812   5.117  13.422 -1.0273 -0.5976 -1.9969
12207TIP3   OH258035   2.472   0.096   6.451  0.3322 -0.5347  0.2412
12207TIP3    H158036   2.536   0.025   6.463 -0.6770 -1.3582  0.9713
12207TIP3    H258037   2.512   0.172   6.494  1.7237 -0.4365 -1.1224
12208TIP3   OH258038   1.557   6.748  11.885  0.1217 -0.2567  0.2630
12208TIP3    H158039   1.543   6.834  11.923  0.5419  0.1298 -0.4262
12208TIP3    H258040   1.535   6.686  11.954 -1.8743  0.3502  0.2163
12209TIP3   OH258041   0.876   4.749   5.662 -0.4032  0.6950  0.2021
12209TIP3    H158042   0.961   4.717   5.694 -0.7322  0.6533  1.0505
12209TIP3    H258043   0.862   4.702   5.580  0.3742  0.6662  0.0766
12210TIP3   OH258044   2.222   4.069   4.919 -0.1461 -0.3634 -0.4425
12210TIP3    H158045   2.181   4.090   5.002  1.5149  1.8249 -0.0991
12210TIP3    H258046   2.288   4.002   4.940  2.3785  2.2856  0.7034
12211TIP3   OH258047   3.711   2.424  12.181  0.2672 -0.1581 -0.1085
12211TIP3    H158048   3.699   2.412  12.087 -0.5483 -1.5593  0.1351
12211TIP3    H258049   3.785   2.367  12.203 -0.3662 -0.8548  0.2796
12212TIP3   OH258050   1.257   4.845   0.866 -0.0199  0.0575 -0.3101
12212TIP3    H158051   1.291   4.906   0.800  1.3758  0.5714  0.8441
12212TIP3    H258052   1.237   4.765   0.816  0.0251  0.7712 -1.5061
12213TIP3   OH258053   4.339   1.794  12.351  0.2550 -0.1978 -0.1031
12213TIP3    H158054   4.311   1.883  12.330 -0.5322 -0.8335 -1.9438
12213TIP3    H258055   4.430   1.789  12.319  0.9355  0.4511  1.6317
12214TIP3   OH258056   0.203   4.191  14.358  0.2956 -0.3685 -0.2977
12214TIP3    H158057   0.248   4.192  14.273 -0.4243 -0.4821 -0.6815
12214TIP3    H258058   0.161   4.105  14.362 -0.6147  0.0640 -0.3274
12215TIP3   OH258059   0.917   0.814   2.815  0.1218 -0.1829  0.8986
12215TIP3    H158060   0.871   0.817   2.900  0.3682 -3.0811  1.2357
12215TIP3    H258061   0.853   0.774   2.755  1.4066 -2.3646  0.8828
12216TIP3   OH258062   5.836   6.344   1.846  0.2854 -0.7161 -0.5933
12216TIP3    H158063   5.851   6.416   1.785  0.4893 -1.6411 -1.6644
12216TIP3    H258064   5.900   6.277   1.822  1.0824 -0.7224  1.3130
12217TIP3   OH258065   3.117   5.642  16.136  0.0209 -1.0374 -0.0348
12217TIP3    H158066   3.099   5.607  16.223 -0.0381  0.9242  0.8123
12217TIP3    H258067   3.035   5.683  16.109  0.5416 -0.0425 -0.1716
12218TIP3   OH258068   0.913   5.377   6.387 -0.2709  0.3438 -0.7171
12218TIP3    H158069   0.847   5.318   6.349  0.5261  0.1630 -1.8754
12218TIP3    H258070   0.934   5.437   6.317  2.1290 -0.7400 -1.0122
12219TIP3   OH258071   2.659   5.050  11.977  0.0524  0.0021 -0.1615
12219TIP3    H158072   2.581   5.046  11.922 -0.1085  1.3817 -0.0803
12219TIP3    H258073   2.646   5.128  12.031  3.5570  3.2422 -3.4207
12220TIP3   OH258074   1.287   1.560   0.241 -0.2903 -0.4374  0.4744
12220TIP3    H158075   1.336   1.479   0.232 -0.9067 -0.8260  0.5154
12220TIP3    H258076   1.209   1.547   0.186 -0.2552  0.2435  0.2410
12221TIP3   OH258077   0.305   5.451  16.819 -0.4373 -0.0751  0.0119
12221TIP3    H158078   0.243   5.502  16.769 -0.3930  0.3754  0.4058
12221TIP3    H258079   0.384   5.505  16.822 -0.8615  0.5271  1.6742
12222TIP3   OH258080   0.925   0.544  13.698  0.1763  0.1501 -0.6107
12222TIP3    H158081   0.983   0.600  13.750 -0.4250  0.1425  0.0790
12222TIP3    H258082   0.968   0.538  13.612 -0.1218  2.3109 -0.9812
12223TIP3   OH258083   5.302   0.535   1.829 -0.3196 -0.0371 -0.3541
12223TIP3    H158084   5.264   0.520   1.916 -0.2415  0.1321 -0.2897
12223TIP3    H258085   5.291   0.451   1.784  1.2133 -0.6923  0.4147
12224TIP3   OH258086   0.487   4.080   6.479  0.0580  0.0391  0.0095
12224TIP3    H158087   0.435   4.135   6.538 -1.6634 -0.8016 -0.6534
12224TIP3    H258088   0.557   4.046   6.534 -0.3322  0.8626  1.0593
12225TIP3   OH258089   3.320   1.831  10.990 -0.4239 -0.3080 -0.0702
12225TIP3    H158090   3.272   1.834  11.072 -2.7438  1.7976 -1.3852
12225TIP3    H258091   3.381   1.905  10.994 -0.5898 -0.1598 -0.2831
12226TIP3   OH258092   4.680   2.143  13.251 -0.2634  0.4745 -0.5683
12226TIP3    H158093   4.758   2.194  13.228  0.2072 -0.1405 -0.3684
12226TIP3    H258094   4.635   2.195  13.317 -0.0618  0.8736 -0.7447
12227TIP3   OH258095   6.529   0.573  10.485 -0.1340  0.2831  0.2573
12227TIP3    H158096   6.605   0.516  10.475  0.6785  1.4772 -0.5050
12227TIP3    H258097   6.455   0.512  10.491  0.5055 -0.8662 -2.2431
12228TIP3   OH258098   2.261   3.779  16.579  0.0304 -0.4937 -0.0741
12228TIP3    H158099   2.205   3.848  16.545 -1.7915 -2.1890 -0.6995
12228TIP3    H258100   2.297   3.815  16.660 -0.6030  1.2693 -0.5321
12229TIP3   OH258101   0.915   2.525   6.316  0.5684  0.2825  0.0126
12229TIP3    H158102   1.011   2.528   6.316  0.7447 -2.4304  1.3683
12229TIP3    H258103   0.891   2.512   6.408 -0.8468 -2.1596 -0.5964
12230TIP3   OH258104   3.267   5.036  11.795  0.0810  0.2387  0.2547
12230TIP3    H158105   3.329   5.108  11.807  0.0516  0.2522  0.3271
12230TIP3    H258106   3.182   5.078  11.785  0.4744  0.4571 -3.3700
12231TIP3   OH258107   0.254   6.268   2.358  0.0762 -0.5424 -0.3786
12231TIP3    H158108   0.166   6.304   2.351 -0.2730 -1.5143 -1.0625
12231TIP3    H258109   0.311   6.344   2.347 -0.6614 -0.0924 -1.2465
12232TIP3   OH258110   4.155   0.520   4.023  0.6210 -0.1340  0.1485
12232TIP3    H158111   4.238   0.565   4.015  0.0255  0.9014 -0.3989
12232TIP3    H258112   4.089   0.589   4.024 -0.2861 -0.9556 -0.2683
12233TIP3   OH258113   6.649   3.357  10.427  0.0816  0.0677 -0.1526
12233TIP3    H158114   6.595   3.436  10.437  0.5845  0.4946 -0.7213
12233TIP3    H258115   6.739   3.388  10.431  0.2938 -0.3335 -1.3152
12234TIP3   OH258116   0.864   6.513  11.197  0.4012 -0.5666 -0.2284
12234TIP3    H158117   0.836   6.561  11.119 -1.2247 -1.7968 -0.4525
12234TIP3    H258118   0.888   6.426  11.164 -0.4213 -1.1371  0.6418
12235TIP3   OH258119   6.554   3.848   0.244  0.0528  0.2126 -0.3691
12235TIP3    H158120   6.544   3.846   0.339  0.0241 -0.1801 -0.3783
12235TIP3    H258121   6.546   3.940   0.220  0.0297  0.3065  0.0066
12236TIP3   OH258122   2.529   2.715  11.811 -0.2499 -0.3852  0.4567
12236TIP3    H158123   2.555   2.631  11.851  0.4803 -0.5011 -0.2247
12236TIP3    H258124   2.570   2.781  11.867  0.8325 -0.5482 -0.1094
12237TIP3   OH258125   0.942   3.467   2.203  0.0165 -0.0205 -0.4654
12237TIP3    H158126   0.871   3.446   2.264 -1.8522  1.1648 -2.0657
12237TIP3    H258127   0.991   3.537   2.246 -2.5916  2.3744 -1.0730
12238TIP3   OH258128   6.404   1.722   2.908 -0.3588 -0.2736  0.1580
12238TIP3    H158129   6.374   1.660   2.841  0.9026  0.4664 -1.1392
12238TIP3    H258130   6.339   1.792   2.907  0.2437  0.2734 -1.0902
12239TIP3   OH258131   0.711   1.208   1.873 -0.3555 -0.0746 -0.1620
12239TIP3    H158132   0.770   1.249   1.810 -0.3209  0.5746  0.2946
12239TIP3    H258133   0.740   1.240   1.958 -1.4844  0.4034  0.0513
12240TIP3   OH258134   0.937   4.528  15.373  0.6772  0.4054  0.0375
12240TIP3    H158135   0.912   4.535  15.281  2.7182 -1.0490 -0.6812
12240TIP3    H258136   0.929   4.618  15.406  1.1074  1.2093 -1.8911
12241TIP3   OH258137   6.128   1.278  15.389  0.0756 -0.0026 -0.9059
12241TIP3    H158138   6.056   1.218  15.409  0.1351  0.1360 -0.2592
12241TIP3    H258139   6.185   1.229  15.330  1.0620 -1.2627  0.9932
12242TIP3   OH258140   5.546   2.180   5.292  0.5234 -0.5321 -0.4780
12242TIP3    H158141   5.486   2.190   5.366  0.8467  0.7566 -0.3698
12242TIP3    H258142   5.623   2.137   5.330  1.3030  1.4261  0.3312
12243TIP3   OH258143   2.640   4.958  16.275 -0.2848 -0.4166 -0.3002
12243TIP3    H158144   2.734   4.971  16.281  0.0998 -2.3174 -1.2916
12243TIP3    H258145   2.626   4.925  16.186 -1.2611 -4.2675  1.0997
12244TIP3   OH258146   5.758   3.862  11.533  0.3236  0.2316 -0.0599
12244TIP3    H158147   5.779   3.792  11.472 -0.3736  0.4023 -0.5088
12244TIP3    H258148   5.783   3.828  11.619 -1.3518 -1.1475 -0.0828
12245TIP3   OH258149   1.552   5.773   6.815 -0.1769  0.0525  0.0419
12245TIP3    H158150   1.511   5.786   6.730 -3.3698 -0.0265  1.4215
12245TIP3    H258151   1.548   5.858   6.858  0.5878 -0.1068  0.4681
12246TIP3   OH258152   1.725   3.425  15.721  0.2622  0.5730 -0.2057
12246TIP3    H158153   1.693   3.409  15.810  1.7300 -2.4029 -0.0749
12246TIP3    H258154   1.671   3.369  15.666 -0.8408  2.6246 -1.3218
12247TIP3   OH258155   0.507   1.294  15.068  0.4734  0.8052 -0.2290
12247TIP3    H158156   0.461   1.262  15.146 -1.4612  0.4711 -1.4566
12247TIP3    H258157   0.509   1.219  15.009 -0.4831  1.7708 -1.5350
12248TIP3   OH258158   6.483   5.007   3.606  0.0421 -0.3391  0.3172
12248TIP3    H158159   6.545   5.077   3.586  1.2195 -1.5980 -0.6041
12248TIP3    H258160   6.524   4.958   3.678  0.1658 -1.2066 -0.3252
12249TIP3   OH258161   2.775   2.688  11.289  0.6276 -0.8196  0.2222
12249TIP3    H158162   2.744   2.613  11.339  0.2745 -0.4920  0.5117
12249TIP3    H258163   2.743   2.673  11.200 -0.5765 -0.3882  0.5594
12250TIP3   OH258164   0.364   4.109   5.273  0.2232  0.2646 -0.0109
12250TIP3    H158165   0.459   4.126   5.278  0.0890  1.1090 -0.1610
12250TIP3    H258166   0.335   4.110   5.365  0.0974  1.6415 -0.0510
12251TIP3   OH258167   1.078   0.699   4.083  0.1941 -0.7309  0.4123
12251TIP3    H158168   1.157   0.723   4.035 -0.2693  0.2773  0.1257
12251TIP3    H258169   1.107   0.688   4.174  0.3514  1.6012  0.7032
12252TIP3   OH258170   1.778   2.307   0.947 -0.4798 -0.0716 -0.0461
12252TIP3    H158171   1.771   2.245   1.019  0.2921  0.4128  0.4698
12252TIP3    H258172   1.712   2.374   0.966  0.8686  0.9934  1.2112
12253TIP3   OH258173   4.525   6.624   2.338  0.3641  0.0977 -0.2027
12253TIP3    H158174   4.450   6.668   2.378 -0.2927 -1.3550  0.2716
12253TIP3    H258175   4.498   6.609   2.247  1.8293  3.3365 -1.2814
12254TIP3   OH258176   1.829   5.801  15.803 -0.5596  0.4046  0.1852
12254TIP3    H158177   1.741   5.827  15.773 -0.8135  0.1334  0.6793
12254TIP3    H258178   1.813   5.727  15.862  0.0234  0.1983  0.0867
12255TIP3   OH258179   6.380   2.692   4.568  0.1783  0.1604  0.1410
12255TIP3    H158180   6.381   2.632   4.643  0.0745  1.9619  1.6650
12255TIP3    H258181   6.471   2.697   4.540  0.4444  0.4508  1.0145
12256TIP3   OH258182   3.942   6.627   1.625 -0.5067 -0.2868 -0.1086
12256TIP3    H158183   3.892   6.646   1.546  0.2718  0.7249 -0.3813
12256TIP3    H258184   4.008   6.697   1.630 -1.1778  0.2844  1.9805
12257TIP3   OH258185   1.949   0.386  15.204  0.1434  0.1705  0.0952
12257TIP3    H158186   1.936   0.480  15.192 -1.8928 -0.2164 -1.3002
12257TIP3    H258187   1.984   0.378  15.293  1.6785  2.2967 -0.2265
12258TIP3   OH258188   5.619   5.334  15.736  0.9969  0.4396  0.3079
12258TIP3    H158189   5.631   5.301  15.647  0.3386 -0.4576  0.5397
12258TIP3    H258190   5.533   5.377  15.735  0.5698 -0.3882  0.7389
12259TIP3   OH258191   0.227   1.939   3.043  0.1912 -0.7376 -0.5863
12259TIP3    H158192   0.295   1.929   3.110 -0.1451 -0.3192 -0.1753
12259TIP3    H258193   0.174   1.859   3.050  0.4889 -0.9495 -0.7366
12260TIP3   OH258194   4.973   1.583  12.560  0.1414  0.6452 -0.4496
12260TIP3    H158195   4.879   1.569  12.570  0.5192 -1.7355  0.3208
12260TIP3    H258196   4.995   1.646  12.629 -0.9547  1.8117 -1.1080
12261TIP3   OH258197   1.727   2.238   0.113 -0.6230 -0.2275  0.4538
12261TIP3    H158198   1.750   2.240   0.206 -0.8075 -0.5322  0.5057
12261TIP3    H258199   1.730   2.330   0.086 -0.5299 -0.1417  0.7516
12262TIP3   OH258200   2.106   6.031  14.586  0.1793 -0.5915 -0.1274
12262TIP3    H158201   2.157   6.076  14.653  2.0877 -0.1897 -1.7484
12262TIP3    H258202   2.015   6.055  14.605  0.7713  0.5568  1.5142
12263TIP3   OH258203   4.807   4.301  13.917 -0.9998  0.5290 -0.0234
12263TIP3    H158204   4.821   4.389  13.885 -0.2405  0.4470  0.0614
12263TIP3    H258205   4.741   4.311  13.987  0.3490  1.2875  1.1913
12264TIP3   OH258206   4.922   4.186  14.344  0.0654 -0.1420 -0.2480
12264TIP3    H158207   4.897   4.189  14.436  1.6100  0.4724  0.1808
12264TIP3    H258208   4.841   4.167  14.297 -0.2988 -3.4482  1.4474
12265TIP3   OH258209   5.575   5.193  12.857  0.0052 -0.5643  0.1524
12265TIP3    H158210   5.621   5.275  12.836 -1.5998  0.2651 -0.2317
12265TIP3    H258211   5.562   5.150  12.773 -1.9031  0.3174 -0.0538
12266TIP3   OH258212   2.612   2.777   2.885 -0.3548  0.7367 -0.5263
12266TIP3    H158213   2.562   2.758   2.806  1.6274  0.4042 -1.7624
12266TIP3    H258214   2.621   2.872   2.885  0.6200  0.6651 -1.3780
12267TIP3   OH258215   4.619   0.629  12.912 -0.6124 -0.0574  0.2124
12267TIP3    H158216   4.672   0.550  12.911 -1.8726 -1.1158  3.4650
12267TIP3    H258217   4.539   0.605  12.865  0.9672  1.0862 -3.4013
12268TIP3   OH258218   3.817   0.538  10.683  0.3041  0.0415  0.5812
12268TIP3    H158219   3.824   0.443  10.668 -0.2536  0.1458 -0.4195
12268TIP3    H258220   3.863   0.552  10.765  0.7128 -1.0523  0.5631
12269TIP3   OH258221   0.647   0.119   5.161 -0.3786 -0.1480  0.0096
12269TIP3    H158222   0.555   0.144   5.160 -0.3020  0.2073 -1.9134
12269TIP3    H258223   0.645   0.024   5.172 -0.8839  0.0133  1.5595
12270TIP3   OH258224   1.411   1.654   2.526  0.2196  0.3181 -0.2573
12270TIP3    H158225   1.337   1.618   2.575 -0.4339  1.5946 -0.2406
12270TIP3    H258226   1.455   1.578   2.488  0.0998 -0.6195  1.3946
12271TIP3   OH258227   4.651   1.411  12.092  0.2693  0.0212 -0.9974
12271TIP3    H158228   4.612   1.327  12.115  1.4925 -0.0660  0.9092
12271TIP3    H258229   4.618   1.429  12.004  0.1566 -2.5385 -1.5443
12272TIP3   OH258230   4.839   3.455   1.874  0.1418  0.0197  0.0782
12272TIP3    H158231   4.912   3.413   1.920  0.2399 -0.7644 -0.7696
12272TIP3    H258232   4.764   3.398   1.893  0.0051  0.1624 -0.0394
12273TIP3   OH258233   4.056   2.708  13.685 -0.6051 -0.6622  0.4403
12273TIP3    H158234   4.030   2.760  13.760 -0.8669 -0.9999  0.5871
12273TIP3    H258235   4.112   2.639  13.722 -0.0237 -0.3245  0.2131
12274TIP3   OH258236   2.619   3.438  13.704  0.0625  0.5284  0.6200
12274TIP3    H158237   2.647   3.429  13.613  1.7635 -0.1725  1.1712
12274TIP3    H258238   2.598   3.531  13.713 -0.0440  0.6257 -0.4677
12275TIP3   OH258239   1.290   3.226   3.979  0.3033 -0.5479  0.2735
12275TIP3    H158240   1.356   3.198   3.916 -0.1653 -1.1479  0.0422
12275TIP3    H258241   1.338   3.282   4.040  0.9285 -0.6125 -0.1491
12276TIP3   OH258242   2.320   4.140  14.392  0.1492  0.4821 -0.9543
12276TIP3    H158243   2.389   4.078  14.372 -0.2670  0.0274 -0.9870
12276TIP3    H258244   2.247   4.113  14.337 -0.7932 -0.3784  0.6488
12277TIP3   OH258245   2.480   3.237  15.079  0.2516 -0.0073 -0.2478
12277TIP3    H158246   2.460   3.144  15.090 -0.4848  0.3232  1.6403
12277TIP3    H258247   2.403   3.283  15.113  1.6402  1.2915  1.3907
12278TIP3   OH258248   1.667   0.149  11.445  0.2502 -0.0135  0.1208
12278TIP3    H158249   1.763   0.149  11.445  0.4022 -3.6718  1.8271
12278TIP3    H258250   1.644   0.191  11.527  0.4797 -0.6876  0.5366
12279TIP3   OH258251   0.032   2.362   5.114  0.6094 -0.5706 -0.4990
12279TIP3    H158252  -0.055   2.398   5.094  1.0990  1.1551  0.2883
12279TIP3    H258253   0.088   2.394   5.044  1.4627  2.0514  1.2032
12280TIP3   OH258254   1.545   5.475   1.459  0.0473  0.2811 -0.1348
12280TIP3    H158255   1.467   5.476   1.515  0.9799  0.4324  1.1913
12280TIP3    H258256   1.608   5.420   1.506  0.0546 -1.5950 -2.1942
12281TIP3   OH258257   3.850   3.733  12.803 -0.2237 -0.0535 -0.2698
12281TIP3    H158258   3.757   3.712  12.802 -0.4048  0.5976  1.0197
12281TIP3    H258259   3.855   3.821  12.840  0.8977 -0.0393 -0.4116
12282TIP3   OH258260   5.545   2.829   5.721 -0.0911  0.5614 -0.2423
12282TIP3    H158261   5.499   2.913   5.727 -0.5316  0.4022 -1.1463
12282TIP3    H258262   5.552   2.812   5.627  0.2190 -0.2950 -0.0776
12283TIP3   OH258263   1.717   3.617   2.464 -0.4781 -0.0267  0.2890
12283TIP3    H158264   1.732   3.623   2.369  0.4590 -0.8049  0.3721
12283TIP3    H258265   1.654   3.687   2.482 -0.2813  0.4761 -0.8254
12284TIP3   OH258266   6.578   0.114  13.227  0.6302  0.3801  0.3954
12284TIP3    H158267   6.596   0.179  13.159 -0.2390 -0.0456 -0.2620
12284TIP3    H258268   6.488   0.132  13.255 -1.0195 -2.6317 -2.2964
12285TIP3   OH258269   2.900   6.108  13.670 -0.0303 -0.4955  0.4115
12285TIP3    H158270   2.937   6.180  13.619  0.6653 -1.5853 -0.6895
12285TIP3    H258271   2.829   6.148  13.720 -1.6189  0.4636 -2.3357
12286TIP3   OH258272   6.311   6.675   1.246 -0.5689 -0.0522 -0.1408
12286TIP3    H158273   6.324   6.739   1.315  0.2238 -0.6967  0.3167
12286TIP3    H258274   6.390   6.622   1.246 -0.8010 -0.4304 -1.1603
12287TIP3   OH258275   0.400   1.554   1.988  0.2462 -0.1869 -0.5832
12287TIP3    H158276   0.422   1.631   1.937 -1.7729  0.0102 -1.2613
12287TIP3    H258277   0.437   1.570   2.075  4.8189 -1.0480 -2.1101
12288TIP3   OH258278   3.517   1.276  15.839  0.1825 -0.0611  0.1042
12288TIP3    H158279   3.597   1.291  15.889  1.2077 -0.8916 -1.2432
12288TIP3    H258280   3.522   1.185  15.811 -0.5016  0.2850 -1.2551
12289TIP3   OH258281   3.048   5.669  11.243 -0.0798  0.3297  0.0648
12289TIP3    H158282   3.125   5.653  11.298 -1.6422  2.3016  3.0850
12289TIP3    H258283   2.992   5.592  11.258 -0.1549  0.4863  0.5935
12290TIP3   OH258284   2.960   0.311   5.437 -0.4186  0.0330  0.2220
12290TIP3    H158285   2.926   0.269   5.358  0.1016  0.8359 -0.4503
12290TIP3    H258286   2.935   0.403   5.427  0.9916  0.4421  0.2118
12291TIP3   OH258287   3.137   6.172   1.377 -0.1958 -0.0808 -0.2207
12291TIP3    H158288   3.099   6.255   1.404  0.1506 -0.3554  1.1898
12291TIP3    H258289   3.061   6.115   1.361 -0.4309  0.4772 -1.1435
12292TIP3   OH258290   2.447   3.140  12.648  0.3006 -0.0699  0.1597
12292TIP3    H158291   2.429   3.208  12.583  2.6413  0.1561 -0.3344
12292TIP3    H258292   2.393   3.066  12.620 -0.4389  0.7797 -0.7216
12293TIP3   OH258293   2.137   0.167   6.155  0.2457 -0.5162  0.7550
12293TIP3    H158294   2.212   0.198   6.205 -0.0274 -0.6495  1.2473
12293TIP3    H258295   2.099   0.097   6.207 -1.2963  0.7297  1.4203
12294TIP3   OH258296   4.370   4.430   3.351  0.5317  0.3726  1.0178
12294TIP3    H158297   4.441   4.385   3.304  0.1007  1.4279 -0.7501
12294TIP3    H258298   4.369   4.518   3.314 -1.1174  0.6507  1.6415
12295TIP3   OH258299   0.798   1.276  16.608 -0.2772 -0.0067  0.5393
12295TIP3    H158300   0.779   1.284  16.514 -0.5086 -0.5332  0.5367
12295TIP3    H258301   0.888   1.309  16.617 -0.0712 -0.4095  0.0513
12296TIP3   OH258302   5.568   0.285  13.394 -0.4098  0.3029 -0.4286
12296TIP3    H158303   5.658   0.312  13.413  0.1938 -2.2236  0.7291
12296TIP3    H258304   5.529   0.270  13.480 -1.6487  0.4226 -0.9511
12297TIP3   OH258305   1.917   1.748  14.401  0.5493 -0.2601 -1.2553
12297TIP3    H158306   1.978   1.697  14.348  0.6257  0.2985 -1.7164
12297TIP3    H258307   1.848   1.774  14.340  0.0722 -0.5284 -0.8350
12298TIP3   OH258308   1.967   0.491  17.137  0.4003  0.0541 -0.1782
12298TIP3    H158309   2.041   0.451  17.092  0.3345 -1.7051  1.1757
12298TIP3    H258310   1.967   0.451  17.224 -3.2093 -1.4233 -0.7178
12299TIP3   OH258311   4.709   1.624  12.606  0.1683 -0.3510 -0.4758
12299TIP3    H158312   4.654   1.575  12.667 -0.0923  0.7921  0.2369
12299TIP3    H258313   4.682   1.594  12.520 -2.2819  0.8619 -0.1959
12300TIP3   OH258314   6.771   1.882  17.170 -0.6236  0.6017  0.5509
12300TIP3    H158315   6.788   1.941  17.096 -0.3355  0.9851  0.9189
12300TIP3    H258316   6.712   1.816  17.134  0.7446 -0.1367 -0.4746
12301TIP3   OH258317   5.034   2.258   5.588  0.3965  0.1085  0.0223
12301TIP3    H158318   5.065   2.307   5.511 -0.7845  0.4275 -0.2755
12301TIP3    H258319   5.091   2.288   5.659  0.1055  1.4831 -0.2834
12302TIP3   OH258320   1.899   1.084   3.732  0.3030  0.5239  0.2948
12302TIP3    H158321   1.975   1.060   3.678 -0.0295  1.0178 -0.4019
12302TIP3    H258322   1.908   1.030   3.811  0.4629 -0.6830 -0.5184
12303TIP3   OH258323   6.535   0.918   3.548  0.0525  0.1049  0.0715
12303TIP3    H158324   6.487   0.839   3.522 -0.3308 -0.1395  1.4305
12303TIP3    H258325   6.489   0.989   3.504 -0.1130 -0.3509 -0.5016
12304TIP3   OH258326   5.243   5.561   3.364  0.8337 -0.0055  0.6312
12304TIP3    H158327   5.222   5.468   3.368 -1.7290  0.5449  2.3648
12304TIP3    H258328   5.282   5.573   3.277 -3.4369 -1.8686 -1.8688
12305TIP3   OH258329   0.288   6.235  13.870 -0.0190  0.1541  0.2059
12305TIP3    H158330   0.257   6.321  13.840 -0.3624 -0.3830 -1.0332
12305TIP3    H258331   0.334   6.199  13.794  0.3343 -0.6656  0.8019
12306TIP3   OH258332   5.481   4.043   5.751 -0.0674  0.2065  0.3013
12306TIP3    H158333   5.423   4.096   5.805 -1.6677 -1.3818  0.2189
12306TIP3    H258334   5.558   4.029   5.807 -1.4044 -0.8594  1.9701
12307TIP3   OH258335   6.754   1.480   6.403  0.0235  0.2786 -0.4936
12307TIP3    H158336   6.763   1.411   6.337 -0.3467  0.6429 -0.9380
12307TIP3    H258337   6.837   1.480   6.450 -0.0364 -0.5805 -0.3750
12308TIP3   OH258338   4.334   2.047   4.764 -0.6279 -0.4412  0.3180
12308TIP3    H158339   4.296   1.973   4.715 -0.8077 -0.4880  0.5280
12308TIP3    H258340   4.354   2.011   4.850  0.0836 -0.4706  0.1474
12309TIP3   OH258341   4.768   5.589   1.819 -0.6077  0.3469 -0.3970
12309TIP3    H158342   4.828   5.659   1.794 -0.2625  0.4292  0.6279
12309TIP3    H258343   4.781   5.578   1.913 -0.5835 -1.1671 -0.5515
12310TIP3   OH258344   6.347   3.166  12.080  0.2436  0.3767  0.1349
12310TIP3    H158345   6.424   3.121  12.044 -0.3508 -1.3722  0.9510
12310TIP3    H258346   6.377   3.255  12.095  1.7652  0.0389 -0.6680
12311TIP3   OH258347   3.525   2.257   1.522 -0.4834  0.4463  0.1473
12311TIP3    H158348   3.539   2.191   1.454 -1.7507 -0.2260  0.5041
12311TIP3    H258349   3.486   2.331   1.477  0.3780  0.7353 -0.1500
12312TIP3   OH258350   5.882   1.566  15.607  0.1892 -0.2937 -0.3429
12312TIP3    H158351   5.863   1.660  15.603 -0.8509 -0.5154 -0.7110
12312TIP3    H258352   5.975   1.561  15.585  0.5255  0.7292  0.7084
12313TIP3   OH258353   4.285   2.121  14.420  0.0120 -0.0430 -0.2859
12313TIP3    H158354   4.380   2.127  14.409 -0.0190  1.3767  0.1229
12313TIP3    H258355   4.265   2.029  14.400  0.9413  0.4643 -4.2228
12314TIP3   OH258356   5.160   3.490   1.331  0.4463  0.2114  0.3336
12314TIP3    H158357   5.076   3.461   1.367  0.5905 -1.6636 -0.7160
12314TIP3    H258358   5.140   3.575   1.290 -1.7331 -1.4860 -2.4818
12315TIP3   OH258359   3.250   1.140  12.448 -0.2558 -0.6719 -0.6825
12315TIP3    H158360   3.274   1.208  12.386 -0.4282 -0.0254 -0.0505
12315TIP3    H258361   3.155   1.151  12.460  0.1146  0.7672  1.4838
12316TIP3   OH258362   1.321   4.828  12.969  1.0871  0.1418 -0.7845
12316TIP3    H158363   1.392   4.764  12.974  0.0673 -1.0090 -0.5538
12316TIP3    H258364   1.327   4.878  13.050  1.1113 -0.5339 -0.3605
12317TIP3   OH258365   6.488   3.465  17.033 -0.1745 -0.0646  0.5278
12317TIP3    H158366   6.480   3.513  16.951  0.2332 -0.4869  0.2300
12317TIP3    H258367   6.576   3.427  17.029 -0.7017 -1.3482  0.4573
12318TIP3   OH258368   6.672   6.709   1.486 -0.0464  0.9160  0.5685
12318TIP3    H158369   6.746   6.753   1.442 -0.1971  0.2863 -0.3364
12318TIP3    H258370   6.599   6.771   1.478 -0.7237 -0.1024 -2.1904
12319TIP3   OH258371   3.606   1.795   0.384 -0.6275 -0.4460 -0.3530
12319TIP3    H158372   3.516   1.790   0.354 -1.0643 -2.7579  1.0592
12319TIP3    H258373   3.605   1.858   0.456 -0.5648  1.3300 -1.8324
12320TIP3   OH258374   4.939   2.549   0.692 -0.6708 -0.7080 -0.3177
12320TIP3    H158375   4.934   2.511   0.780  3.0380  0.3534  0.5014
12320TIP3    H258376   4.964   2.475   0.636 -1.9878 -1.1611 -0.3464
12321TIP3   OH258377   1.505   2.098  13.998  0.8827 -0.1574  0.4241
12321TIP3    H158378   1.472   2.018  14.040  2.7169 -0.9543  0.4411
12321TIP3    H258379   1.540   2.149  14.071  0.0313  0.5319  0.3662
12322TIP3   OH258380   0.391   4.419   1.924  0.2137  0.6071 -0.3912
12322TIP3    H158381   0.300   4.450   1.913  0.0213  0.3828  0.5176
12322TIP3    H258382   0.383   4.324   1.929  0.2996  0.6756  1.4356
12323TIP3   OH258383   0.823   1.844   4.846  0.2916  0.0400 -0.2855
12323TIP3    H158384   0.853   1.864   4.935 -1.0180  1.2176 -0.0861
12323TIP3    H258385   0.735   1.808   4.858 -0.0323  0.5291 -1.1153
12324TIP3   OH258386   6.414   1.388  11.641 -0.3367 -0.2199 -0.5338
12324TIP3    H158387   6.391   1.303  11.679 -0.2432  0.4833  1.2113
12324TIP3    H258388   6.510   1.392  11.648 -0.1070 -0.8551 -2.6727
12325TIP3   OH258389   0.651   5.873   1.531 -0.0244 -0.2165  0.0341
12325TIP3    H158390   0.687   5.836   1.611 -0.1540 -2.3319 -0.8355
12325TIP3    H258391   0.727   5.911   1.487  0.5843 -1.6196 -0.1768
12326TIP3   OH258392   6.428   1.648  11.999  0.0764  0.2486 -0.5993
12326TIP3    H158393   6.359   1.630  12.062  1.4278  1.5836  1.3624
12326TIP3    H258394   6.455   1.738  12.017  0.3068  0.8238 -3.3490
12327TIP3   OH258395   5.041   2.496   2.467  0.4331  0.7742  0.1175
12327TIP3    H158396   5.024   2.512   2.374 -0.8603 -0.9256  0.0227
12327TIP3    H258397   4.956   2.507   2.510  0.3346 -1.4613  0.6158
12328TIP3   OH258398   2.361   3.552   2.838 -0.0048  0.3144  0.0518
12328TIP3    H158399   2.341   3.602   2.916  0.0395 -0.0142  0.2754
12328TIP3    H258400   2.389   3.466   2.870 -0.1524  0.1190 -0.3279
12329TIP3   OH258401   1.182   3.450   0.809 -0.1338 -0.3420 -0.3460
12329TIP3    H158402   1.231   3.379   0.850 -0.4250 -0.8731 -0.8857
12329TIP3    H258403   1.193   3.434   0.715  0.2224  0.6343 -0.4764
12330TIP3   OH258404   0.806   0.789  15.585  0.4698  0.3026 -0.1432
12330TIP3    H158405   0.832   0.744  15.504 -0.7502 -1.1549  0.2276
12330TIP3    H258406   0.844   0.877  15.577  1.0661 -0.0736 -1.9103
12331TIP3   OH258407   4.678   3.640  14.756  0.3076  0.1762 -0.3836
12331TIP3    H158408   4.622   3.583  14.810  1.0784 -2.5220 -2.2656
12331TIP3    H258409   4.618   3.707  14.724 -1.9298 -2.4004 -2.0435
12332TIP3   OH258410   6.557   1.731  12.580  0.2549 -0.1103  0.0361
12332TIP3    H158411   6.549   1.709  12.487 -0.1219  0.5072 -0.0823
12332TIP3    H258412   6.615   1.663  12.615 -0.4384 -0.9706 -0.4232
12333TIP3   OH258413   3.409   4.556  12.227 -0.2521 -0.1904 -0.1296
12333TIP3    H158414   3.382   4.645  12.246  1.2719  0.1596  0.5659
12333TIP3    H258415   3.501   4.563  12.202  0.1063 -1.6247  0.6311
12334TIP3   OH258416   6.266   5.597  12.843 -0.2918 -0.0877 -0.6196
12334TIP3    H158417   6.320   5.533  12.889  0.4981  1.2241  0.2973
12334TIP3    H258418   6.176   5.576  12.869  0.0131 -0.4247  0.1678
12335TIP3   OH258419   3.707   5.481   3.227  0.0203 -0.3264  0.9160
12335TIP3    H158420   3.740   5.525   3.305 -0.4359  0.2924  0.7624
12335TIP3    H258421   3.612   5.486   3.235 -0.0408  1.0433 -0.4037
12336TIP3   OH258422   5.802   1.321  16.650 -0.4858  0.1627  0.1468
12336TIP3    H158423   5.735   1.385  16.625 -0.8468  0.3216  1.3990
12336TIP3    H258424   5.773   1.291  16.737  1.6399  1.0721  1.2455
12337TIP3   OH258425   1.256   3.030   5.511 -0.2646  0.1064 -0.0174
12337TIP3    H158426   1.349   3.033   5.531 -0.6020 -0.8334  1.9425
12337TIP3    H258427   1.240   3.107   5.457  1.5098  0.6382  0.1609
12338TIP3   OH258428   3.261   3.292  16.618 -0.3256  0.4005 -0.2574
12338TIP3    H158429   3.212   3.373  16.636  1.3092  1.6642 -1.1848
12338TIP3    H258430   3.346   3.307  16.660  0.3610 -0.4017 -1.3434
12339TIP3   OH258431   4.474   6.429   3.578  0.1406 -0.6992 -0.3288
12339TIP3    H158432   4.399   6.489   3.575  0.1664 -0.6616 -0.2237
12339TIP3    H258433   4.525   6.450   3.500 -1.3676 -2.5661 -1.9463
12340TIP3   OH258434   0.163   5.247   4.145  0.0469  0.1809  0.2237
12340TIP3    H158435   0.154   5.185   4.217  0.1401  0.2069  0.2577
12340TIP3    H258436   0.078   5.245   4.100  0.8604 -1.9593 -1.3787
12341TIP3   OH258437   1.678   6.032  16.670  0.5143  0.1596 -0.4499
12341TIP3    H158438   1.752   5.985  16.709  1.4147 -0.3655 -2.6533
12341TIP3    H258439   1.710   6.122  16.660  0.3903  0.2266 -0.2458
12342TIP3   OH258440   3.135   5.785  16.825  0.6610 -0.1173  0.2675
12342TIP3    H158441   3.101   5.834  16.751 -0.6685 -0.0685  0.8880
12342TIP3    H258442   3.137   5.694  16.794  1.0613  0.0329 -0.1540
12343TIP3   OH258443   1.315   6.230  16.957 -0.1174  0.5856 -0.4981
12343TIP3    H158444   1.386   6.190  16.908 -0.7910 -0.1407 -0.9079
12343TIP3    H258445   1.294   6.166  17.026 -0.4738  0.7231 -0.4758
12344TIP3   OH258446   0.589   3.617  13.246  0.3723 -0.2129 -0.1472
12344TIP3    H158447   0.567   3.640  13.336  0.0865 -0.8490 -0.0458
12344TIP3    H258448   0.673   3.572  13.253  1.0190  0.9469 -0.3649
12345TIP3   OH258449   6.177   3.004  13.832  0.3628  0.3677 -0.0631
12345TIP3    H158450   6.092   2.977  13.867 -0.3248  1.0004 -1.2065
12345TIP3    H258451   6.165   3.006  13.737  2.1929 -1.3163 -0.4091
12346TIP3   OH258452   4.705   4.554   0.293 -0.3801 -0.0017  0.3611
12346TIP3    H158453   4.670   4.499   0.363 -0.4413  0.3096  0.5749
12346TIP3    H258454   4.657   4.636   0.300 -1.0910 -0.3183 -0.6819
12347TIP3   OH258455   0.458   4.771   4.405  0.6684 -0.2876  0.5209
12347TIP3    H158456   0.487   4.824   4.331  1.2815 -2.0349 -0.5378
12347TIP3    H258457   0.396   4.827   4.452  0.4931  0.9620 -1.1372
12348TIP3   OH258458   2.603   3.963   0.510 -0.1823 -0.2050 -0.4448
12348TIP3    H158459   2.618   3.980   0.602  0.6920 -0.0312 -0.6177
12348TIP3    H258460   2.614   3.869   0.500 -0.5306 -0.2595 -0.3289
12349TIP3   OH258461   4.633   2.401  16.509  0.3357 -0.2565  0.1255
12349TIP3    H158462   4.627   2.407  16.604 -0.5654  0.0904  0.0591
12349TIP3    H258463   4.708   2.344  16.493 -1.0689 -2.4951  1.0945
12350TIP3   OH258464   4.984   5.153  12.853  0.2872 -0.0701  0.3968
12350TIP3    H158465   4.979   5.217  12.925  0.8570 -0.6423  0.9624
12350TIP3    H258466   4.901   5.107  12.855 -0.3607  1.0266 -0.3830
12351TIP3   OH258467   5.790   2.975  15.084  0.2229 -0.3587  0.2467
12351TIP3    H158468   5.742   3.053  15.114  1.0064  0.7604 -1.2693
12351TIP3    H258469   5.808   2.926  15.164 -1.1287  0.5163  1.1445
12352TIP3   OH258470   1.983   6.403   2.304  0.1215 -0.5073 -0.2133
12352TIP3    H158471   1.969   6.309   2.314 -0.0726 -0.3684  1.0767
12352TIP3    H258472   1.955   6.440   2.388  0.0573  0.7162 -0.7529
12353TIP3   OH258473   4.383   4.967   2.628 -0.1695 -0.5720 -0.4127
12353TIP3    H158474   4.311   5.020   2.594  0.2316  0.0558 -0.2982
12353TIP3    H258475   4.408   4.910   2.555 -0.5670 -0.5691 -0.5521
12354TIP3   OH258476   5.714   1.690   2.102  0.2337  0.1712 -0.2602
12354TIP3    H158477   5.726   1.646   2.186  0.5271  0.0741 -0.3534
12354TIP3    H258478   5.758   1.774   2.112 -1.1903  0.8965  0.2715
12355TIP3   OH258479   2.493   2.990  16.051 -0.4154  0.2342  0.3857
12355TIP3    H158480   2.418   3.050  16.046 -1.1992 -0.8104 -2.1313
12355TIP3    H258481   2.568   3.046  16.067 -1.4100  1.6432  0.2802
12356TIP3   OH258482   3.070   6.359   6.411  0.3385 -0.2862  0.4088
12356TIP3    H158483   2.994   6.305   6.391 -0.3506  0.8193 -0.0131
12356TIP3    H258484   3.034   6.443   6.438  1.3907 -0.0486  1.1753
12357TIP3   OH258485   6.782   3.279   1.816  0.2362 -0.0632  0.0035
12357TIP3    H158486   6.814   3.189   1.807 -0.9354 -0.3793 -1.5468
12357TIP3    H258487   6.833   3.316   1.887  0.3096 -2.1624  1.1225
12358TIP3   OH258488   4.903   4.405   6.041  0.3851 -0.5173 -0.1261
12358TIP3    H158489   4.873   4.396   6.132  2.0730  0.1804  0.5292
12358TIP3    H258490   4.913   4.315   6.011  1.6639 -0.7922  1.0354
12359TIP3   OH258491   0.246   6.671   4.953  0.5066 -0.3876 -0.2061
12359TIP3    H158492   0.335   6.636   4.947  0.9135  0.5726 -0.0843
12359TIP3    H258493   0.207   6.627   5.029  1.4887  0.4488  0.8164
12360TIP3   OH258494   6.197   4.606  13.842 -0.1969 -0.2885  0.7238
12360TIP3    H158495   6.125   4.546  13.864  0.2627 -1.0711  0.1435
12360TIP3    H258496   6.154   4.690  13.826 -0.9054 -0.5626  1.1151
12361TIP3   OH258497   5.297   2.427  14.406 -0.2115 -0.6553 -0.8498
12361TIP3    H158498   5.313   2.438  14.313  0.5013 -0.7873 -0.7505
12361TIP3    H258499   5.347   2.497  14.448 -0.5183 -0.6021 -0.5616
12362TIP3   OH258500   3.971   4.532   6.325  0.7768 -0.3184  0.5178
12362TIP3    H158501   4.023   4.555   6.248  2.4513  0.7164  1.8565
12362TIP3    H258502   3.895   4.590   6.321  1.7578  1.0241  0.5363
12363TIP3   OH258503   4.784   3.227  15.322 -0.7187 -0.4756  0.0176
12363TIP3    H158504   4.702   3.199  15.280  0.0258 -1.4764 -0.8296
12363TIP3    H258505   4.756   3.280  15.396 -2.1723 -1.8498  0.5146
12364TIP3   OH258506   2.479   3.864  14.781 -0.5593 -0.2331  0.1056
12364TIP3    H158507   2.433   3.781  14.793  0.0227 -0.8514 -1.6447
12364TIP3    H258508   2.409   3.928  14.765 -0.9566 -0.5466  0.5643
12365TIP3   OH258509   6.752   5.846  17.035  0.2142 -0.5442 -0.3430
12365TIP3    H158510   6.763   5.776  17.099 -1.7344 -0.0151  0.6173
12365TIP3    H258511   6.823   5.907  17.054  0.6612 -1.2171  0.1983
12366TIP3   OH258512   3.777   2.688   3.585 -0.1480  0.2594 -0.1966
12366TIP3    H158513   3.840   2.622   3.556  1.9689  1.7500  0.7388
12366TIP3    H258514   3.756   2.664   3.675 -1.7145 -0.7241 -0.7631
12367TIP3   OH258515   6.121   5.855  13.953  0.2859 -0.3608 -0.1299
12367TIP3    H158516   6.185   5.896  14.012 -0.0737  0.1479 -0.0936
12367TIP3    H258517   6.064   5.805  14.011 -0.5172  0.7306  0.0394
12368TIP3   OH258518   5.337   4.089   4.791  0.1523 -0.3078 -0.1857
12368TIP3    H158519   5.342   4.185   4.785 -0.3569 -0.1472  1.4670
12368TIP3    H258520   5.426   4.059   4.775  0.7122  0.5882  1.0790
12369TIP3   OH258521   0.972   6.553  14.986 -0.2227  0.6458 -0.4672
12369TIP3    H158522   1.027   6.602  15.047 -1.5726  0.3107  1.0768
12369TIP3    H258523   0.895   6.608  14.973  0.7561  1.5468 -3.3440
12370TIP3   OH258524   1.552   1.878  11.873  0.0958  0.4436  0.0557
12370TIP3    H158525   1.611   1.954  11.867  0.6822  0.1374  1.4834
12370TIP3    H258526   1.525   1.876  11.965 -1.2128 -0.1337 -0.3213
12371TIP3   OH258527   1.345   1.637  12.644 -0.4950  0.5840 -0.3479
12371TIP3    H158528   1.430   1.680  12.647  0.0554 -0.0953 -3.0510
12371TIP3    H258529   1.366   1.545  12.628 -1.7351  0.0718  0.7909
12372TIP3   OH258530   5.290   5.847   1.972  0.6833  0.3752  0.1320
12372TIP3    H158531   5.248   5.933   1.985  0.7403  0.2153  1.4532
12372TIP3    H258532   5.301   5.841   1.877  0.7531  1.8672  0.0121
12373TIP3   OH258533   2.621   1.594   1.380  0.1626 -0.3646  0.0409
12373TIP3    H158534   2.556   1.529   1.355 -0.9784  0.9376 -0.5548
12373TIP3    H258535   2.570   1.664   1.422  1.3212  0.1945  0.5649
12374TIP3   OH258536   1.580   2.829  10.350  0.2843  0.1862  0.0052
12374TIP3    H158537   1.513   2.853  10.414  0.6838 -1.1194  0.9521
12374TIP3    H258538   1.532   2.818  10.268 -1.0875 -2.7861  1.0884
12375TIP3   OH258539   6.715   4.069   1.335  0.5665  0.0395 -0.1655
12375TIP3    H158540   6.769   4.033   1.405  0.7141  0.4368 -0.0720
12375TIP3    H258541   6.726   4.164   1.343  0.6192  0.0882 -0.7493
12376TIP3   OH258542   5.700   2.225  10.754  0.4122 -0.4789 -0.0251
12376TIP3    H158543   5.787   2.243  10.718 -0.1235 -2.0758 -2.3284
12376TIP3    H258544   5.657   2.310  10.757  1.1598 -0.0284 -1.4329
12377TIP3   OH258545   3.489   3.960  12.458 -0.3616 -0.0470  0.1279
12377TIP3    H158546   3.572   3.979  12.414 -0.0630 -0.5781  0.4553
12377TIP3    H258547   3.424   4.014  12.411  0.3861  1.4526  0.7609
12378TIP3   OH258548   6.287   4.171   2.361 -0.2152 -0.1591  0.2565
12378TIP3    H158549   6.281   4.265   2.347 -1.0840  0.2905  2.9663
12378TIP3    H258550   6.356   4.161   2.427  0.4549 -1.5393 -0.5932
12379TIP3   OH258551   0.155   6.359  12.573 -0.4527  0.3822  0.0598
12379TIP3    H158552   0.243   6.392  12.592 -0.5586  0.7860 -0.1374
12379TIP3    H258553   0.102   6.437  12.562 -1.4050  0.1963  2.6114
12380TIP3   OH258554   2.120   1.624  16.834 -0.0531 -0.3806 -0.0530
12380TIP3    H158555   2.148   1.620  16.926  0.4563  1.2070 -0.1168
12380TIP3    H258556   2.026   1.606  16.837 -0.4363  1.5317  1.0302
12381TIP3   OH258557   5.662   2.586  13.916  0.6146 -0.1238  0.0425
12381TIP3    H158558   5.749   2.615  13.944  1.7769 -3.0916 -0.1403
12381TIP3    H258559   5.618   2.562  13.997  0.4729  0.1167  0.0359
12382TIP3   OH258560   4.375   3.245   3.986 -0.0516 -0.0363 -0.2178
12382TIP3    H158561   4.323   3.225   4.064 -1.1807  0.1307 -0.9120
12382TIP3    H258562   4.442   3.176   3.984 -1.1747 -1.1802 -0.1308
12383TIP3   OH258563   0.258   5.359   3.503 -0.2715 -0.3851 -0.2177
12383TIP3    H158564   0.336   5.414   3.489  1.7494 -2.6465  1.2832
12383TIP3    H258565   0.198   5.384   3.432  1.6229  1.7644 -1.2038
12384TIP3   OH258566   6.418   4.075  17.035  0.3034 -0.6604 -0.1900
12384TIP3    H158567   6.486   4.100  16.972  0.5344 -0.3531  0.1733
12384TIP3    H258568   6.377   4.158  17.059  1.0985 -0.6054  1.0561
12385TIP3   OH258569   6.445   0.992   3.943 -0.5318  0.2657  0.6802
12385TIP3    H158570   6.376   0.925   3.943 -1.5127  1.2220 -0.6256
12385TIP3    H258571   6.516   0.952   3.893 -0.9103 -0.0073  0.3450
12386TIP3   OH258572   0.533   3.239   5.006 -0.3895  0.6718  0.2593
12386TIP3    H158573   0.579   3.202   5.082 -0.9527  0.7301  0.6351
12386TIP3    H258574   0.591   3.307   4.973 -0.5849  1.3557  1.2701
12387TIP3   OH258575   1.756   1.345   1.310 -0.1411 -0.0380 -0.6447
12387TIP3    H158576   1.843   1.338   1.347  0.9346 -0.9855 -3.1506
12387TIP3    H258577   1.728   1.254   1.297 -1.6781  0.2442  0.4236
12388TIP3   OH258578   4.040   3.100   2.550  0.3936  0.1264  0.2650
12388TIP3    H158579   3.998   3.028   2.597 -1.4595  1.2246  0.3989
12388TIP3    H258580   4.079   3.059   2.473 -0.1880 -1.0900  0.5898
12389TIP3   OH258581   2.243   3.132  16.059 -0.3139 -0.3584  0.2448
12389TIP3    H158582   2.173   3.167  16.004  0.3055 -0.2961 -0.5069
12389TIP3    H258583   2.290   3.209  16.090  0.4848 -0.4722 -0.6640
12390TIP3   OH258584   1.996   5.377  12.556  0.4533  0.2648 -0.2927
12390TIP3    H158585   2.047   5.297  12.547  0.0459  0.1154 -1.3674
12390TIP3    H258586   2.059   5.444  12.584  1.5658  0.4204 -2.9257
12391TIP3   OH258587   1.776   4.913  13.346 -0.8847 -0.2913 -0.0125
12391TIP3    H158588   1.862   4.919  13.387 -0.3492 -1.6657 -0.8722
12391TIP3    H258589   1.746   4.824  13.365 -2.0768  0.1272  0.1684
12392TIP3   OH258590   5.367   2.191   4.595  0.3938  0.1977  0.1371
12392TIP3    H158591   5.448   2.142   4.605  0.1158 -0.2907  0.0280
12392TIP3    H258592   5.365   2.215   4.502  1.3326  1.8476  0.5039
12393TIP3   OH258593   3.514   4.411   1.995  0.0557  0.3817  0.7643
12393TIP3    H158594   3.426   4.375   2.010  0.4543 -0.0703  2.0872
12393TIP3    H258595   3.498   4.489   1.942 -0.8642 -1.5003 -2.0093
12394TIP3   OH258596   4.210   6.512  17.168  0.0841  0.0467  0.1720
12394TIP3    H158597   4.238   6.426  17.199 -1.2393 -0.4661 -0.0114
12394TIP3    H258598   4.205   6.565  17.248  1.1563  0.0526  0.2559
12395TIP3   OH258599   5.786   6.719   4.695  0.2353  0.3212 -0.2794
12395TIP3    H158600   5.790   6.623   4.698 -0.2939  0.2197 -1.8934
12395TIP3    H258601   5.843   6.744   4.623  4.0089  1.6217  2.8268
12396TIP3   OH258602   1.178   0.384   4.169  0.5169  0.1454  0.1852
12396TIP3    H158603   1.179   0.349   4.258 -1.5351  1.3285  0.7321
12396TIP3    H258604   1.114   0.329   4.123  0.2302  0.6692 -0.0444
12397TIP3   OH258605   1.987   1.356  12.841  0.8033  0.8316  0.4296
12397TIP3    H158606   1.952   1.394  12.921  0.0141 -0.3637  0.6697
12397TIP3    H258607   1.951   1.267  12.838  1.0066  0.7715 -1.1285
12398TIP3   OH258608   4.137   4.945   0.145  0.0082  0.1629 -0.1278
12398TIP3    H158609   4.130   5.020   0.086  1.5278 -0.3028 -0.9681
12398TIP3    H258610   4.185   4.979   0.221  3.4278 -0.5203 -1.7830
12399TIP3   OH258611   5.139   5.990  11.158  0.2233  0.0374  0.4879
12399TIP3    H158612   5.108   6.074  11.123  0.0915 -1.2593 -2.9033
12399TIP3    H258613   5.060   5.938  11.170  0.4817 -1.2202 -2.3860
12400TIP3   OH258614   2.693   3.709  13.376  0.1630  0.0472 -0.1343
12400TIP3    H158615   2.644   3.730  13.456  0.9767 -0.0168  0.3893
12400TIP3    H258616   2.775   3.758  13.384  0.4744 -0.3717 -0.6909
12401TIP3   OH258617   6.297   3.998   3.125 -0.4243  0.4243  0.1028
12401TIP3    H158618   6.370   3.939   3.142 -0.1543  1.1326  1.5855
12401TIP3    H258619   6.272   4.031   3.212 -1.6090  1.2430 -0.5179
12402TIP3   OH258620   5.039   1.521  14.546  0.1047 -0.3163  0.4731
12402TIP3    H158621   5.031   1.496  14.638 -0.2925 -0.2283  0.4645
12402TIP3    H258622   4.949   1.521  14.513  0.1918  0.1411  0.2183
12403TIP3   OH258623   2.606   4.545   5.312  0.1602  0.3031 -0.1057
12403TIP3    H158624   2.668   4.604   5.355  0.0838  0.0254  0.3826
12403TIP3    H258625   2.521   4.587   5.324 -0.1232 -0.6993  1.6736
12404TIP3   OH258626   5.178   3.696   2.869  0.6816 -0.6396 -0.5352
12404TIP3    H158627   5.178   3.723   2.777  2.5879 -1.1613 -0.7404
12404TIP3    H258628   5.231   3.763   2.913 -0.1254 -0.4587  0.1716
12405TIP3   OH258629   3.348   2.953   4.262  0.0050  0.4047 -0.1828
12405TIP3    H158630   3.434   2.913   4.267  0.3401  0.9151 -1.4521
12405TIP3    H258631   3.287   2.880   4.257  0.5670  0.0036 -1.8810
12406TIP3   OH258632   2.319   5.926   5.717 -0.1952  0.7806 -0.1853
12406TIP3    H158633   2.352   5.979   5.789  3.1707  0.8256 -1.5465
12406TIP3    H258634   2.333   5.835   5.746  1.2494  0.7989 -0.7157
12407TIP3   OH258635   5.921   4.408  15.619  0.4988  0.1604  0.2612
12407TIP3    H158636   5.836   4.433  15.582  1.2206 -0.7335 -2.2375
12407TIP3    H258637   5.921   4.445  15.707 -2.0181  1.1384 -0.0676
12408TIP3   OH258638   6.134   2.125   3.214 -0.0700 -0.0335 -0.0911
12408TIP3    H158639   6.113   2.106   3.305  1.1259  0.2050  0.2432
12408TIP3    H258640   6.200   2.061   3.189 -0.6941 -0.3745 -0.9354
12409TIP3   OH258641   6.033   6.300  15.667 -0.0557  0.6180 -0.0213
12409TIP3    H158642   5.983   6.218  15.663 -0.5317  0.9249 -0.4469
12409TIP3    H258643   6.082   6.302  15.585  1.1556  0.0188  0.6566
12410TIP3   OH258644   2.973   4.938  11.160  0.9160 -0.4449 -0.5109
12410TIP3    H158645   2.940   4.913  11.074  0.8943 -2.1021 -0.0552
12410TIP3    H258646   3.068   4.947  11.148  0.6846  1.5599 -1.1826
12411TIP3   OH258647   6.706   6.291   3.621 -0.6548  0.0165  0.3081
12411TIP3    H158648   6.660   6.336   3.551  1.4282 -0.6426 -1.5919
12411TIP3    H258649   6.754   6.360   3.667  1.1505  0.0757 -1.5113
12412TIP3   OH258650   4.865   2.802  12.457 -0.2387 -0.9407  0.2847
12412TIP3    H158651   4.806   2.876  12.442  0.4706 -0.7852 -2.2022
12412TIP3    H258652   4.854   2.746  12.380  3.3072 -0.5134 -0.7553
12413TIP3   OH258653   4.916   2.736  14.691 -0.4219 -0.0339  0.3749
12413TIP3    H158654   4.881   2.816  14.731  1.9223  0.7158  1.0950
12413TIP3    H258655   4.932   2.677  14.765  1.1736  0.2360  0.2911
12414TIP3   OH258656   1.477   1.810  15.743  0.3072 -0.6435  0.1622
12414TIP3    H158657   1.449   1.897  15.713  1.1331 -0.6146 -0.5883
12414TIP3    H258658   1.436   1.800  15.829 -0.4549  0.1516 -0.0875
12415TIP3   OH258659   2.599   2.782   3.243  0.6896 -0.1234 -0.2849
12415TIP3    H158660   2.656   2.823   3.309  0.0812 -0.1220  0.2392
12415TIP3    H258661   2.527   2.745   3.292 -0.0385  0.3136 -0.9925
12416TIP3   OH258662   3.376   4.345   0.265 -0.2296  0.3756  0.4119
12416TIP3    H158663   3.427   4.290   0.326  0.3063  0.7110  0.2687
12416TIP3    H258664   3.375   4.431   0.306  0.7078  0.7726 -0.3732
12417TIP3   OH258665   0.319   1.302   2.614 -0.4340 -0.0842  0.5411
12417TIP3    H158666   0.248   1.292   2.551 -0.7853 -1.5689  1.1390
12417TIP3    H258667   0.390   1.249   2.579  0.3810  1.3450 -0.0223
12418TIP3   OH258668   2.859   4.986   0.419 -0.2268 -0.3158  0.0984
12418TIP3    H158669   2.869   4.899   0.381  0.0887  0.6988 -2.3492
12418TIP3    H258670   2.770   5.012   0.397 -0.6742 -0.3684  1.7071
12419TIP3   OH258671   1.614   5.472  14.510 -0.0716 -0.4313 -0.2545
12419TIP3    H158672   1.657   5.535  14.567  0.2603 -0.7091 -0.1961
12419TIP3    H258673   1.665   5.474  14.429 -0.0318 -0.6552 -0.2368
12420TIP3   OH258674   4.838   0.613   3.527 -0.0804  0.6583  0.4080
12420TIP3    H158675   4.782   0.678   3.568 -0.3095  0.1511  0.9076
12420TIP3    H258676   4.813   0.615   3.434 -1.4556 -0.0829  0.7478
12421TIP3   OH258677   3.099   2.276   2.974 -0.0508 -0.2257  0.4359
12421TIP3    H158678   3.130   2.259   2.885  0.1727 -3.0411  0.9570
12421TIP3    H258679   3.170   2.327   3.014 -0.1502  1.0628 -0.9679
12422TIP3   OH258680   1.972   0.549  16.116 -0.1070  1.1243 -0.3953
12422TIP3    H158681   2.006   0.628  16.075 -0.1749  0.2345 -2.2639
12422TIP3    H258682   2.045   0.487  16.113 -0.1262  1.0207  0.8382
12423TIP3   OH258683   2.595   1.668   3.445  0.2636  0.1955  0.0847
12423TIP3    H158684   2.620   1.723   3.519  2.0199 -0.2160 -0.1630
12423TIP3    H258685   2.677   1.651   3.398 -0.5499 -0.9284 -1.0084
12424TIP3   OH258686   4.267   6.523   1.584  0.4224 -0.3518 -0.4228
12424TIP3    H158687   4.243   6.614   1.569 -1.8790 -0.9284 -0.5693
12424TIP3    H258688   4.357   6.516   1.553  0.9826  2.0717  0.4703
12425TIP3   OH258689   3.825   0.100   3.254 -0.9713  0.0738 -0.3813
12425TIP3    H158690   3.815   0.012   3.216  0.2630 -0.2617  0.0443
12425TIP3    H258691   3.886   0.089   3.326 -2.0851  0.9992  0.7560
12426TIP3   OH258692   1.202   4.288   1.260  0.5169 -0.1208 -0.4233
12426TIP3    H158693   1.295   4.271   1.245  1.0021  1.5351  0.4373
12426TIP3    H258694   1.199   4.379   1.290 -1.4877  0.1753 -1.3645
12427TIP3   OH258695   4.957   3.585  12.160  0.0043  0.3577  0.1024
12427TIP3    H158696   4.885   3.526  12.138 -0.2490  1.0967 -1.1776
12427TIP3    H258697   4.931   3.669  12.123  0.6110  1.1492  1.4045
12428TIP3   OH258698   1.303   2.701   5.168 -1.1640 -0.6028 -0.0150
12428TIP3    H158699   1.272   2.637   5.232 -1.6954 -0.4759 -0.1372
12428TIP3    H258700   1.393   2.721   5.195 -1.4962 -0.2886  0.8910
12429TIP3   OH258701   3.752   6.282   2.530 -0.2067  0.3636 -0.1320
12429TIP3    H158702   3.669   6.314   2.564 -0.0692  0.4370  0.1425
12429TIP3    H258703   3.732   6.197   2.491 -0.4402  0.4591 -0.2188
12430TIP3   OH258704   1.173   3.718   2.603 -0.3494 -0.1864  0.0503
12430TIP3    H158705   1.205   3.671   2.526 -0.9972 -0.4699 -0.0559
12430TIP3    H258706   1.086   3.747   2.578 -0.3220  0.2489  0.4643
12431TIP3   OH258707   0.438   2.766   4.939  0.5497 -0.9367  0.3687
12431TIP3    H158708   0.387   2.787   5.017 -0.2148  0.0814 -0.3849
12431TIP3    H258709   0.377   2.778   4.867  2.0045  1.0612 -0.6245
12432TIP3   OH258710   2.494   5.872   3.226 -0.1350 -0.7636  0.4966
12432TIP3    H158711   2.586   5.861   3.204 -0.5732 -1.1830 -1.2227
12432TIP3    H258712   2.480   5.966   3.223  0.7978 -0.4299  3.3659
12433TIP3   OH258713   3.258   4.907   6.424  0.1435 -0.0945 -0.1838
12433TIP3    H158714   3.334   4.891   6.368  0.3842  2.2416 -0.6440
12433TIP3    H258715   3.256   5.002   6.434  0.2297 -0.3587  4.0175
12434TIP3   OH258716   6.231   6.144  11.312  0.4350  0.6517  0.0989
12434TIP3    H158717   6.249   6.050  11.320  0.7688  0.3968 -2.6726
12434TIP3    H258718   6.317   6.185  11.308  0.2935  0.9660  0.2245
12435TIP3   OH258719   3.815   1.702   5.965 -0.6863  0.0690  0.0237
12435TIP3    H158720   3.806   1.726   6.058  0.5917 -1.6484  0.6499
12435TIP3    H258721   3.905   1.672   5.957 -0.8990 -0.1707 -1.7061
12436TIP3   OH258722   5.450   6.495   5.503 -0.2490  0.5486 -0.5215
12436TIP3    H158723   5.444   6.476   5.597  1.3120 -0.5389 -0.5931
12436TIP3    H258724   5.512   6.568   5.498 -0.8625  1.0655 -0.6782
12437TIP3   OH258725   1.185   5.489  15.960  0.1442 -0.0801 -0.2603
12437TIP3    H158726   1.130   5.435  16.017 -1.3548  2.0246  0.3878
12437TIP3    H258727   1.148   5.477  15.872 -1.0209  0.8310  0.0770
12438TIP3   OH258728   6.608   2.740   5.079 -0.0125 -0.6810  0.2227
12438TIP3    H158729   6.591   2.795   5.003 -0.8364 -0.5911  0.4677
12438TIP3    H258730   6.644   2.799   5.145 -2.0433 -0.1419  0.9235
12439TIP3   OH258731   6.173   6.582   0.253 -0.2533 -0.0628  0.3205
12439TIP3    H158732   6.084   6.590   0.217 -0.5334 -1.4074  0.6793
12439TIP3    H258733   6.162   6.599   0.347  0.0329  0.6674  0.2322
12440TIP3   OH258734   1.518   1.098   0.550 -0.4456  0.5564  0.0405
12440TIP3    H158735   1.568   1.179   0.541 -1.0344  0.9996  0.6384
12440TIP3    H258736   1.435   1.125   0.589 -1.7765  0.0587 -2.2450
12441TIP3   OH258737   3.758   6.174   3.209 -0.2855 -0.2578 -0.1474
12441TIP3    H158738   3.851   6.155   3.213  0.6512  2.7839 -2.6095
12441TIP3    H258739   3.751   6.264   3.241 -1.4585  1.3639 -4.2898
12442TIP3   OH258740   3.952   6.681   3.996 -0.4156 -1.0747 -0.2159
12442TIP3    H158741   3.974   6.751   4.057 -0.1125 -0.7512 -0.6850
12442TIP3    H258742   3.861   6.660   4.015 -0.8868  0.2614 -0.8423
12443TIP3   OH258743   6.129   6.237  15.400 -0.5714  0.5666 -0.2813
12443TIP3    H158744   6.104   6.147  15.421  0.2104  0.6469  1.1076
12443TIP3    H258745   6.225   6.235  15.396 -0.5298  1.4002  0.0953
12444TIP3   OH258746   2.844   5.246   3.977  0.4714  0.0074  0.7427
12444TIP3    H158747   2.924   5.266   4.027  0.9028  2.4818 -0.7697
12444TIP3    H258748   2.773   5.273   4.034  0.8522  0.3938  1.0479
12445TIP3   OH258749   4.289   1.192   1.649 -0.7606  0.4447  0.0499
12445TIP3    H158750   4.241   1.220   1.571 -0.2585 -1.0798 -0.8594
12445TIP3    H258751   4.286   1.096   1.645  0.7413  0.3315  0.9854
12446TIP3   OH258752   4.844   3.916  12.269  0.0286 -0.9966 -0.4996
12446TIP3    H158753   4.799   3.937  12.187 -0.0250  1.5727  0.1146
12446TIP3    H258754   4.937   3.920  12.247  0.0278  0.4902 -0.2837
12447TIP3   OH258755   5.222   5.164  11.335  0.4765  0.0917 -0.1826
12447TIP3    H158756   5.147   5.217  11.309  0.7981  0.3338 -0.6176
12447TIP3    H258757   5.257   5.128  11.253 -0.1331 -1.3518  0.1491
12448TIP3   OH258758   2.691   3.586  16.454  0.4654  0.2166 -0.5436
12448TIP3    H158759   2.752   3.526  16.497 -0.1148 -0.3931 -0.5379
12448TIP3    H258760   2.704   3.670  16.498 -0.5853 -0.5456  1.3680
12449TIP3   OH258761   6.390   1.814  15.967  0.2496 -0.2091  0.1037
12449TIP3    H158762   6.470   1.762  15.966 -0.5780 -1.5561 -2.2038
12449TIP3    H258763   6.390   1.862  15.884 -0.3926  1.3624  0.9537
12450TIP3   OH258764   2.671   1.293   2.892 -0.1895 -0.4470  0.7466
12450TIP3    H158765   2.618   1.214   2.898  0.3711 -0.7131  2.8876
12450TIP3    H258766   2.608   1.365   2.900 -0.8349 -0.5619 -2.2410
12451TIP3   OH258767   3.377   6.792   2.144  0.7934 -0.4546 -0.6432
12451TIP3    H158768   3.368   6.842   2.225  0.0454 -0.4430 -0.7207
12451TIP3    H258769   3.381   6.859   2.075  1.8394 -0.4503 -0.5960
12452TIP3   OH258770   0.392   1.709   2.228 -0.2204 -1.3637  0.5300
12452TIP3    H158771   0.325   1.691   2.293  0.2861  1.2441  1.9109
12452TIP3    H258772   0.474   1.709   2.278  0.1873  0.6065 -0.0682
12453TIP3   OH258773   2.319   4.164  12.686 -0.1983  0.2121 -0.0300
12453TIP3    H158774   2.401   4.134  12.726  0.3352  0.8185 -0.6531
12453TIP3    H258775   2.251   4.127  12.742  0.4964 -0.3231  0.4857
12454TIP3   OH258776   6.376   2.074  16.729 -0.2509  0.2823  0.4564
12454TIP3    H158777   6.359   2.045  16.639 -0.1793 -0.4881  0.6796
12454TIP3    H258778   6.386   2.169  16.723  1.1169  0.1064 -0.5729
12455TIP3   OH258779   3.541   1.549  13.658 -0.4119 -0.5388  0.5323
12455TIP3    H158780   3.568   1.621  13.601  1.2322  0.7174  2.6871
12455TIP3    H258781   3.535   1.590  13.745 -0.0926 -2.8882  1.7285
12456TIP3   OH258782   6.090   3.289  14.042 -0.0799 -0.0415 -0.2565
12456TIP3    H158783   6.095   3.199  14.073  1.1251 -0.2706 -1.0570
12456TIP3    H258784   6.080   3.341  14.122 -0.9174 -0.8757  0.2005
12457TIP3   OH258785   6.101   4.079   1.659 -0.0560  0.0032  0.1047
12457TIP3    H158786   6.012   4.092   1.628 -0.0986  2.3089  0.9742
12457TIP3    H258787   6.156   4.105   1.586 -0.1391  0.8279  0.3206
12458TIP3   OH258788   5.021   5.127   1.188 -0.6489 -0.1780 -0.1297
12458TIP3    H158789   5.108   5.142   1.152  0.4656 -1.3070  1.9302
12458TIP3    H258790   4.999   5.209   1.233  0.5281 -0.7531  1.5632
12459TIP3   OH258791   2.314   2.232  13.563 -0.2963  0.8147  0.2067
12459TIP3    H158792   2.398   2.185  13.554 -0.6711  0.0480  0.6558
12459TIP3    H258793   2.325   2.285  13.641  0.3744  2.0327 -0.6684
12460TIP3   OH258794   0.518   2.016  14.102  0.1823 -0.3152 -0.3895
12460TIP3    H158795   0.434   2.041  14.064  1.1669  1.8619 -1.3348
12460TIP3    H258796   0.506   2.025  14.196 -0.7091 -0.2394 -0.5069
12461TIP3   OH258797   0.114   3.951  11.822 -0.0658  0.5742 -0.2821
12461TIP3    H158798   0.179   3.984  11.885 -0.4561  1.0201 -0.1015
12461TIP3    H258799   0.034   3.999  11.844 -0.4998 -0.0969 -0.3922
12462TIP3   OH258800   3.186   1.888   1.181 -0.0402  0.2747 -0.3781
12462TIP3    H158801   3.253   1.934   1.129 -0.3687  1.9037  0.5620
12462TIP3    H258802   3.235   1.822   1.230  0.5548  0.0222 -1.2835
12463TIP3   OH258803   3.138   5.220   4.449  0.3432 -0.1252 -0.0896
12463TIP3    H158804   3.078   5.174   4.508  2.7906  0.1117  2.7751
12463TIP3    H258805   3.104   5.200   4.362 -2.7992 -1.4710  1.2599
12464TIP3   OH258806   6.052   0.085   5.194 -0.5590  0.2594 -0.1345
12464TIP3    H158807   5.973   0.047   5.157 -0.9016 -0.7055  1.5139
12464TIP3    H258808   6.124   0.043   5.147 -0.9881 -0.7795  0.1256
12465TIP3   OH258809   2.184   6.785   2.275  0.0770  0.3031  0.0934
12465TIP3    H158810   2.249   6.722   2.242  0.8441  1.1995 -0.1457
12465TIP3    H258811   2.187   6.857   2.213  1.1563  1.7917  1.7913
12466TIP3   OH258812   0.283   1.362  11.734  0.5607  0.1443 -0.1964
12466TIP3    H158813   0.372   1.385  11.709  0.8824 -0.0168  0.7509
12466TIP3    H258814   0.232   1.375  11.654  1.2359  1.2672 -0.4722
12467TIP3   OH258815   6.584   1.684  12.322  0.1220 -0.2000  0.0438
12467TIP3    H158816   6.674   1.676  12.289  0.6899  0.8600  1.2106
12467TIP3    H258817   6.529   1.670  12.245  1.2622 -1.3637 -0.6047
12468TIP3   OH258818   0.185   1.757   5.576  0.2767  0.4455  0.1736
12468TIP3    H158819   0.140   1.842   5.577  1.9287  1.3701 -0.1068
12468TIP3    H258820   0.252   1.765   5.644  0.0119 -0.9098  0.6113
12469TIP3   OH258821   1.583   6.195   5.921 -0.0839 -0.2060 -0.5502
12469TIP3    H158822   1.534   6.213   5.841 -0.2999  1.7894 -0.0051
12469TIP3    H258823   1.521   6.212   5.992  0.4250 -0.8965  0.0756
12470TIP3   OH258824   5.895   1.976   2.511 -0.3403  0.3901 -0.1443
12470TIP3    H158825   5.834   2.043   2.544 -0.8274 -0.0253 -0.1843
12470TIP3    H258826   5.982   2.014   2.524 -0.5831  0.7468  0.4713
12471TIP3   OH258827   4.333   0.203   3.063 -0.4737 -0.0178  0.0756
12471TIP3    H158828   4.238   0.196   3.058 -0.7206  0.7841  2.3497
12471TIP3    H258829   4.365   0.168   2.980 -2.6616 -2.0560  0.0088
12472TIP3   OH258830   0.759   4.803  12.693  0.1576 -0.8228  0.7167
12472TIP3    H158831   0.711   4.730  12.732 -1.2600 -0.3157 -0.0042
12472TIP3    H258832   0.801   4.847  12.768  0.2941 -1.8270  1.2513
12473TIP3   OH258833   2.565   5.624   6.109 -0.6618 -0.3889  0.2250
12473TIP3    H158834   2.515   5.690   6.158  1.8213  0.2359  2.1175
12473TIP3    H258835   2.595   5.669   6.031 -0.3475  0.2485  0.7025
12474TIP3   OH258836   0.271   3.903  16.040  0.2594  0.3910  0.3370
12474TIP3    H158837   0.236   3.986  16.008  0.0380  0.6801  1.3000
12474TIP3    H258838   0.366   3.915  16.040  0.3848 -0.2054 -1.7704
12475TIP3   OH258839   6.756   4.052   3.336  0.6411 -0.5590 -0.3524
12475TIP3    H158840   6.775   4.133   3.383  0.7030  0.3984 -1.9530
12475TIP3    H258841   6.663   4.037   3.350  0.7460 -0.5373  0.4199
12476TIP3   OH258842   2.273   4.322   0.460 -0.1091  0.3607  0.2765
12476TIP3    H158843   2.318   4.255   0.408  0.5789  0.7152  0.4047
12476TIP3    H258844   2.253   4.278   0.543 -1.0601 -0.1571 -0.2075
12477TIP3   OH258845   6.374   5.215   4.680 -0.2033  0.1082 -0.5663
12477TIP3    H158846   6.289   5.173   4.669  0.9363 -2.8531  0.7342
12477TIP3    H258847   6.370   5.255   4.767 -0.2465 -0.1404 -0.4527
12478TIP3   OH258848   0.247   2.301  11.802 -0.1295 -0.2020  0.3946
12478TIP3    H158849   0.222   2.338  11.718  0.3713  1.6428  0.9854
12478TIP3    H258850   0.287   2.375  11.849 -2.8102 -0.3389  3.2794
12479TIP3   OH258851   1.138   1.709  11.274  0.7562 -0.0410 -0.4008
12479TIP3    H158852   1.085   1.643  11.229  0.8714 -0.4557  0.0550
12479TIP3    H258853   1.207   1.658  11.318  0.1826  0.2618  0.8930
12480TIP3   OH258854   4.590   4.980  15.124 -0.5947 -0.0827  0.0659
12480TIP3    H158855   4.559   5.041  15.057 -0.4370  0.1275  0.1813
12480TIP3    H258856   4.654   5.030  15.174  0.0870 -0.5697 -0.2953
12481TIP3   OH258857   5.596   0.941   3.666  0.4342  0.0766 -0.4574
12481TIP3    H158858   5.671   0.949   3.607  1.6833 -1.1907  0.8689
12481TIP3    H258859   5.621   0.989   3.745 -0.2110 -0.2295 -0.0555
12482TIP3   OH258860   2.883   5.393   6.153 -0.0160 -0.1230 -0.0187
12482TIP3    H158861   2.800   5.385   6.199  0.4675 -0.2517  0.8685
12482TIP3    H258862   2.870   5.346   6.070 -0.5993 -0.7788  0.4355
12483TIP3   OH258863   1.332   5.282   1.263  0.5025 -0.0454 -0.1344
12483TIP3    H158864   1.412   5.254   1.216  1.1706  0.9144  0.4065
12483TIP3    H258865   1.293   5.200   1.293  0.8756 -0.5830 -1.0538
12484TIP3   OH258866   5.897   0.494   2.676 -0.7334  0.4995 -0.5537
12484TIP3    H158867   5.885   0.501   2.581 -1.7362  0.2705 -0.4573
12484TIP3    H258868   5.863   0.407   2.699  1.2317 -0.2236 -0.2200
12485TIP3   OH258869   3.580   2.085   0.256  0.5494  0.2036 -0.0290
12485TIP3    H158870   3.662   2.048   0.288  0.4317  0.1155  0.1689
12485TIP3    H258871   3.607   2.158   0.200  0.7146  2.0766  2.3721
12486TIP3   OH258872   2.251   0.585  12.060  0.2880 -0.0008  0.2111
12486TIP3    H158873   2.213   0.523  11.998  0.4437  1.9925 -2.0161
12486TIP3    H258874   2.343   0.561  12.064 -0.0830 -1.3883  1.3100
12487TIP3   OH258875   4.046   0.760  13.893 -0.2362 -0.8322  0.1085
12487TIP3    H158876   3.993   0.836  13.871 -0.8880 -1.3694 -0.1960
12487TIP3    H258877   4.078   0.778  13.982 -0.3228 -0.1739  0.0088
12488TIP3   OH258878   5.810   5.879  16.893 -0.3878  0.8612  0.1345
12488TIP3    H158879   5.766   5.793  16.897  1.5476 -0.1193  1.8009
12488TIP3    H258880   5.865   5.873  16.815  0.7816  0.0151  0.9959
12489TIP3   OH258881   6.518   3.850  16.608  0.4473 -0.4351  0.1308
12489TIP3    H158882   6.578   3.862  16.681  0.4785  0.2999 -0.0085
12489TIP3    H258883   6.570   3.806  16.541  0.5318 -0.7419  0.3927
12490TIP3   OH258884   6.755   4.312   3.729 -0.0378 -0.0824 -0.2795
12490TIP3    H158885   6.801   4.322   3.813 -0.6282 -0.0006  0.0345
12490TIP3    H258886   6.728   4.401   3.706 -0.6674 -0.2261 -0.1055
12491TIP3   OH258887   1.798   4.351  16.241 -0.0258 -0.1505 -0.2754
12491TIP3    H158888   1.823   4.350  16.333 -0.1897  0.6722 -0.2067
12491TIP3    H258889   1.708   4.320  16.240 -0.6384  1.5005  0.0760
12492TIP3   OH258890   5.910   4.170   2.668  0.3357  0.5192 -0.0662
12492TIP3    H158891   5.876   4.186   2.756  1.7143  0.4955  0.4879
12492TIP3    H258892   5.871   4.240   2.615  0.4679  1.2842  0.8211
12493TIP3   OH258893   0.890   4.545   2.591 -0.5216 -0.0960  0.7084
12493TIP3    H158894   0.822   4.572   2.530  0.3152 -1.7597 -1.0755
12493TIP3    H258895   0.971   4.548   2.540  0.5259  0.2508  2.2969
12494TIP3   OH258896   4.279   4.087   3.014  0.2792 -0.0037  0.4560
12494TIP3    H158897   4.317   4.053   2.932  1.0749  3.5144 -0.8075
12494TIP3    H258898   4.354   4.094   3.073  0.4499  0.9891  0.1415
12495TIP3   OH258899   1.053   4.556  12.138  0.2842 -0.2929 -0.0101
12495TIP3    H158900   1.024   4.646  12.122  2.6737  0.5911  0.2328
12495TIP3    H258901   0.996   4.525  12.208 -0.8558  0.8807 -0.3838
12496TIP3   OH258902   1.727   4.730  13.682  0.1359 -0.7322  0.2934
12496TIP3    H158903   1.787   4.787  13.730 -1.1607 -2.0025  3.7397
12496TIP3    H258904   1.673   4.790  13.630  1.0229  0.8326  1.1080
12497TIP3   OH258905   0.147   3.633   2.157  0.7175 -0.3352  0.1894
12497TIP3    H158906   0.100   3.657   2.237 -2.8711 -1.4471 -1.4266
12497TIP3    H258907   0.136   3.709   2.099 -0.1973 -1.0617 -0.6222
12498TIP3   OH258908   2.373   3.328  17.125  0.0061 -0.3166 -0.5998
12498TIP3    H158909   2.330   3.332  17.211  2.0499  0.2005  0.4478
12498TIP3    H258910   2.366   3.418  17.091 -0.7099 -0.4971 -0.9557
12499TIP3   OH258911   3.327   1.942   3.668  0.6279  0.2886  0.2662
12499TIP3    H158912   3.408   1.919   3.713  0.7594  0.3797  0.0787
12499TIP3    H258913   3.327   1.888   3.589  0.0942 -0.3267  0.6817
12500TIP3   OH258914   5.525   2.571   4.459 -0.3391 -0.1319 -0.0459
12500TIP3    H158915   5.528   2.515   4.381  0.8791  1.0144 -0.8528
12500TIP3    H258916   5.444   2.545   4.503  0.5843 -3.1380  0.1039
12501TIP3   OH258917   5.076   1.886   5.403 -0.6914 -0.2487  0.2118
12501TIP3    H158918   5.019   1.827   5.354 -1.8949  2.1108 -1.4610
12501TIP3    H258919   5.144   1.912   5.340 -0.5573  0.5975  0.6838
12502TIP3   OH258920   5.042   4.678  16.272  0.4295  0.7005  0.2057
12502TIP3    H158921   4.958   4.719  16.291 -0.5556 -0.8308 -0.5936
12502TIP3    H258922   5.020   4.589  16.246  2.4419 -0.4305  1.9683
12503TIP3   OH258923   3.888   4.433   1.985 -0.0736 -0.2975 -0.5359
12503TIP3    H158924   3.868   4.342   2.007  0.0260 -0.5678 -1.5118
12503TIP3    H258925   3.824   4.484   2.034  0.3516 -0.8300  0.6367
12504TIP3   OH258926   4.748   6.670   3.071 -0.2229 -0.0064  0.3352
12504TIP3    H158927   4.792   6.658   3.155  0.1421 -1.3982 -0.0239
12504TIP3    H258928   4.787   6.750   3.035  1.3695 -0.6902  0.4415
12505TIP3   OH258929   5.925   0.990  13.739  0.1000 -0.5017  0.5759
12505TIP3    H158930   5.980   1.005  13.815 -1.6230  1.7008  1.4918
12505TIP3    H258931   5.913   1.076  13.699 -2.7161 -0.8307  0.5040
12506TIP3   OH258932   3.309   1.262  11.523  0.1335 -0.1035 -0.1351
12506TIP3    H158933   3.366   1.323  11.570 -0.9651 -0.0921  1.2698
12506TIP3    H258934   3.229   1.311  11.506 -0.4598 -0.8877  0.3048
12507TIP3   OH258935   6.258   1.073  16.930  0.1047  0.3101  0.1796
12507TIP3    H158936   6.212   1.028  17.001  1.0246 -1.9557 -0.5610
12507TIP3    H258937   6.191   1.085  16.862  0.0621 -0.9381 -0.0204
12508TIP3   OH258938   5.353   5.947   3.276  0.1982  0.6148 -0.2751
12508TIP3    H158939   5.321   5.923   3.363 -1.5173 -1.2950 -1.3618
12508TIP3    H258940   5.323   6.037   3.264 -0.1925  0.6473  0.8090
12509TIP3   OH258941   2.492   3.355  15.870  0.2892  0.3877  0.1940
12509TIP3    H158942   2.479   3.437  15.918  0.4935 -0.2070  1.3005
12509TIP3    H258943   2.584   3.335  15.882  0.1244 -0.2773  0.3857
12510TIP3   OH258944   3.301   1.908   1.785  0.0450 -0.5585 -0.0061
12510TIP3    H158945   3.239   1.929   1.716 -1.7253 -0.9257  1.3967
12510TIP3    H258946   3.251   1.917   1.866  1.6042 -1.6556  1.1438
12511TIP3   OH258947   1.125   4.583   2.434  0.0262  0.1665  0.5432
12511TIP3    H158948   1.112   4.616   2.345 -0.9108 -0.0413  0.5860
12511TIP3    H258949   1.176   4.651   2.478 -1.9565  1.6795  0.6737
12512TIP3   OH258950   5.619   2.125  16.637 -0.0804 -0.0209 -0.2518
12512TIP3    H158951   5.694   2.085  16.681  0.1854 -0.3140 -0.9627
12512TIP3    H258952   5.546   2.065  16.656  0.1177 -0.3540 -0.5418
12513TIP3   OH258953   5.891   1.209  14.067  0.3869 -0.1030 -0.8684
12513TIP3    H158954   5.918   1.243  14.152  1.0491  0.9340 -1.4696
12513TIP3    H258955   5.821   1.146  14.087  1.3111 -0.7473  0.5193
12514TIP3   OH258956   5.650   2.816  15.761 -0.3233  0.1581 -0.2175
12514TIP3    H158957   5.626   2.904  15.733  0.4029  0.1108 -0.9946
12514TIP3    H258958   5.662   2.767  15.680  0.4724 -0.3383  0.1866
12515TIP3   OH258959   6.112   6.521   0.720  0.3447  0.0790  0.0380
12515TIP3    H158960   6.157   6.605   0.708 -1.1610  1.1973  1.6466
12515TIP3    H258961   6.096   6.489   0.631  1.4376  1.2110 -0.5975
12516TIP3   OH258962   6.592   0.459  11.423 -0.5668 -0.1006 -0.5182
12516TIP3    H158963   6.655   0.438  11.491 -2.0909  2.9541  2.0762
12516TIP3    H258964   6.558   0.374  11.395  0.1962 -1.5394  2.5060
12517TIP3   OH258965   1.081   3.877   2.331 -0.5657  0.3552  0.1383
12517TIP3    H158966   1.135   3.945   2.371  1.0558 -0.5820 -0.3612
12517TIP3    H258967   1.062   3.909   2.243  2.8838 -1.0617 -1.3017
12518TIP3   OH258968   3.240   1.334  15.183 -0.2696 -0.7062 -0.1278
12518TIP3    H158969   3.285   1.406  15.226 -1.8933 -0.2934  0.9912
12518TIP3    H258970   3.301   1.304  15.115  0.7935  1.1335 -0.0479
12519TIP3   OH258971   1.648   3.873  12.988 -0.3243  0.6474 -0.2646
12519TIP3    H158972   1.637   3.822  13.068  1.2168  0.9683  0.1951
12519TIP3    H258973   1.654   3.808  12.918  1.5448  0.1370  0.3005
12520TIP3   OH258974   3.379   1.332  14.438  0.1807  0.1497  0.5765
12520TIP3    H158975   3.361   1.414  14.483  1.0101  0.3006  0.6541
12520TIP3    H258976   3.334   1.265  14.489  0.5526  0.4027  1.2519
12521TIP3   OH258977   1.572   3.462  16.434  0.1067 -0.3978 -0.2717
12521TIP3    H158978   1.636   3.525  16.469 -0.0214 -1.0617  1.2595
12521TIP3    H258979   1.493   3.513  16.421  0.1761 -0.1111  0.3963
12522TIP3   OH258980   6.277   4.299  14.739 -0.1661 -0.2357  0.1810
12522TIP3    H158981   6.192   4.303  14.783 -1.3835  0.3368 -2.0244
12522TIP3    H258982   6.278   4.376  14.682 -0.1179 -2.3471 -2.9896
12523TIP3   OH258983   5.852   6.353   2.277  0.0515  0.0469  0.1423
12523TIP3    H158984   5.911   6.409   2.226  0.3357 -0.0011  0.4111
12523TIP3    H258985   5.883   6.264   2.260 -0.3151 -0.0203 -0.1788
12524TIP3   OH258986   1.031   5.521  12.633  0.4705  0.4017 -0.3254
12524TIP3    H158987   0.941   5.487  12.632  0.5935  0.0130 -2.4716
12524TIP3    H258988   1.087   5.444  12.627  1.0161  0.6246  1.2438
12525TIP3   OH258989   3.676   6.199   4.901 -0.2795  0.6403  0.3657
12525TIP3    H158990   3.625   6.235   4.829 -0.9080  0.0893  0.5284
12525TIP3    H258991   3.742   6.266   4.920  0.1343  0.6377 -0.9588
12526TIP3   OH258992   1.091   4.179  13.910 -1.0726 -0.3087  0.7239
12526TIP3    H158993   1.171   4.165  13.962  0.7852 -0.5619 -2.0250
12526TIP3    H258994   1.027   4.118  13.947 -0.3444  0.4319  3.5029
12527TIP3   OH258995   2.994   4.187   6.008 -0.0427 -0.1382  0.0376
12527TIP3    H158996   2.942   4.267   6.015 -0.1372 -0.0458 -1.5365
12527TIP3    H258997   2.972   4.138   6.088 -0.6117  1.0140  0.6188
12528TIP3   OH258998   5.137   3.044   1.043 -0.5963  0.2485  0.6298
12528TIP3    H158999   5.132   3.087   1.128 -0.9023 -0.9681  1.2482
12528TIP3    H259000   5.123   2.952   1.062 -0.7553 -0.0346 -0.7586
12529TIP3   OH259001   1.964   4.759  14.613 -0.1255  0.3126  0.2154
12529TIP3    H159002   1.890   4.748  14.553  0.0323  0.2666  0.0306
12529TIP3    H259003   1.988   4.670  14.638  0.1284  0.3086 -0.0408
12530TIP3   OH259004   3.575   5.204  13.567 -0.2072 -0.2825  0.1849
12530TIP3    H159005   3.510   5.272  13.545 -0.0217  0.4538  1.7440
12530TIP3    H259006   3.622   5.240  13.643  1.3213 -1.2673 -0.2542
12531TIP3   OH259007   5.032   6.669  13.432 -0.0174  0.4253  0.3560
12531TIP3    H159008   5.041   6.663  13.336  0.5834 -0.8322  0.4692
12531TIP3    H259009   4.956   6.615  13.452 -0.9403  1.7412  0.4888
12532TIP3   OH259010   0.546   4.414  14.056  0.1407 -0.7940 -0.1124
12532TIP3    H159011   0.561   4.431  13.963  1.4667  3.0827  0.6267
12532TIP3    H259012   0.455   4.440  14.070 -0.1019 -1.5109 -0.3339
12533TIP3   OH259013   1.445   4.539  13.939 -0.2537  0.2383 -0.0824
12533TIP3    H159014   1.366   4.528  13.886  0.6106 -0.7291 -1.2424
12533TIP3    H259015   1.507   4.584  13.881  0.3639  0.1337  0.4793
12534TIP3   OH259016   3.040   2.413  13.718 -0.3953  0.0652  0.3746
12534TIP3    H159017   3.132   2.389  13.708 -0.0148  1.5259  0.1340
12534TIP3    H259018   3.006   2.413  13.628 -0.8677 -1.2367  0.5240
12535TIP3   OH259019   1.665   6.163  14.411  0.6854  0.2574 -0.0353
12535TIP3    H159020   1.668   6.069  14.393 -1.5033 -0.1373  1.2708
12535TIP3    H259021   1.697   6.172  14.501 -0.5545  0.5184  0.4042
12536TIP3   OH259022   5.627   1.004   4.112 -0.2856  0.1662 -0.6251
12536TIP3    H159023   5.541   0.962   4.111  0.1283 -0.7411  0.2871
12536TIP3    H259024   5.672   0.967   4.188  1.0982  0.2337 -1.3575
12537TIP3   OH259025   3.539   4.080  15.949 -0.1344  0.1181  0.2412
12537TIP3    H159026   3.554   4.019  16.022 -1.1617 -0.3165  0.0962
12537TIP3    H259027   3.594   4.045  15.879  0.9916  0.6331  0.8373
12538TIP3   OH259028   3.685   3.347  13.784 -0.5679 -0.2348 -0.0937
12538TIP3    H159029   3.711   3.388  13.702 -2.1947 -0.2522 -0.6639
12538TIP3    H259030   3.629   3.412  13.827  0.9428  0.1139  1.4404
12539TIP3   OH259031   4.240   0.014  16.329  0.1133 -0.1266 -0.6592
12539TIP3    H159032   4.176   0.044  16.264  0.4781  0.1991 -0.8768
12539TIP3    H259033   4.297  -0.046  16.280 -0.3975 -0.9040 -0.3132
12540TIP3   OH259034   4.827   3.497   5.489  0.5468 -0.6073 -0.6142
12540TIP3    H159035   4.791   3.424   5.539 -0.7887 -0.6849 -1.6329
12540TIP3    H259036   4.825   3.467   5.398  1.0481  0.2709 -0.9207
12541TIP3   OH259037   0.306   6.729   3.655  0.1199 -0.2716  0.1224
12541TIP3    H159038   0.292   6.664   3.587  2.0469 -0.4495 -0.1597
12541TIP3    H259039   0.279   6.812   3.615 -1.1391 -0.6904  0.0509
12542TIP3   OH259040   5.025   3.339  17.047 -0.3878 -0.3699  0.2297
12542TIP3    H159041   5.028   3.328  17.142  1.2667 -0.5725  0.1905
12542TIP3    H259042   5.016   3.250  17.013  1.7024 -0.6057  0.1706
12543TIP3   OH259043   1.393   4.581   4.507 -0.5068 -0.4014 -0.4388
12543TIP3    H159044   1.445   4.566   4.428  0.9952 -0.5915  0.5457
12543TIP3    H259045   1.346   4.499   4.520  0.9421 -1.1990  0.0522
12544TIP3   OH259046   6.737   0.370   0.876  0.5042 -0.2259 -0.0617
12544TIP3    H159047   6.762   0.290   0.829 -0.4834  0.5682 -2.0742
12544TIP3    H259048   6.728   0.343   0.967  0.5794 -2.3115 -0.6228
12545TIP3   OH259049   0.251   3.530   0.940  0.1138 -0.5133 -0.0479
12545TIP3    H159050   0.171   3.563   0.899  0.0502  1.3942  1.4758
12545TIP3    H259051   0.228   3.441   0.968 -1.3596 -0.1321  0.0550
12546TIP3   OH259052   6.356   5.312   2.987 -0.9237  0.3492 -0.4663
12546TIP3    H159053   6.401   5.290   3.068  2.2974 -0.0066 -2.2050
12546TIP3    H259054   6.282   5.366   3.014  0.2357  0.5276  2.6504
12547TIP3   OH259055   4.531   0.031   1.855  0.1579  0.6971  0.6268
12547TIP3    H159056   4.611   0.071   1.890  0.2580  0.7963  0.2921
12547TIP3    H259057   4.553   0.010   1.764  0.7886 -1.9984  1.3361
12548TIP3   OH259058   1.577   1.154  10.938  0.5216 -0.0621  0.1184
12548TIP3    H159059   1.651   1.151  10.877  0.3281  0.5907 -0.1545
12548TIP3    H259060   1.601   1.093  11.008 -0.3852 -2.8888 -1.8497
12549TIP3   OH259061   2.312   5.621   2.191  0.2723 -0.0913 -0.0815
12549TIP3    H159062   2.322   5.527   2.176  3.8453  0.1495  0.0119
12549TIP3    H259063   2.328   5.660   2.105  0.6383  0.4992  0.2519
12550TIP3   OH259064   3.660   4.429   5.742  0.8979  0.3300  0.5125
12550TIP3    H159065   3.702   4.462   5.662 -0.8943  1.4085 -0.0401
12550TIP3    H259066   3.703   4.476   5.813  1.9364 -0.0264  0.1397
12551TIP3   OH259067   6.601   0.890  13.582 -0.0825  0.0774  0.4436
12551TIP3    H159068   6.525   0.915  13.634  1.6672  1.7278  2.3839
12551TIP3    H259069   6.613   0.797  13.600 -2.0603 -0.4210 -0.5552
12552TIP3   OH259070   4.493   0.578   3.371 -0.1048  0.2645 -0.5864
12552TIP3    H159071   4.549   0.564   3.296 -0.0131  1.0634 -0.6732
12552TIP3    H259072   4.426   0.511   3.364  1.2784 -1.2336 -0.0361
12553TIP3   OH259073   6.058   2.461  10.972 -0.2619 -0.4480 -0.2891
12553TIP3    H159074   6.075   2.498  10.885  2.1234 -0.3741  0.1371
12553TIP3    H259075   6.105   2.518  11.032  0.0624 -1.8175  0.8070
12554TIP3   OH259076   5.294   5.196   1.821  0.1165  0.1945  0.2643
12554TIP3    H159077   5.322   5.120   1.770 -0.2188  1.6186 -2.1818
12554TIP3    H259078   5.361   5.263   1.805 -1.5167  1.6619 -0.8126
12555TIP3   OH259079   0.190   0.466  12.474 -0.4269  0.3920  0.2516
12555TIP3    H159080   0.185   0.538  12.411  1.1159  0.1539 -0.1779
12555TIP3    H259081   0.165   0.506  12.558  1.3085  1.7003  0.2062
12556TIP3   OH259082   4.809   5.601   2.090 -0.2062 -0.6303 -0.4366
12556TIP3    H159083   4.793   5.622   2.182 -0.2119 -0.5629 -0.4531
12556TIP3    H259084   4.901   5.622   2.076  0.2584 -2.2893  0.0112
12557TIP3   OH259085   5.724   2.646   5.400  0.0781 -0.2493 -0.3631
12557TIP3    H159086   5.791   2.706   5.369  0.3898 -0.5996 -0.3829
12557TIP3    H259087   5.728   2.571   5.340  1.3920 -1.3972  1.0521
12558TIP3   OH259088   2.562   1.841  14.511 -0.3720  0.2227 -0.4573
12558TIP3    H159089   2.644   1.837  14.560 -0.2865  2.9504 -0.1904
12558TIP3    H259090   2.494   1.848  14.579 -0.7363 -0.7791 -0.6994
12559TIP3   OH259091   6.431   2.915   5.634  0.4995 -0.0448  1.0619
12559TIP3    H159092   6.471   2.978   5.574 -0.6861 -0.4471 -0.1654
12559TIP3    H259093   6.394   2.969   5.704 -2.0697  0.8514 -0.8639
12560TIP3   OH259094   3.791   1.997   4.361  0.0210 -0.1886 -0.0128
12560TIP3    H159095   3.836   1.942   4.296  0.6897 -0.7008  0.8537
12560TIP3    H259096   3.734   1.936   4.408  1.6751 -0.4685  1.7857
12561TIP3   OH259097   3.906   3.807   2.875  0.3194  0.2437  0.7885
12561TIP3    H159098   3.951   3.836   2.954  1.3360  0.4956  0.1399
12561TIP3    H259099   3.972   3.816   2.806 -1.2403  2.4103 -0.5382
12562TIP3   OH259100   3.077   4.688  14.681 -0.0900  0.1521  0.4119
12562TIP3    H159101   3.163   4.691  14.639 -0.1537  1.6810  0.3673
12562TIP3    H259102   3.043   4.777  14.673 -0.5165  0.2632  2.8623
12563TIP3   OH259103   3.696   3.772  11.907  0.3216  0.2093  0.3071
12563TIP3    H159104   3.680   3.826  11.830  1.7812 -1.4949 -1.2930
12563TIP3    H259105   3.664   3.824  11.981  0.0904  2.4667 -1.3022
12564TIP3   OH259106   3.653   3.906  13.426 -0.8194 -0.5538 -0.3699
12564TIP3    H159107   3.692   3.930  13.342  1.2087 -0.5261  0.5367
12564TIP3    H259108   3.653   3.810  13.426 -0.8953 -0.5537 -0.4352
12565TIP3   OH259109   1.422   2.294   1.977  0.8067  0.0073 -0.3522
12565TIP3    H159110   1.394   2.360   1.914  0.2884 -0.5628 -0.7375
12565TIP3    H259111   1.479   2.236   1.927  2.0779  0.7086  0.2331
12566TIP3   OH259112   6.146   4.428  10.656  0.4096 -0.0634  0.8849
12566TIP3    H159113   6.166   4.522  10.654  0.1437 -0.0173  0.0437
12566TIP3    H259114   6.232   4.385  10.650  0.4295  0.1385 -0.7656
12567TIP3   OH259115   0.591   0.248  15.209  0.6101  1.2444 -0.0647
12567TIP3    H159116   0.514   0.217  15.258  0.2753  1.8084 -0.2276
12567TIP3    H259117   0.665   0.209  15.255  0.1884 -0.0363 -0.4333
12568TIP3   OH259118   1.355   5.324   3.257  0.3712 -0.1915  0.0940
12568TIP3    H159119   1.401   5.402   3.289 -0.3413 -0.2770  1.4173
12568TIP3    H259120   1.418   5.253   3.267  1.4149  0.3385 -2.1459
12569TIP3   OH259121   5.688   6.500   1.665  0.2668  0.0844  0.0170
12569TIP3    H159122   5.640   6.516   1.746 -0.1781  0.3476 -0.2962
12569TIP3    H259123   5.683   6.582   1.617  3.4767  1.1262  1.2070
12570TIP3   OH259124   5.911   1.333   4.979  0.5297 -0.4932  0.0324
12570TIP3    H159125   5.867   1.271   5.037  0.1947  0.3302  0.6777
12570TIP3    H259126   5.954   1.395   5.038  1.0757 -0.2619 -0.5990
12571TIP3   OH259127   3.713   3.984   4.350 -1.1726  0.4475 -0.3906
12571TIP3    H159128   3.685   4.066   4.391  0.2621  1.0143 -0.5093
12571TIP3    H259129   3.716   4.003   4.257  1.0205  0.8703 -0.2700
12572TIP3   OH259130   3.659   4.693   0.860 -0.0692 -0.3385  0.2153
12572TIP3    H159131   3.594   4.671   0.927 -0.5920  1.2947  0.3005
12572TIP3    H259132   3.716   4.616   0.855 -1.8431 -1.7109  0.3228
12573TIP3   OH259133   4.225   2.489   2.229  0.0010  0.1725  0.1637
12573TIP3    H159134   4.239   2.395   2.217 -1.9975 -0.0956 -0.4425
12573TIP3    H259135   4.157   2.494   2.296  2.5034  1.3572  2.8536
12574TIP3   OH259136   2.343   1.667   3.296 -0.1775  0.5317 -0.3834
12574TIP3    H159137   2.414   1.665   3.360 -0.5090  2.1490  0.0756
12574TIP3    H259138   2.367   1.600   3.232  0.2771 -0.9566  1.2704
12575TIP3   OH259139   4.079   1.364   3.799 -0.0643  0.5981  0.3120
12575TIP3    H159140   4.091   1.349   3.893 -0.0553  1.9969  0.5510
12575TIP3    H259141   4.158   1.328   3.759 -0.4606 -0.8246  0.7240
12576TIP3   OH259142   4.558   0.203   2.303  0.6215 -0.0089  0.5265
12576TIP3    H159143   4.638   0.152   2.295  0.5380 -0.4758  2.1552
12576TIP3    H259144   4.573   0.281   2.250  2.3112  0.0921  1.0876
12577TIP3   OH259145   1.491   2.958   4.687 -0.1182  0.0604 -0.0451
12577TIP3    H159146   1.445   2.930   4.766 -0.3289  1.2351  0.2777
12577TIP3    H259147   1.506   2.878   4.638 -1.4412 -0.5008  0.4101
12578TIP3   OH259148   5.882   5.280  11.743  0.0321  0.3968 -0.0583
12578TIP3    H159149   5.881   5.186  11.724 -0.1535  0.2035  0.8592
12578TIP3    H259150   5.947   5.289  11.814  0.9900  1.1434 -0.9996
12579TIP3   OH259151   3.369   4.648  12.550 -0.6922  0.0103 -0.1145
12579TIP3    H159152   3.403   4.736  12.537  0.0229  0.2771  2.8904
12579TIP3    H259153   3.274   4.659  12.553 -0.5615  1.0153  1.8414
12580TIP3   OH259154   0.603   2.160  13.204  0.1829 -0.5113 -0.2942
12580TIP3    H159155   0.536   2.228  13.198  0.6103 -0.1757 -1.5605
12580TIP3    H259156   0.555   2.082  13.232 -0.7350 -0.2608 -1.1100
12581TIP3   OH259157   2.605   0.659   4.490 -0.3181  0.2023 -0.6893
12581TIP3    H159158   2.515   0.631   4.505 -0.4888 -0.0462 -2.0067
12581TIP3    H259159   2.615   0.739   4.541 -1.2925  0.2465 -0.5581
12582TIP3   OH259160   1.525   4.784  15.208  0.5093 -0.4111  0.1639
12582TIP3    H159161   1.507   4.845  15.280 -1.6974  0.3581 -0.9403
12582TIP3    H259162   1.559   4.705  15.251  1.5166  0.8511  1.7978
12583TIP3   OH259163   5.649   3.378  16.398  0.6247 -0.1232  0.2546
12583TIP3    H159164   5.742   3.402  16.400  0.3620  1.1739 -1.0116
12583TIP3    H259165   5.642   3.317  16.325  0.1240  1.7474 -1.3470
12584TIP3   OH259166   4.839   0.984  14.359  0.8693 -0.0366 -0.0509
12584TIP3    H159167   4.746   0.999  14.379  1.1216  0.8111  0.5778
12584TIP3    H259168   4.858   0.899  14.399  1.1609  1.2605  2.8831
12585TIP3   OH259169   2.253   6.371  16.767  0.0787  0.2453 -0.5127
12585TIP3    H159170   2.197   6.363  16.690  0.5676 -0.8228 -0.7735
12585TIP3    H259171   2.271   6.281  16.794  0.5419  0.5934  0.3879
12586TIP3   OH259172   3.456   4.595  15.497  0.0906 -0.0097  0.4960
12586TIP3    H159173   3.447   4.500  15.504  1.1804 -0.1133  0.7067
12586TIP3    H259174   3.483   4.610  15.406  0.3741  0.0484  0.5865
12587TIP3   OH259175   0.340   2.770  13.036  0.1430  0.3473 -0.0554
12587TIP3    H159176   0.347   2.747  13.129 -0.0430 -2.1375 -0.5761
12587TIP3    H259177   0.376   2.858  13.030  0.0352  0.6319  2.3823
12588TIP3   OH259178   5.081   3.354  11.726  0.4292  0.5656 -0.5152
12588TIP3    H159179   5.010   3.382  11.669 -2.7264  1.6747  3.4981
12588TIP3    H259180   5.132   3.433  11.742 -0.1904  0.8483  0.0972
12589TIP3   OH259181   4.973   0.923   3.487 -0.4471  0.3170 -0.2038
12589TIP3    H159182   4.897   0.922   3.429 -0.0903 -0.1823 -0.6791
12589TIP3    H259183   5.019   0.841   3.467  0.6256  0.9740 -0.4753
12590TIP3   OH259184   5.807   6.206   1.198 -0.3124  0.2850  0.1320
12590TIP3    H159185   5.796   6.254   1.280 -0.4982  2.2852 -1.0065
12590TIP3    H259186   5.720   6.171   1.178 -0.4424  0.4679  0.3754
12591TIP3   OH259187   6.761   4.061   3.957  0.8652  0.1756 -0.3610
12591TIP3    H159188   6.854   4.057   3.981  0.3820  0.1788  1.5886
12591TIP3    H259189   6.714   4.066   4.040 -0.7758  3.5453 -1.3247
12592TIP3   OH259190   6.633   4.353   1.315 -0.5023  0.1261  0.3057
12592TIP3    H159191   6.687   4.431   1.310  1.9063 -1.4957 -1.8612
12592TIP3    H259192   6.554   4.375   1.265 -0.8774  1.8009  1.5605
12593TIP3   OH259193   1.274   0.874  15.421 -0.1162  0.4774  0.8018
12593TIP3    H159194   1.334   0.799  15.424  0.0291  0.6055  1.2141
12593TIP3    H259195   1.318   0.942  15.473 -1.5550 -0.1340  2.9339
12594TIP3   OH259196   5.094   2.529   5.118  0.3017 -0.1574  0.2657
12594TIP3    H159197   5.058   2.560   5.035  2.0422  0.7746 -0.1757
12594TIP3    H259198   5.079   2.434   5.116  0.7391 -0.2252 -1.3445
12595TIP3   OH259199   5.105   4.053  13.485 -0.5009 -0.4729 -0.0664
12595TIP3    H159200   5.180   4.031  13.541  0.4403 -0.1478 -1.1667
12595TIP3    H259201   5.070   4.134  13.523 -0.9347 -1.1470  1.0385
12596TIP3   OH259202   5.506   1.856   5.805 -0.0985 -0.0078  0.5460
12596TIP3    H159203   5.528   1.913   5.879 -1.8558 -0.3971  1.4225
12596TIP3    H259204   5.550   1.774   5.825 -0.7263 -0.1797  1.3000
12597TIP3   OH259205   5.103   1.570   3.923 -0.0907  0.1874  0.3649
12597TIP3    H159206   5.038   1.535   3.863  0.0412  0.5163  0.0253
12597TIP3    H259207   5.185   1.571   3.873 -0.2606  1.7542  0.0662
12598TIP3   OH259208   3.080   2.065   5.476 -0.1683 -0.2821 -0.4620
12598TIP3    H159209   3.025   2.021   5.540  0.5452 -1.1028 -0.4119
12598TIP3    H259210   3.023   2.075   5.399 -0.7509 -0.0649 -0.0122
12599TIP3   OH259211   3.037   2.354  16.134  0.2987  0.2317  0.1447
12599TIP3    H159212   3.062   2.320  16.048  1.2239 -0.3193  0.6196
12599TIP3    H259213   3.006   2.443  16.116 -2.0355 -0.7449 -1.0959
12600TIP3   OH259214   5.328   4.809  11.653 -0.2068 -0.1012 -0.0793
12600TIP3    H159215   5.357   4.825  11.563  0.9078 -0.0661  0.2627
12600TIP3    H259216   5.410   4.800  11.703 -0.6181  4.0507  1.7387
12601TIP3   OH259217   3.060   3.485  16.689 -0.0370 -0.0829 -0.0737
12601TIP3    H159218   3.073   3.562  16.745 -0.5894 -0.9223  1.2625
12601TIP3    H259219   2.965   3.477  16.682 -0.1029 -2.2020  2.1265
12602TIP3   OH259220   0.617   2.217   3.071  0.3199  0.4314 -0.2810
12602TIP3    H159221   0.549   2.157   3.040  0.3318  0.8927 -1.2317
12602TIP3    H259222   0.610   2.293   3.013 -0.8838  2.1806  1.9854
12603TIP3   OH259223   6.157   1.432  15.939 -0.0000 -0.4220  0.4432
12603TIP3    H159224   6.198   1.471  15.862 -0.9701  0.5794  0.4020
12603TIP3    H259225   6.127   1.346  15.909 -0.4111 -0.0260 -0.3296
12604TIP3   OH259226   2.521   2.860   5.274  0.0240  0.2940 -0.0765
12604TIP3    H159227   2.487   2.792   5.332  2.3707 -0.2534  0.7695
12604TIP3    H259228   2.569   2.812   5.206  0.1268  1.0598 -0.5642
12605TIP3   OH259229   1.320   5.247   4.063  0.0329 -0.1402 -0.0691
12605TIP3    H159230   1.291   5.304   3.991 -0.4963  1.4249  1.3310
12605TIP3    H259231   1.245   5.189   4.077 -0.9296  1.2508  0.8692
12606TIP3   OH259232   0.271   4.477  13.258 -0.3525 -0.2169 -0.1833
12606TIP3    H159233   0.210   4.416  13.218 -0.6516 -0.5983  0.8175
12606TIP3    H259234   0.218   4.525  13.322 -0.1649  1.2270 -1.0702
12607TIP3   OH259235   5.296   2.308  11.911  0.2533 -0.2135  0.5338
12607TIP3    H159236   5.366   2.315  11.846 -0.7056  2.4946 -0.3808
12607TIP3    H259237   5.340   2.289  11.993  2.2215  2.1437  0.1363
12608TIP3   OH259238   5.930   3.986  13.047  0.2232  0.0216 -0.0874
12608TIP3    H159239   6.015   3.986  13.003  1.1465  1.0144  1.5785
12608TIP3    H259240   5.923   3.899  13.085  0.6775  0.0621  0.0944
12609TIP3   OH259241   0.636   2.207  11.587 -0.4403 -0.1787  0.3949
12609TIP3    H159242   0.726   2.233  11.606 -0.0359 -1.6047  0.6021
12609TIP3    H259243   0.629   2.119  11.623 -0.9020 -1.4218 -2.4011
12610TIP3   OH259244   0.887   6.650  12.736  0.4521 -0.6513  0.9304
12610TIP3    H159245   0.822   6.582  12.721  0.9811 -0.9018 -0.4036
12610TIP3    H259246   0.873   6.678  12.826 -0.2388 -2.0323  1.2768
12611TIP3   OH259247   3.749   4.180  14.540  0.1470  0.4517  0.3835
12611TIP3    H159248   3.726   4.147  14.627 -2.3728  0.9448 -0.0309
12611TIP3    H259249   3.766   4.101  14.489 -2.1892 -0.1098  0.3601
12612TIP3   OH259250   3.844   4.384   2.584 -0.2257  0.5050  0.1766
12612TIP3    H159251   3.926   4.359   2.626 -0.6265 -2.1635 -0.3981
12612TIP3    H259252   3.870   4.425   2.502  0.5281  0.8663  0.5938
12613TIP3   OH259253   5.218   5.890  11.427  0.0788  0.0582 -0.2791
12613TIP3    H159254   5.226   5.983  11.405  2.0293 -0.4767 -2.1843
12613TIP3    H259255   5.128   5.867  11.402 -0.6777  1.5443  0.9092
12614TIP3   OH259256   2.494   2.607  16.986 -0.6511 -0.1108 -0.2426
12614TIP3    H159257   2.524   2.519  16.963 -0.1104 -0.3025  1.1017
12614TIP3    H259258   2.421   2.592  17.046 -0.6512  0.3576 -0.1246
12615TIP3   OH259259   3.840   0.131   3.650 -0.0672 -0.3401 -0.4258
12615TIP3    H159260   3.904   0.060   3.636  1.2417  0.8649 -0.7997
12615TIP3    H259261   3.862   0.196   3.584 -1.2087  0.4659 -0.0425
12616TIP3   OH259262   4.386   3.396  13.854 -0.7529 -0.9298  0.9071
12616TIP3    H159263   4.426   3.322  13.807 -1.5577 -0.3347 -0.7741
12616TIP3    H259264   4.322   3.355  13.913  0.7204 -1.7340  2.0255
12617TIP3   OH259265   4.822   1.634   5.004  0.1808 -0.3529 -0.2839
12617TIP3    H159266   4.847   1.589   4.922 -0.3519 -0.9743 -0.1145
12617TIP3    H259267   4.729   1.617   5.012  0.1686 -0.0046  0.2846
12618TIP3   OH259268   3.435   4.475   5.081  0.0790  0.2232 -0.8292
12618TIP3    H159269   3.396   4.542   5.138  2.5719 -0.1426  1.4676
12618TIP3    H259270   3.484   4.525   5.016 -2.8905  0.6487 -2.9608
12619TIP3   OH259271   4.957   3.006  15.286 -0.2225 -0.2165  0.5848
12619TIP3    H159272   5.017   3.003  15.211  0.6601 -0.9283  1.2890
12619TIP3    H259273   4.912   3.090  15.278  0.3860  0.0339 -0.3441
12620TIP3   OH259274   4.387   5.972   1.400 -0.2001 -0.9203 -0.3987
12620TIP3    H159275   4.298   5.966   1.436 -1.2766  0.6588 -2.5775
12620TIP3    H259276   4.421   6.054   1.436 -0.3281 -0.6097 -0.9778
12621TIP3   OH259277   1.447   1.261  11.247 -0.5404 -0.8416  0.3386
12621TIP3    H159278   1.475   1.174  11.220 -0.4997 -0.6702 -0.1950
12621TIP3    H259279   1.354   1.264  11.226 -0.2528 -0.2801 -0.9791
12622TIP3   OH259280   5.764   4.445  13.426 -0.3104 -0.0588 -0.4028
12622TIP3    H159281   5.858   4.433  13.413  0.1873  0.7869  1.9058
12622TIP3    H259282   5.748   4.535  13.398  0.4134  1.1510  2.6938
12623TIP3   OH259283   5.916   5.353   1.124 -0.0283  0.0437 -0.0588
12623TIP3    H159284   5.932   5.330   1.215 -3.7105 -0.0202  0.7093
12623TIP3    H259285   5.914   5.449   1.123 -1.0238  0.0285  0.1571
12624TIP3   OH259286   0.603   0.528   1.221  0.2202 -0.4957 -0.3394
12624TIP3    H159287   0.653   0.603   1.187  1.3229 -0.7957  0.5414
12624TIP3    H259288   0.564   0.559   1.302 -0.5282 -0.4565 -0.7055
12625TIP3   OH259289   6.416   2.706  13.415  0.3089 -0.0735 -0.8556
12625TIP3    H159290   6.438   2.786  13.368  0.0529  0.2430 -0.4449
12625TIP3    H259291   6.490   2.692  13.475  0.5495 -0.3757 -1.2224
12626TIP3   OH259292   3.631   3.074   5.664  0.1318  0.6785 -0.0295
12626TIP3    H159293   3.609   3.113   5.749 -1.6275  0.4494 -0.3568
12626TIP3    H259294   3.602   3.138   5.600  0.9936  0.6189 -0.4996
12627TIP3   OH259295   5.300   3.584  16.683 -0.5412 -0.0452  0.6966
12627TIP3    H159296   5.286   3.546  16.596 -1.1023 -2.0894  1.6095
12627TIP3    H259297   5.386   3.553  16.709 -0.2066  0.8878  0.7481
12628TIP3   OH259298   1.498   0.520  16.617 -0.0220 -0.8633  0.3697
12628TIP3    H159299   1.405   0.509  16.596  0.4480 -1.5227 -1.6277
12628TIP3    H259300   1.500   0.536  16.711 -2.3682  2.2408  0.0456
12629TIP3   OH259301   6.588   5.131   0.637 -0.0397 -0.3283 -0.3287
12629TIP3    H159302   6.500   5.168   0.646  0.3083  0.6150 -0.6456
12629TIP3    H259303   6.613   5.153   0.547  1.8275  2.4502  0.7408
12630TIP3   OH259304   6.044   4.103  16.305  0.1326 -0.4013  0.1750
12630TIP3    H159305   6.009   4.016  16.287  2.3700 -1.2709 -0.3485
12630TIP3    H259306   6.061   4.141  16.219  0.3949  0.0079  0.3977
12631TIP3   OH259307   0.563   0.089  13.228 -0.3422 -0.3102  0.0911
12631TIP3    H159308   0.538   0.020  13.289 -1.0037  1.0293  1.4064
12631TIP3    H259309   0.481   0.118  13.189 -0.1869  0.2869  0.1914
12632TIP3   OH259310   6.677   1.815  15.453 -0.0729  0.0762  0.1750
12632TIP3    H159311   6.708   1.842  15.540 -1.7361  0.5673  0.6642
12632TIP3    H259312   6.582   1.811  15.463 -0.1660 -2.0025 -1.0401
12633TIP3   OH259313   1.831   0.428   0.645 -0.0332  0.0985 -0.0805
12633TIP3    H159314   1.796   0.449   0.558  0.1031  0.7928  0.0301
12633TIP3    H259315   1.851   0.513   0.684 -1.3275 -0.1311  1.1597
12634TIP3   OH259316   2.985   0.302   0.080 -0.5559  0.0484 -0.0178
12634TIP3    H159317   3.027   0.381   0.045  2.4897 -0.8756  1.2735
12634TIP3    H259318   2.953   0.329   0.166 -1.0495  0.2718 -0.2626
12635TIP3   OH259319   3.548   0.263   0.392  0.2561 -0.3995 -0.2691
12635TIP3    H159320   3.613   0.285   0.459  0.5550  1.9333 -1.2186
12635TIP3    H259321   3.475   0.322   0.410  1.3167  2.1247 -3.3259
12636TIP3   OH259322   1.575   6.680   3.589  0.1348 -0.8451 -0.0307
12636TIP3    H159323   1.479   6.679   3.587 -0.0527  0.2992  2.8362
12636TIP3    H259324   1.597   6.753   3.647  2.8070 -0.5873 -1.2147
12637TIP3   OH259325   4.545   1.938   2.614  0.2983  0.9992 -0.1620
12637TIP3    H159326   4.599   1.871   2.656 -1.5217 -1.3477 -1.2863
12637TIP3    H259327   4.520   1.899   2.530 -1.6286  2.7280 -0.4660
12638TIP3   OH259328   4.460   4.911  13.042 -0.5418  0.2088  0.5473
12638TIP3    H159329   4.508   4.842  12.996  1.2634  1.7612 -0.0270
12638TIP3    H259330   4.373   4.875  13.056 -0.4518 -1.2155 -2.0358
12639TIP3   OH259331   0.085   3.857  10.728 -0.3704  0.4431 -0.6625
12639TIP3    H159332   0.102   3.769  10.694 -1.6308  0.2310 -0.8091
12639TIP3    H259333  -0.007   3.855  10.754 -1.2927  2.5578 -3.3139
12640TIP3   OH259334   5.247   6.080  15.798 -0.6051  0.0130  0.8637
12640TIP3    H159335   5.314   6.137  15.761  0.0877 -1.6422 -0.5718
12640TIP3    H259336   5.174   6.086  15.736 -0.1635 -1.3291  0.1757
12641TIP3   OH259337   3.605   3.603   2.209  0.7877  0.1909  0.3466
12641TIP3    H159338   3.579   3.528   2.262 -0.4237  0.3337 -0.0354
12641TIP3    H259339   3.549   3.600   2.132  0.5313  1.6204  0.4327
12642TIP3   OH259340   1.358   3.328  14.565 -0.2560  0.0848  0.3049
12642TIP3    H159341   1.388   3.276  14.639 -0.9438  0.8022  1.1095
12642TIP3    H259342   1.335   3.264  14.498  0.5136 -0.5644  0.6537
12643TIP3   OH259343   6.621   1.683  17.038  0.6083  0.6584 -0.6492
12643TIP3    H159344   6.689   1.624  17.004 -1.7073 -2.2394 -0.5794
12643TIP3    H259345   6.553   1.682  16.971 -0.9654  0.5174  0.8900
12644TIP3   OH259346   2.142   4.989  13.962 -0.1687 -0.0668 -0.1505
12644TIP3    H159347   2.105   4.957  14.045 -0.1968 -0.4471 -0.3108
12644TIP3    H259348   2.116   5.082  13.959 -1.0920 -0.3154 -0.2436
12645TIP3   OH259349   4.167   0.562   1.447 -0.5970 -0.0518 -0.4754
12645TIP3    H159350   4.072   0.558   1.437 -1.0284 -4.4011  2.5582
12645TIP3    H259351   4.180   0.605   1.532 -0.3406 -3.1374  1.1911
12646TIP3   OH259352   2.245   2.222  12.575 -0.2129 -0.3763 -0.5934
12646TIP3    H159353   2.245   2.248  12.667  1.2048 -0.1914 -0.6233
12646TIP3    H259354   2.227   2.128  12.577 -0.1840 -0.3763 -0.1275
12647TIP3   OH259355   1.950   3.247  15.061 -0.6758 -0.1185 -0.5958
12647TIP3    H159356   1.899   3.326  15.047  0.1296  0.7725  1.1493
12647TIP3    H259357   2.026   3.257  15.003 -0.4295  0.5532 -0.1720
12648TIP3   OH259358   2.533   1.891  15.615  0.1821  0.1050  0.2389
12648TIP3    H159359   2.605   1.866  15.673  0.7364 -0.7364 -0.7747
12648TIP3    H259360   2.526   1.819  15.553 -0.5042  0.9025 -0.6421
12649TIP3   OH259361   4.961   6.766   1.137  0.4431 -0.0341 -0.1901
12649TIP3    H159362   4.875   6.751   1.098 -0.1241 -0.8771  1.2881
12649TIP3    H259363   4.943   6.778   1.230  1.8758  0.3958  0.0578
12650TIP3   OH259364   1.047   2.289   0.120  0.2741  0.0907 -0.2707
12650TIP3    H159365   1.063   2.349   0.047  2.0236 -0.3025 -0.2751
12650TIP3    H259366   1.050   2.202   0.079 -1.6009 -0.0582 -0.1648
12651TIP3   OH259367   5.688   1.969  13.743  0.1694 -0.3610 -0.1473
12651TIP3    H159368   5.775   1.982  13.706 -0.5550  0.4869 -1.6780
12651TIP3    H259369   5.631   1.958  13.667 -1.1108 -0.5593  0.8012
12652TIP3   OH259370   4.458   3.319   2.442 -0.4301 -0.9347  0.3357
12652TIP3    H159371   4.461   3.242   2.386  2.8353 -0.9493  0.3496
12652TIP3    H259372   4.477   3.392   2.383  0.8849 -0.6955  1.0225
12653TIP3   OH259373   4.920   4.529  12.475  0.2676  0.0972 -0.3599
12653TIP3    H159374   4.974   4.607  12.466  0.7750 -0.2274 -0.1397
12653TIP3    H259375   4.946   4.490  12.558 -1.1928  0.6141  0.3704
12654TIP3   OH259376   5.991   5.697  14.794  0.3211 -0.0070 -0.5634
12654TIP3    H159377   6.025   5.701  14.883  1.6394 -2.5721 -0.8488
12654TIP3    H259378   5.897   5.682  14.805  0.3325  0.4941  0.3502
12655TIP3   OH259379   1.685   0.215   3.271  0.4160  0.6908 -0.1077
12655TIP3    H159380   1.731   0.249   3.194 -0.7990  0.8153 -0.8031
12655TIP3    H259381   1.688   0.120   3.261  0.0908  0.7106 -0.4237
12656TIP3   OH259382   2.385   0.238  12.715 -0.4575 -0.5678 -0.2126
12656TIP3    H159383   2.476   0.208  12.722 -0.3814 -0.2548  0.1564
12656TIP3    H259384   2.392   0.332  12.695 -0.6924 -0.2532  1.0753
12657TIP3   OH259385   0.085   6.058   0.446 -0.0863  0.3726  0.0003
12657TIP3    H159386   0.019   6.008   0.495 -1.9041 -0.0184 -2.6058
12657TIP3    H259387   0.052   6.148   0.447 -1.0134  0.0956 -1.7063
12658TIP3   OH259388   3.117   6.281  12.249 -0.4563 -0.2911 -0.3248
12658TIP3    H159389   3.144   6.334  12.174 -0.0859 -1.5478 -1.1047
12658TIP3    H259390   3.193   6.226  12.268 -0.1683  0.6876  1.6290
12659TIP3   OH259391   4.969   3.590   3.287  0.0824  0.7546  0.4119
12659TIP3    H159392   4.993   3.510   3.241 -2.9280  0.2147 -0.4048
12659TIP3    H259393   5.052   3.624   3.321  1.6175 -1.9751 -0.3425
12660TIP3   OH259394   4.067   4.778   4.986  0.0131 -0.2524  0.0464
12660TIP3    H159395   3.996   4.738   5.036  0.4651 -2.0942 -0.7104
12660TIP3    H259396   4.104   4.844   5.045 -1.6623  0.0492  0.8147
12661TIP3   OH259397   5.814   2.526  13.464 -0.2411 -0.7304  0.3364
12661TIP3    H159398   5.900   2.500  13.497 -0.6360 -0.3843  1.7338
12661TIP3    H259399   5.751   2.486  13.525 -0.9163  2.1035  1.7058
12662TIP3   OH259400   4.496   6.652  16.528  0.4495 -0.1624 -0.2631
12662TIP3    H159401   4.496   6.714  16.455  1.7515 -0.6641 -0.7202
12662TIP3    H259402   4.588   6.646  16.554  0.3682 -1.9121 -0.2625
12663TIP3   OH259403   3.578   5.863   1.336 -0.1878  0.6871 -0.5803
12663TIP3    H159404   3.584   5.905   1.422  0.0736  0.1158 -0.3109
12663TIP3    H259405   3.487   5.877   1.309 -1.0576 -1.3717  0.9942
12664TIP3   OH259406   6.355   1.115   0.921  0.4856  0.4445 -0.1005
12664TIP3    H159407   6.335   1.136   1.012  0.2340 -0.9533  0.1855
12664TIP3    H259408   6.289   1.051   0.896  0.7661  0.5506 -1.1614
12665TIP3   OH259409   2.212   6.744   0.663  0.6372 -0.0902 -0.2412
12665TIP3    H159410   2.193   6.701   0.579 -0.3600 -0.1070 -0.0228
12665TIP3    H259411   2.151   6.703   0.725  1.8492 -0.5877  0.6606
12666TIP3   OH259412   0.574   4.321  15.284 -0.2063  0.4018 -0.0258
12666TIP3    H159413   0.640   4.272  15.332 -1.6021 -0.2773  1.3050
12666TIP3    H259414   0.560   4.272  15.203 -1.9461 -1.8086  1.5024
12667TIP3   OH259415   2.662   6.568   4.023 -0.0937 -0.4445 -0.6000
12667TIP3    H159416   2.744   6.617   4.012  0.3659 -0.4273  2.1614
12667TIP3    H259417   2.594   6.635   4.019  0.1330 -0.2596 -1.5012
12668TIP3   OH259418   0.969   3.501  15.338 -0.1088 -0.0057 -0.8348
12668TIP3    H159419   0.941   3.475  15.426 -0.4012 -2.4441 -1.5652
12668TIP3    H259420   0.889   3.493  15.285  0.1462  1.0902 -1.4077
12669TIP3   OH259421   2.814   1.411  16.219  0.9027  0.1005  0.6984
12669TIP3    H159422   2.764   1.491  16.207 -1.7131 -1.7210 -2.0625
12669TIP3    H259423   2.765   1.362  16.285  0.2948 -0.7382 -0.3477
12670TIP3   OH259424   4.640   3.179  16.401 -0.2496 -0.4464  1.0481
12670TIP3    H159425   4.722   3.197  16.449 -0.8675  3.8080  0.9155
12670TIP3    H259426   4.655   3.216  16.314 -1.9492 -0.6224  0.6545
12671TIP3   OH259427   2.005   2.049  15.265  0.1034  0.2949 -0.2111
12671TIP3    H159428   2.018   2.141  15.244 -1.3033  0.3400 -0.9920
12671TIP3    H259429   1.913   2.032  15.246  0.7802 -1.7784 -2.0901
12672TIP3   OH259430   2.127   3.641  11.658  0.1463  0.6197 -0.3517
12672TIP3    H159431   2.195   3.707  11.647  1.3467 -0.6748 -0.8870
12672TIP3    H259432   2.152   3.570  11.599 -0.2054 -1.0314  1.4157
12673TIP3   OH259433   0.897   2.295  11.287  0.2006  0.4539 -0.3606
12673TIP3    H159434   0.974   2.350  11.270 -1.3646  2.8876 -0.1738
12673TIP3    H259435   0.873   2.260  11.200  0.5819  1.0329 -0.7063
12674TIP3   OH259436   5.564   2.753  15.507 -0.0679 -0.4391  0.2905
12674TIP3    H159437   5.471   2.734  15.522 -0.5305  0.5429 -1.1348
12674TIP3    H259438   5.578   2.730  15.415  1.0316 -0.2459  0.3971
12675TIP3   OH259439   6.518   6.473   6.027 -0.5812  0.7764 -0.7554
12675TIP3    H159440   6.505   6.456   6.120 -2.0040  0.1848 -1.0342
12675TIP3    H259441   6.611   6.455   6.012 -0.6217 -0.4132  0.2811
12676TIP3   OH259442   3.989   2.681   4.208  0.3425  0.1604  0.0375
12676TIP3    H159443   3.912   2.664   4.262  0.3544 -0.0631 -0.0175
12676TIP3    H259444   4.044   2.603   4.219  2.2349  1.6954  2.9357
12677TIP3   OH259445   0.291   6.321   0.781  0.0674  0.0432 -0.1327
12677TIP3    H159446   0.202   6.349   0.805  0.1070 -1.9105  2.9231
12677TIP3    H259447   0.280   6.231   0.750  1.0018 -0.4245  0.8334
12678TIP3   OH259448   6.007   2.148  13.428  0.0779 -0.0053  0.3702
12678TIP3    H159449   6.065   2.090  13.477  2.2139  1.2778 -0.4962
12678TIP3    H259450   6.008   2.114  13.339 -0.5407  0.0358  0.3398
12679TIP3   OH259451   5.884   0.034  11.260 -0.0763  0.0802  0.8429
12679TIP3    H159452   5.940  -0.008  11.196  0.4221 -0.9382  1.9172
12679TIP3    H259453   5.868   0.122  11.225  0.9462 -0.1412 -0.2034
12680TIP3   OH259454   2.036   1.896   1.785 -0.2512  0.2054 -0.5414
12680TIP3    H159455   2.009   1.839   1.713  2.3778 -1.0248 -0.6505
12680TIP3    H259456   2.052   1.981   1.744  0.4046 -0.2611 -1.2680
12681TIP3   OH259457   3.655   3.410   3.283 -0.2297  0.0430  0.0422
12681TIP3    H159458   3.634   3.346   3.351 -1.8479  0.5711  0.0812
12681TIP3    H259459   3.678   3.490   3.330 -0.9155  0.2768  0.0016
12682TIP3   OH259460   4.723   3.082  11.784  0.3402 -0.3756 -0.1386
12682TIP3    H159461   4.804   3.045  11.749  1.8737  1.2650  1.5278
12682TIP3    H259462   4.738   3.089  11.878 -0.8107  2.1242 -0.0666
12683TIP3   OH259463   1.062   0.792  14.041 -0.1832  0.5193  0.4981
12683TIP3    H159464   1.134   0.760  14.095 -0.5442  0.5732  1.0129
12683TIP3    H259465   1.090   0.773  13.951 -0.5699 -1.6627  0.7728
12684TIP3   OH259466   0.286   0.739   5.733  0.2035  0.3356  0.1286
12684TIP3    H159467   0.358   0.712   5.676 -0.4766  0.1244 -0.6329
12684TIP3    H259468   0.212   0.684   5.708 -0.1498  0.3350  1.1196
12685TIP3   OH259469   6.003   2.225  11.664  0.1002 -0.7351  0.0317
12685TIP3    H159470   5.982   2.179  11.582 -0.6711  0.6172 -0.5783
12685TIP3    H259471   5.942   2.299  11.665  1.2810  0.2609  0.9681
12686TIP3   OH259472   5.264   1.855   3.868 -0.1551 -0.0857  0.5455
12686TIP3    H159473   5.171   1.845   3.889  0.0904 -1.7501  0.9758
12686TIP3    H259474   5.304   1.885   3.951 -0.2043  0.0156  0.5333
12687TIP3   OH259475   6.648   0.673   0.497 -0.6456  0.2161  0.4072
12687TIP3    H159476   6.671   0.699   0.586  0.3573 -0.5789  0.3927
12687TIP3    H259477   6.728   0.686   0.446 -1.4217  1.4091 -0.5668
12688TIP3   OH259478   1.048   3.995  15.669  0.2861 -0.6088  0.4159
12688TIP3    H159479   0.981   3.952  15.615  0.7221  0.5521 -1.1229
12688TIP3    H259480   1.130   3.973  15.626  0.6099  0.7905  0.2731
12689TIP3   OH259481   2.156   0.532  15.781 -0.4965  0.8020 -0.4946
12689TIP3    H159482   2.160   0.437  15.788  2.3999  0.9704  2.6302
12689TIP3    H259483   2.073   0.556  15.823 -0.2739 -0.3078  0.6428
12690TIP3   OH259484   4.456   5.983  10.888  0.0243 -0.4311 -0.0749
12690TIP3    H159485   4.531   5.945  10.934 -0.0074 -0.1434  0.2245
12690TIP3    H259486   4.405   5.908  10.859 -0.3110 -0.6282  0.9565
12691TIP3   OH259487   0.049   0.921   0.916 -0.0367  0.5089  0.2779
12691TIP3    H159488   0.138   0.891   0.933 -0.7271 -0.6175  2.2685
12691TIP3    H259489   0.060   1.011   0.884  1.7775  1.3027  2.7894
12692TIP3   OH259490   3.115   4.236   2.703  0.0202  0.3424 -0.1806
12692TIP3    H159491   3.108   4.308   2.765  1.1884  1.3695 -1.1701
12692TIP3    H259492   3.205   4.242   2.670 -0.7049  0.1893 -2.3458
12693TIP3   OH259493   6.586   0.919   5.788  0.2440 -0.1706  0.5124
12693TIP3    H159494   6.581   0.875   5.704  0.1641  0.6851  0.0509
12693TIP3    H259495   6.554   0.855   5.851 -0.7428 -0.4569 -0.2493
12694TIP3   OH259496   4.631   1.131  15.609 -0.4181 -0.0072 -0.3086
12694TIP3    H159497   4.637   1.225  15.591 -0.1753  0.2557  1.0181
12694TIP3    H259498   4.591   1.094  15.531 -1.1681  1.3015 -0.5740
12695TIP3   OH259499   2.428   0.204   6.081 -0.0714 -0.1403  0.0471
12695TIP3    H159500   2.379   0.141   6.135  0.1228 -2.1228 -1.9111
12695TIP3    H259501   2.520   0.188   6.102 -0.0366 -0.3554 -0.2497
12696TIP3   OH259502   2.796   4.795  16.586  0.6595  0.1639  0.6372
12696TIP3    H159503   2.707   4.806  16.555  0.5534 -1.5076  0.2775
12696TIP3    H259504   2.850   4.797  16.507  0.8706  0.4039  0.7842
12697TIP3   OH259505   1.912   3.865   1.246 -0.1217  0.0519  0.2240
12697TIP3    H159506   1.874   3.933   1.302 -0.9262  1.5020 -1.9546
12697TIP3    H259507   1.850   3.855   1.174  0.7170 -1.9742 -0.3032
12698TIP3   OH259508   4.686   5.453   0.951  0.2876  0.0242  0.0448
12698TIP3    H159509   4.729   5.485   0.871  0.6298 -0.0259  0.2083
12698TIP3    H259510   4.594   5.477   0.939  0.3090 -0.1135 -0.4344
12699TIP3   OH259511   1.345   4.643   2.190 -0.0757  0.1984  0.0493
12699TIP3    H159512   1.417   4.580   2.195 -0.7412 -0.6706 -1.0703
12699TIP3    H259513   1.270   4.592   2.162 -1.5962  0.7521  2.7372
12700TIP3   OH259514   3.037   3.904  14.067 -0.5995  0.1899 -0.0027
12700TIP3    H159515   2.974   3.945  14.126  0.7631  2.1840  0.1722
12700TIP3    H259516   3.122   3.919  14.109  0.1537 -0.8504 -1.0981
12701TIP3   OH259517   2.951   2.126  10.478  0.2133 -0.2720  0.0425
12701TIP3    H159518   2.924   2.212  10.448 -0.5921 -1.1077 -1.8065
12701TIP3    H259519   2.998   2.142  10.560 -1.6899  1.7082  0.8421
12702TIP3   OH259520   0.783   1.099  16.832 -0.2485 -0.2102  0.2967
12702TIP3    H159521   0.778   1.170  16.769 -0.7263 -2.0153 -1.7965
12702TIP3    H259522   0.692   1.070  16.843 -0.2007  0.1665  1.9924
12703TIP3   OH259523   0.611   0.390  10.965  0.2417 -0.1929 -0.2919
12703TIP3    H159524   0.601   0.306  10.920  2.1868 -1.1439  0.9207
12703TIP3    H259525   0.705   0.401  10.976 -0.0113  1.6633  0.5187
12704TIP3   OH259526   4.615   3.264   2.004  0.8947 -0.8271  0.4180
12704TIP3    H159527   4.569   3.184   1.978  1.1149 -1.2231  1.2029
12704TIP3    H259528   4.634   3.251   2.097 -0.2309  0.7112  0.8972
12705TIP3   OH259529   6.506   4.815   6.408  0.1194  0.2173  0.8857
12705TIP3    H159530   6.462   4.735   6.379  0.1729  1.7701 -4.8357
12705TIP3    H259531   6.435   4.877   6.423  0.1035  0.5325 -0.3536
12706TIP3   OH259532   3.184   0.291   2.772  0.2240  0.0200 -0.0570
12706TIP3    H159533   3.119   0.227   2.798 -1.1546  0.5487 -2.0271
12706TIP3    H259534   3.137   0.354   2.718  2.1022  1.1569 -0.4909
12707TIP3   OH259535   6.454   6.792  16.089 -0.3215 -0.2300  0.2942
12707TIP3    H159536   6.450   6.878  16.047  3.1773 -0.9005 -1.8078
12707TIP3    H259537   6.481   6.810  16.179  1.2618  0.8880 -0.3670
12708TIP3   OH259538   5.688   4.781  13.804  0.1650 -0.5262 -0.0229
12708TIP3    H159539   5.643   4.835  13.868 -2.0853 -0.8286 -1.2597
12708TIP3    H259540   5.689   4.833  13.724  1.2956 -0.8763 -0.2627
12709TIP3   OH259541   4.930   6.734   3.328 -0.3008  0.7953  0.1368
12709TIP3    H159542   4.911   6.710   3.419 -0.2933 -1.6416 -0.4239
12709TIP3    H259543   4.999   6.800   3.333 -0.5964  0.9991  1.8879
12710TIP3   OH259544   5.491   4.373  10.941  0.3205  1.0618 -0.3483
12710TIP3    H159545   5.505   4.304  10.877  1.0634  1.1077 -0.2485
12710TIP3    H259546   5.443   4.441  10.894 -1.6827 -0.0854 -0.0747
12711TIP3   OH259547   2.688   0.650  13.202 -0.5423  1.1037 -0.2319
12711TIP3    H159548   2.686   0.733  13.249 -0.7975  0.3020  1.2221
12711TIP3    H259549   2.739   0.668  13.123 -1.8224  3.0121 -0.6989
12712TIP3   OH259550   6.705   3.514  16.135  0.2729 -0.1768 -0.3255
12712TIP3    H159551   6.775   3.468  16.181  0.0562 -0.7454 -0.5535
12712TIP3    H259552   6.724   3.501  16.042 -1.1943 -2.0647 -0.4361
12713TIP3   OH259553   2.497   0.006   5.900  0.0942 -0.2262  0.3604
12713TIP3    H159554   2.558  -0.055   5.942 -0.7105 -0.3069  1.4741
12713TIP3    H259555   2.445   0.041   5.972 -0.7154  0.3579 -0.4822
12714TIP3   OH259556   2.696   2.283  11.693 -0.4881  0.3267  0.0813
12714TIP3    H159557   2.745   2.207  11.723  1.2067  0.2381 -2.5421
12714TIP3    H259558   2.744   2.358  11.728 -0.0756  0.2022 -0.2080
12715TIP3   OH259559   5.799   0.744   3.575  0.4156 -0.8263  0.7730
12715TIP3    H159560   5.889   0.768   3.595  0.4966  0.6072 -0.9878
12715TIP3    H259561   5.791   0.758   3.481 -1.7053 -0.6647  0.9221
12716TIP3   OH259562   4.158   2.427  13.413 -0.2217  0.2532 -0.1873
12716TIP3    H159563   4.245   2.389  13.420 -0.7502 -1.4973 -1.9161
12716TIP3    H259564   4.170   2.508  13.364  0.6679  1.2804  1.6411
12717TIP3   OH259565   2.012   0.725   1.703 -0.4764 -0.2029  0.3094
12717TIP3    H159566   1.936   0.694   1.752 -0.2782  0.4892  1.0876
12717TIP3    H259567   2.059   0.780   1.766  0.4233 -0.2560 -0.3013
12718TIP3   OH259568   5.100   4.522   4.173  0.2165 -0.5563  0.5739
12718TIP3    H159569   5.091   4.558   4.085 -0.6162  0.6344  1.1235
12718TIP3    H259570   5.085   4.428   4.161  1.0117 -0.5547 -0.6755
12719TIP3   OH259571   0.484   5.480   5.746 -0.0526 -0.3383  0.3184
12719TIP3    H159572   0.433   5.499   5.824  2.6793  0.6316  1.9901
12719TIP3    H259573   0.502   5.565   5.706 -0.2566 -0.7079 -0.5924
12720TIP3   OH259574   2.658   1.396  11.682 -0.0626 -1.2165  0.2920
12720TIP3    H159575   2.666   1.402  11.587  1.0658  1.0049  0.4752
12720TIP3    H259576   2.747   1.378  11.712  0.2859  1.3633  1.0566
12721TIP3   OH259577   6.091   2.353   2.980  0.5772  0.2434 -0.0861
12721TIP3    H159578   6.118   2.287   2.917  0.7142 -0.6919  0.9260
12721TIP3    H259579   6.055   2.303   3.054 -3.8030  1.3059 -1.1889
12722TIP3   OH259580   5.093   2.815   2.663  0.1677 -0.1430  0.1417
12722TIP3    H159581   5.063   2.874   2.594 -1.5639 -1.1249  0.0002
12722TIP3    H259582   5.061   2.854   2.744 -1.2425 -0.9630  0.0251
12723TIP3   OH259583   3.914   1.653   2.615  0.0087  0.1713  0.4162
12723TIP3    H159584   3.896   1.735   2.570  1.0578  0.1432 -0.0813
12723TIP3    H259585   4.003   1.663   2.648  1.7086 -2.1678 -2.9250
12724TIP3   OH259586   5.718   3.437  11.307 -0.5521  0.3937  0.4858
12724TIP3    H159587   5.679   3.385  11.377 -1.0512 -0.7687 -0.6022
12724TIP3    H259588   5.813   3.428  11.321 -0.5337 -2.6818 -0.8693
12725TIP3   OH259589   3.925   3.477  12.811 -0.2716 -0.0968  0.2805
12725TIP3    H159590   4.020   3.482  12.824 -0.4152  0.5702  1.0907
12725TIP3    H259591   3.894   3.567  12.820 -0.9494 -0.2554 -0.3106
12726TIP3   OH259592   5.296   5.541   6.621  0.3064  0.1835  0.3946
12726TIP3    H159593   5.239   5.509   6.692 -1.2954  0.4441 -0.7150
12726TIP3    H259594   5.248   5.615   6.584  1.1910  0.1517 -0.8657
12727TIP3   OH259595   2.027   5.765   3.357  0.4016  0.2165 -0.0201
12727TIP3    H159596   1.986   5.689   3.314  0.4692  0.5809 -0.7350
12727TIP3    H259597   2.091   5.797   3.294  0.2453  0.9832  0.2000
12728TIP3   OH259598   5.243   5.742   2.857  0.5607 -0.1870  0.0300
12728TIP3    H159599   5.216   5.819   2.906  0.9977 -0.3677  0.5645
12728TIP3    H259600   5.328   5.767   2.819  0.7472 -0.4417  0.2832
12729TIP3   OH259601   5.533   6.077   3.726  0.1974  0.1958  0.1772
12729TIP3    H159602   5.547   6.099   3.634  0.1005  0.3866  0.2081
12729TIP3    H259603   5.451   6.120   3.750 -1.3861 -2.2755 -0.4499
12730TIP3   OH259604   0.937   3.589  11.007 -0.3553 -0.5241  0.3105
12730TIP3    H159605   0.851   3.564  10.974  0.3493 -0.5890 -1.6021
12730TIP3    H259606   0.931   3.684  11.021 -0.6281 -0.4633 -0.2115
12731TIP3   OH259607   1.254   4.882   1.139  0.3051  0.3130 -0.4629
12731TIP3    H159608   1.177   4.939   1.134  0.0167 -0.0467 -0.1967
12731TIP3    H259609   1.262   4.847   1.050 -1.2334 -1.4280  0.0144
12732TIP3   OH259610   2.289   0.538   4.044  0.1385  0.5562  0.4541
12732TIP3    H159611   2.240   0.456   4.045  0.7912  0.1485 -0.3790
12732TIP3    H259612   2.224   0.604   4.020 -0.1646  0.1330  0.1031
12733TIP3   OH259613   2.068   4.094  14.291 -0.9078 -0.1176  0.2821
12733TIP3    H159614   1.989   4.116  14.340 -1.0680 -0.7310  0.3091
12733TIP3    H259615   2.038   4.035  14.222 -0.4250 -0.6040  0.4823
12734TIP3   OH259616   2.656   4.783  14.499 -0.3354  0.0097  0.5151
12734TIP3    H159617   2.638   4.852  14.435  0.8493 -0.1731 -0.0376
12734TIP3    H259618   2.569   4.756  14.529 -0.8383  1.4224  0.4218
12735TIP3   OH259619   4.470   0.750  12.566  0.1652  0.6062 -0.2368
12735TIP3    H159620   4.407   0.819  12.582 -1.8351 -0.8962 -1.2487
12735TIP3    H259621   4.436   0.674  12.612  1.0390 -0.3459 -1.0873
12736TIP3   OH259622   5.418   6.403   3.679 -0.4756 -0.2110 -0.2488
12736TIP3    H159623   5.512   6.417   3.688 -0.1328 -2.8044  1.3347
12736TIP3    H259624   5.379   6.459   3.747  0.1850 -1.1635  0.9524
12737TIP3   OH259625   3.907   0.645   1.335 -0.0628 -0.4206 -0.4081
12737TIP3    H159626   3.826   0.601   1.308 -0.5223  0.4828 -0.5320
12737TIP3    H259627   3.880   0.705   1.404  0.6693 -0.7925  0.2230
12738TIP3   OH259628   1.055   6.180   2.008  0.1700 -0.4351 -0.0981
12738TIP3    H159629   1.070   6.272   2.028 -2.9395 -0.1359  1.4175
12738TIP3    H259630   1.119   6.133   2.063  1.0555  0.7765 -0.0582
12739TIP3   OH259631   0.248   4.074  13.318  0.2494 -0.1812 -0.3333
12739TIP3    H159632   0.211   4.003  13.371 -1.3705  1.6361  1.1407
12739TIP3    H259633   0.342   4.070  13.334  0.3584 -2.6783 -1.2437
12740TIP3   OH259634   1.247   1.386  10.380 -0.0661  0.1294 -1.0401
12740TIP3    H159635   1.342   1.374  10.379 -0.2658 -1.6968 -1.1009
12740TIP3    H259636   1.221   1.387  10.288 -0.2624 -1.0316 -1.0134
12741TIP3   OH259637   3.357   0.140   1.091 -0.6554 -0.9286  0.6170
12741TIP3    H159638   3.315   0.054   1.091 -1.4836 -0.5314  0.3729
12741TIP3    H259639   3.287   0.202   1.072 -0.0225 -0.2126  0.5356
12742TIP3   OH259640   1.876   2.443  16.612  0.4071 -0.5480  0.4844
12742TIP3    H159641   1.969   2.444  16.591  0.4478  0.7815  0.6624
12742TIP3    H259642   1.860   2.355  16.648  1.6790 -0.6118  0.9275
12743TIP3   OH259643   5.052   0.137  17.118  0.6713 -0.2428  0.0987
12743TIP3    H159644   4.975   0.154  17.172  0.4459  1.1470 -0.6100
12743TIP3    H259645   5.058   0.213  17.061  2.0853 -0.7286 -0.4409
12744TIP3   OH259646   5.887   3.907  14.020  0.7578 -0.1692 -0.2540
12744TIP3    H159647   5.817   3.926  14.083  1.7136 -2.1275  1.5344
12744TIP3    H259648   5.960   3.961  14.048  0.2583  1.3037 -1.6587
12745TIP3   OH259649   0.853   1.000  11.885  0.5219 -0.2460 -0.2149
12745TIP3    H159650   0.866   1.079  11.937  1.1418 -1.5088  1.6357
12745TIP3    H259651   0.858   1.030  11.794 -0.1998  1.9585  0.4317
12746TIP3   OH259652   2.380   3.642   5.140 -0.2177  0.1079  0.6582
12746TIP3    H159653   2.383   3.547   5.125 -1.1161  0.3560 -1.3926
12746TIP3    H259654   2.397   3.652   5.234  2.4583 -1.9016  0.5030
12747TIP3   OH259655   4.449   0.632  14.667  0.1849 -0.3887  0.7281
12747TIP3    H159656   4.475   0.641  14.758 -0.0051 -0.5587  0.7997
12747TIP3    H259657   4.523   0.590  14.624 -0.4118 -1.9482  1.1609
12748TIP3   OH259658   4.361   6.060   3.569 -0.0314  0.4263  0.4895
12748TIP3    H159659   4.282   6.115   3.568 -1.0998 -1.0417 -0.5938
12748TIP3    H259660   4.413   6.091   3.495  0.7952  1.8583  1.6154
12749TIP3   OH259661   4.623   3.231  12.284  0.6513  0.4274 -0.4651
12749TIP3    H159662   4.531   3.215  12.308  0.3937 -0.5079 -1.8935
12749TIP3    H259663   4.671   3.161  12.328  0.4167 -0.2040 -1.1849
12750TIP3   OH259664   6.504   4.433  11.154 -0.0558 -0.2021  0.3420
12750TIP3    H159665   6.446   4.498  11.113 -0.9960 -1.1147  0.1753
12750TIP3    H259666   6.533   4.378  11.082 -0.1934 -0.6597  0.6302
12751TIP3   OH259667   5.215   2.878  11.150 -0.0935 -0.4126  0.1612
12751TIP3    H159668   5.247   2.960  11.188  1.1962 -1.3935  1.2593
12751TIP3    H259669   5.253   2.877  11.062  0.0708  0.0591  0.2225
12752TIP3   OH259670   0.533   6.182  10.497 -0.3824  0.1091  0.6432
12752TIP3    H159671   0.440   6.171  10.515 -0.7872  1.5331 -0.3935
12752TIP3    H259672   0.554   6.111  10.436 -0.3414 -1.2669  2.1875
12753TIP3   OH259673   5.121   3.937   5.771  0.0055 -0.2126 -0.4246
12753TIP3    H159674   5.132   3.955   5.678 -0.7132  2.4285 -0.0875
12753TIP3    H259675   5.040   3.886   5.777 -0.1805 -0.0156 -1.2113
12754TIP3   OH259676   4.876   1.329   3.963  0.6296 -0.6891 -0.0165
12754TIP3    H159677   4.893   1.236   3.945  2.1740 -0.3049 -0.6621
12754TIP3    H259678   4.810   1.327   4.033 -0.6582 -2.2462 -1.1895
12755TIP3   OH259679   5.636   6.703  11.399 -0.1571  0.3778  0.2229
12755TIP3    H159680   5.726   6.711  11.367 -0.5731  2.5399 -0.4936
12755TIP3    H259681   5.581   6.713  11.322 -1.0504  0.3866  0.8432
12756TIP3   OH259682   2.386   6.109   5.923 -0.0979  0.1794  0.2253
12756TIP3    H159683   2.347   6.174   5.865  0.3695 -0.1514 -0.4706
12756TIP3    H259684   2.362   6.138   6.011 -0.9248  0.6096 -0.1380
12757TIP3   OH259685   5.797   2.579  15.072 -0.2062  0.0007  0.0815
12757TIP3    H159686   5.793   2.654  15.013  1.8746  0.5344  0.5564
12757TIP3    H259687   5.783   2.503  15.016  0.3347  0.5847 -0.8621
12758TIP3   OH259688   4.334   4.706   5.141  0.1241 -0.8259 -0.3732
12758TIP3    H159689   4.388   4.627   5.138  1.6156  0.1611 -0.2271
12758TIP3    H259690   4.373   4.759   5.211 -0.5540  0.2583 -0.7989
12759TIP3   OH259691   1.935   2.465  14.426 -0.2093  0.1180 -0.3256
12759TIP3    H159692   2.030   2.464  14.418 -0.0758 -0.8286  1.1751
12759TIP3    H259693   1.905   2.507  14.345  1.3812 -1.2005 -1.6662
12760TIP3   OH259694   1.562   0.571  11.274  0.0903 -0.5519 -0.2040
12760TIP3    H159695   1.559   0.575  11.370  0.8691  0.0963 -0.1937
12760TIP3    H259696   1.590   0.659  11.248  0.1820 -0.8167 -1.0101
12761TIP3   OH259697   1.546   1.818   1.241  0.4595 -0.2115 -0.0708
12761TIP3    H159698   1.468   1.873   1.247  0.6831  0.3503 -1.9125
12761TIP3    H259699   1.518   1.732   1.273 -0.9358 -0.0280 -0.7593
12762TIP3   OH259700   1.026   5.773  16.334  0.7025  0.4852 -0.0529
12762TIP3    H159701   0.989   5.761  16.247 -0.9161  1.0018  0.5341
12762TIP3    H259702   1.060   5.863  16.333 -0.2249  0.8510  0.1470
12763TIP3   OH259703   1.902   6.152  12.782 -0.3134  0.3475 -0.4541
12763TIP3    H159704   1.861   6.092  12.720 -0.2397 -0.1612 -0.0186
12763TIP3    H259705   1.840   6.158  12.854 -0.3742  0.8919 -0.5463
12764TIP3   OH259706   1.885   6.105  15.430  0.5982 -0.1175  0.4106
12764TIP3    H159707   1.876   6.021  15.385 -0.3232  0.6104 -0.8094
12764TIP3    H259708   1.818   6.103  15.498 -1.5087  0.7895 -1.5290
12765TIP3   OH259709   6.315   4.425  15.018  0.2288 -0.2431  0.5817
12765TIP3    H159710   6.409   4.438  15.009  0.1317 -0.6192 -1.5478
12765TIP3    H259711   6.306   4.331  15.035  0.2834  0.0907  2.7377
12766TIP3   OH259712   5.763   5.250  14.191 -0.0445  0.4489 -0.3316
12766TIP3    H159713   5.790   5.176  14.136  1.0672 -0.2000  1.0361
12766TIP3    H259714   5.700   5.212  14.253  0.2472  0.7328  0.1425
12767TIP3   OH259715   3.141   4.604   6.269 -0.6322  0.2826 -0.0851
12767TIP3    H159716   3.168   4.581   6.181 -0.7952  1.1408 -0.3695
12767TIP3    H259717   3.222   4.606   6.320 -0.6215 -0.9472 -0.0281
12768TIP3   OH259718   6.387   0.405   1.671 -0.1436 -0.2289 -0.1880
12768TIP3    H159719   6.396   0.483   1.616  2.2620  0.3548  0.9174
12768TIP3    H259720   6.315   0.427   1.730  0.4637  1.1743  0.0804
12769TIP3   OH259721   4.841   6.131  11.806  0.2534  0.1998 -0.2294
12769TIP3    H159722   4.870   6.055  11.856  2.2608  0.4611 -0.9338
12769TIP3    H259723   4.909   6.197  11.820 -0.4172  1.1503 -1.2836
12770TIP3   OH259724   3.982   2.049  11.721 -0.6744  0.4707  0.6431
12770TIP3    H159725   4.019   2.002  11.646 -1.3496 -0.3507  0.8012
12770TIP3    H259726   3.989   2.141  11.698 -2.6211  0.2114 -1.3268
12771TIP3   OH259727   0.200   1.145  14.132  0.4094  0.5387  0.4240
12771TIP3    H159728   0.218   1.178  14.220 -1.4666  0.9990  0.6777
12771TIP3    H259729   0.121   1.191  14.105  0.3593 -0.3730 -1.1062
12772TIP3   OH259730   4.715   4.674  15.800  0.1218  0.5075 -0.4322
12772TIP3    H159731   4.743   4.672  15.709  0.3675 -1.1975 -0.3484
12772TIP3    H259732   4.772   4.739  15.841 -0.7404  2.1453 -1.6775
12773TIP3   OH259733   2.836   6.066   3.864  0.0370  0.0982  0.3601
12773TIP3    H159734   2.873   6.151   3.889  0.6334 -0.0960  0.1661
12773TIP3    H259735   2.900   6.030   3.803  0.8834 -1.4649  2.1067
12774TIP3   OH259736   3.229   2.864  14.123  1.0916  0.6885  0.5475
12774TIP3    H159737   3.158   2.869  14.187  0.8604  4.2749  0.2620
12774TIP3    H259738   3.305   2.897  14.171  1.6949  0.2655 -0.1202
12775TIP3   OH259739   0.287   0.422   0.788 -0.1131 -0.0700  0.2520
12775TIP3    H159740   0.306   0.453   0.699 -0.1933 -0.3309  0.1422
12775TIP3    H259741   0.204   0.376   0.780 -0.2475  0.1266  0.5140
12776TIP3   OH259742   6.665   0.611   5.830 -0.1055  0.8176  0.8288
12776TIP3    H159743   6.583   0.632   5.785 -0.8360 -0.6539  1.3995
12776TIP3    H259744   6.728   0.596   5.759 -1.0705 -0.8255  0.2698
12777TIP3   OH259745   5.540   0.332  13.696 -0.1021  0.1354 -0.2888
12777TIP3    H159746   5.526   0.414  13.744  2.0180 -0.7281  1.9994
12777TIP3    H259747   5.522   0.264  13.760  0.5655 -1.1513 -1.4201
12778TIP3   OH259748   6.024   3.604   3.692  0.1824  0.2784 -0.4004
12778TIP3    H159749   5.944   3.553   3.680 -0.8076  1.2043  1.7987
12778TIP3    H259750   6.058   3.617   3.604 -0.5319 -2.5276 -1.1872
12779TIP3   OH259751   4.440   3.499   0.658 -0.1375 -0.3228  0.2856
12779TIP3    H159752   4.394   3.513   0.575  1.0433 -1.6205 -0.6439
12779TIP3    H259753   4.409   3.570   0.715 -2.0849 -0.2452 -0.7680
12780TIP3   OH259754   3.863   4.724   2.669  0.0966 -0.8643 -0.1731
12780TIP3    H159755   3.868   4.653   2.733  0.5917 -0.8710 -0.2163
12780TIP3    H259756   3.929   4.788   2.699 -1.4239  0.3370  0.7738
12781TIP3   OH259757   1.906   1.226   4.290 -0.1598  0.7749  0.0715
12781TIP3    H159758   1.992   1.265   4.282  0.2096  0.6005  2.4010
12781TIP3    H259759   1.849   1.282   4.237  1.1403  1.6645 -0.4379
12782TIP3   OH259760   1.292   1.296  14.204  0.7464 -0.3949 -0.6052
12782TIP3    H159761   1.273   1.219  14.151  2.5722 -0.8337 -0.6772
12782TIP3    H259762   1.298   1.263  14.294 -0.3044 -0.0009 -0.3759
12783TIP3   OH259763   0.985   5.631   0.521  0.5360  0.2492  0.6770
12783TIP3    H159764   0.982   5.674   0.436 -0.6683  1.5615  1.3555
12783TIP3    H259765   1.055   5.565   0.512  0.8479  0.7792 -1.1054
12784TIP3   OH259766   3.259   3.043  15.019  0.2858  0.1952  0.1188
12784TIP3    H159767   3.293   3.111  15.076  2.1655  0.5724 -1.3305
12784TIP3    H259768   3.332   2.982  15.008 -0.4787 -0.6109 -0.7500
12785TIP3   OH259769   1.761   3.464  13.925 -0.1358 -0.5049  0.1721
12785TIP3    H159770   1.812   3.522  13.869  1.4174 -0.0915  1.9070
12785TIP3    H259771   1.779   3.495  14.014 -2.6650 -0.9850  0.9343
12786TIP3   OH259772   2.580   0.657  15.428 -0.4830 -0.1041  0.7188
12786TIP3    H159773   2.517   0.679  15.497 -0.5766  0.2028  0.5402
12786TIP3    H259774   2.646   0.726  15.435  0.1969 -0.8054  1.3483
12787TIP3   OH259775   6.504   6.345  12.818 -0.6151  0.4741  0.1515
12787TIP3    H159776   6.598   6.335  12.804 -0.6450 -0.1730  0.3741
12787TIP3    H259777   6.479   6.270  12.872 -1.1362  1.0108  0.6925
12788TIP3   OH259778   3.975   2.355  16.466  0.2382 -0.7062 -0.0082
12788TIP3    H159779   3.901   2.347  16.527 -0.1017 -1.0246 -0.4536
12788TIP3    H259780   3.934   2.363  16.380  0.7226 -2.0361 -0.3921
12789TIP3   OH259781   2.595   5.317   3.706  0.0739  0.2539  0.6335
12789TIP3    H159782   2.507   5.337   3.675  0.2496  0.6756  0.3951
12789TIP3    H259783   2.599   5.355   3.794 -0.6270 -1.4670  1.4616
12790TIP3   OH259784   2.414   3.904   5.022 -0.1148 -0.1907  0.6907
12790TIP3    H159785   2.418   3.815   5.056  0.6785 -0.0115  1.0926
12790TIP3    H259786   2.493   3.913   4.969 -2.1343 -1.0474 -2.7848
12791TIP3   OH259787   5.104   4.413  14.247  0.4774  0.1955  0.4564
12791TIP3    H159788   5.075   4.330  14.286  1.0335  0.0983  0.6844
12791TIP3    H259789   5.132   4.390  14.159  1.4841 -0.0468  0.8154
12792TIP3   OH259790   6.791   5.774   5.317 -0.6464 -0.5989 -0.1819
12792TIP3    H159791   6.758   5.770   5.227 -1.9370  1.4223  0.1158
12792TIP3    H259792   6.772   5.864   5.345  0.6603 -0.8698  1.7753
12793TIP3   OH259793   5.299   3.456   1.849  0.3847  0.0442 -0.0209
12793TIP3    H159794   5.334   3.369   1.867 -2.4715 -1.8357 -2.5074
12793TIP3    H259795   5.292   3.497   1.935  0.9515 -2.5491  1.3739
12794TIP3   OH259796   3.614   1.642  14.596 -0.3817  0.0445 -0.0462
12794TIP3    H159797   3.522   1.615  14.606 -0.5176  0.1196 -0.9650
12794TIP3    H259798   3.608   1.732  14.564 -0.0003 -0.1364 -0.6321
12795TIP3   OH259799   0.028   6.514  14.238  0.3878  0.3075  0.7070
12795TIP3    H159800   0.047   6.429  14.277 -0.7818 -0.4253 -0.2760
12795TIP3    H259801  -0.007   6.494  14.151 -0.7001  1.7583  0.7789
12796TIP3   OH259802   5.764   5.779  11.879 -0.0215 -0.5273  0.2925
12796TIP3    H159803   5.695   5.722  11.911 -0.0570 -1.3826 -1.2465
12796TIP3    H259804   5.801   5.733  11.804  2.4792 -0.2705  1.2734
12797TIP3   OH259805   4.198   6.097  16.903 -0.3944  0.4093 -0.0781
12797TIP3    H159806   4.193   6.015  16.853 -1.9624  0.2904  0.2001
12797TIP3    H259807   4.279   6.090  16.953 -0.4288 -0.9245 -0.1658
12798TIP3   OH259808   4.060   4.879   0.587 -0.0932 -0.4976 -0.5112
12798TIP3    H159809   4.065   4.937   0.512  0.6927  0.3128  0.1514
12798TIP3    H259810   4.045   4.937   0.662 -0.8047 -1.2799 -0.0203
12799TIP3   OH259811   5.603   2.675  11.413 -0.2650  0.3583  1.0877
12799TIP3    H159812   5.605   2.770  11.401  0.4167  0.3075  0.7948
12799TIP3    H259813   5.694   2.647  11.403 -0.4267 -0.3005  1.3921
12800TIP3   OH259814   4.095   4.762  16.584 -0.5532  0.3418 -0.2398
12800TIP3    H159815   4.041   4.823  16.635 -1.4747  0.8051 -1.6791
12800TIP3    H259816   4.059   4.768  16.495  1.1362 -0.2510 -0.9958
12801TIP3   OH259817   3.032   3.416   3.980  0.0304 -0.3965  0.4783
12801TIP3    H159818   3.037   3.324   3.957  2.5387 -1.2606  3.7503
12801TIP3    H259819   2.946   3.426   4.022 -1.2071 -0.5877 -1.8487
12802TIP3   OH259820   1.471   6.602   0.106 -0.2057 -0.0224  0.3179
12802TIP3    H159821   1.410   6.671   0.081 -0.9819 -0.4424  0.9958
12802TIP3    H259822   1.523   6.641   0.177  0.8680  0.5942 -0.7523
12803TIP3   OH259823   3.460   2.984  14.252 -0.3258  0.4378 -0.5558
12803TIP3    H159824   3.511   2.904  14.269 -0.8439  0.1601 -0.2953
12803TIP3    H259825   3.502   3.051  14.306 -1.4443 -0.2483  1.2320
12804TIP3   OH259826   3.179   3.520  16.429  0.0241  0.5566  0.0541
12804TIP3    H159827   3.144   3.439  16.391  0.0070  0.4620  0.2696
12804TIP3    H259828   3.103   3.565  16.465  0.2640 -0.2759  1.7062
12805TIP3   OH259829   0.585   4.992   0.440  0.1392  0.6483  0.4437
12805TIP3    H159830   0.539   5.056   0.386  1.4582 -0.1290 -1.7425
12805TIP3    H259831   0.533   4.912   0.432  0.0053  0.6942  0.8472
12806TIP3   OH259832   2.673   2.349   4.234 -0.6114 -0.0501  0.3530
12806TIP3    H159833   2.708   2.260   4.243 -2.2592 -0.7290  0.3325
12806TIP3    H259834   2.643   2.353   4.143  3.6892  2.1951 -1.2864
12807TIP3   OH259835   2.427   4.335  11.537  0.0150  0.0819 -0.1037
12807TIP3    H159836   2.396   4.334  11.446  0.1343 -0.1078 -0.1431
12807TIP3    H259837   2.384   4.260  11.577  1.7113 -1.2174 -0.5986
12808TIP3   OH259838   0.421   6.645  15.711  0.6960  0.0362 -0.0590
12808TIP3    H159839   0.400   6.562  15.752 -0.1130 -0.4686 -1.4212
12808TIP3    H259840   0.358   6.653  15.639  1.8919  0.9772 -1.0512
12809TIP3   OH259841   0.524   0.332  12.268 -0.1768  0.7640  0.0219
12809TIP3    H159842   0.458   0.389  12.229 -0.9377  0.1755  0.4054
12809TIP3    H259843   0.478   0.288  12.340 -0.1280 -1.5800 -1.2824
12810TIP3   OH259844   2.391   6.794   6.219  0.1044  0.0125  0.7555
12810TIP3    H159845   2.421   6.848   6.292 -2.6330  0.4719  1.6843
12810TIP3    H259846   2.398   6.704   6.251  1.0327  0.0517  0.6884
12811TIP3   OH259847   0.197   1.841   5.891 -0.3671 -0.3938  0.2305
12811TIP3    H159848   0.194   1.842   5.986 -0.8528 -0.0972  0.2108
12811TIP3    H259849   0.112   1.874   5.863  0.0113  0.1410 -0.3039
12812TIP3   OH259850   5.603   4.903  15.002  0.1641  0.2087 -0.6699
12812TIP3    H159851   5.585   4.995  15.020 -0.5561  0.0088 -0.3114
12812TIP3    H259852   5.666   4.877  15.069 -0.1554  0.2631 -0.3490
12813TIP3   OH259853   4.801   3.977  15.450  0.2685  0.4834 -0.2051
12813TIP3    H159854   4.758   4.021  15.377 -0.1547  0.5100  0.0532
12813TIP3    H259855   4.870   3.924  15.410  0.4945  1.0404 -0.5546
12814TIP3   OH259856   3.546   0.448   0.081  0.4469  0.3130  0.0977
12814TIP3    H159857   3.476   0.383   0.083  0.7951 -0.0968 -0.5747
12814TIP3    H259858   3.512   0.520   0.028  0.8586 -0.2880 -1.0109
12815TIP3   OH259859   2.281   2.988   2.348 -0.3547  0.1296 -0.9342
12815TIP3    H159860   2.248   2.910   2.304 -2.2383  0.0547  0.4746
12815TIP3    H259861   2.225   2.998   2.425  2.0046  0.9309  0.8017
12816TIP3   OH259862   0.102   6.060   2.616  0.3457 -0.4735 -0.4263
12816TIP3    H159863   0.093   6.009   2.535 -1.0207 -0.0724 -0.5606
12816TIP3    H259864   0.012   6.077   2.643  0.7825  0.5521  0.4558
12817TIP3   OH259865   2.134   0.690   1.443  0.7866 -0.7772 -0.5407
12817TIP3    H159866   2.093   0.700   1.529 -0.8822 -1.7554 -1.1880
12817TIP3    H259867   2.141   0.596   1.430 -1.2611 -0.7488 -2.4635
12818TIP3   OH259868   6.231   5.490  11.872 -0.5817 -0.5682  0.1461
12818TIP3    H159869   6.232   5.581  11.901 -1.9262 -0.0959 -1.1739
12818TIP3    H259870   6.227   5.494  11.776  0.9323 -2.0410 -0.0282
12819TIP3   OH259871   4.645   0.194   2.909 -0.3014  0.1553  0.2028
12819TIP3    H159872   4.566   0.169   2.860  0.3442 -1.3500 -0.1051
12819TIP3    H259873   4.611   0.231   2.991 -1.3419 -0.7551  0.2093
12820TIP3   OH259874   5.792   5.212  12.399 -0.1820 -0.5629  0.6681
12820TIP3    H159875   5.850   5.278  12.438 -0.3916  0.1103 -0.1189
12820TIP3    H259876   5.707   5.256  12.393  0.0004 -0.3719 -1.1592
12821TIP3   OH259877   2.961   5.983   2.916  0.1823 -0.1333 -0.2248
12821TIP3    H159878   2.899   5.968   2.987  0.0776  3.3806  0.5871
12821TIP3    H259879   2.907   6.006   2.841  0.3933 -1.8525 -0.9592
12822TIP3   OH259880   4.432   0.977  12.948 -0.7211 -0.2440 -0.2125
12822TIP3    H159881   4.462   0.996  13.037 -0.6266 -1.3668  0.0049
12822TIP3    H259882   4.364   1.043  12.932 -2.2196 -1.2568  1.4889
12823TIP3   OH259883   1.294   5.801   4.718 -0.0197 -0.1829 -0.6481
12823TIP3    H159884   1.225   5.809   4.784  0.9845 -1.9998  0.7228
12823TIP3    H259885   1.247   5.796   4.635 -1.4161  0.5973  0.0611
12824TIP3   OH259886   6.035   5.350  11.423  0.4206  0.2526  0.1952
12824TIP3    H159887   5.954   5.324  11.378  0.4073  1.1338 -0.3146
12824TIP3    H259888   6.042   5.444  11.408  2.0968  0.0345 -0.7033
12825TIP3   OH259889   5.473   6.558   0.817  0.2762  0.5800  0.1044
12825TIP3    H159890   5.505   6.626   0.757  2.6539 -0.1075  0.4804
12825TIP3    H259891   5.378   6.558   0.805  0.5383  1.2991 -2.7552
12826TIP3   OH259892   2.663   1.965  14.040  0.3735  0.1648  0.5228
12826TIP3    H159893   2.678   2.060  14.049 -0.0924  0.3057 -0.1075
12826TIP3    H259894   2.576   1.959  14.000  0.3873 -0.5367  0.5935
12827TIP3   OH259895   6.493   0.994  14.959 -0.1151 -0.4110  0.1632
12827TIP3    H159896   6.547   1.060  14.916  0.3277 -1.9907 -1.8621
12827TIP3    H259897   6.424   1.045  15.004  1.4560  1.4864  0.5620
12828TIP3   OH259898   4.834   6.318  15.559  0.3812 -0.3667 -0.1883
12828TIP3    H159899   4.889   6.352  15.489  0.9319 -1.7302 -0.4547
12828TIP3    H259900   4.756   6.285  15.515  1.0776 -1.9578 -0.2930
12829TIP3   OH259901   2.519   2.819  13.060 -0.0561  0.3539 -0.0700
12829TIP3    H159902   2.515   2.906  13.021  2.1897  0.1105 -1.0151
12829TIP3    H259903   2.590   2.825  13.124 -0.6301 -0.4932  0.6769
12830TIP3   OH259904   6.549   4.636   2.916 -0.0146  0.2446 -0.4341
12830TIP3    H159905   6.559   4.721   2.960 -1.6048  0.2350  0.0256
12830TIP3    H259906   6.634   4.620   2.876  0.9700  1.0971  1.1690
12831TIP3   OH259907   0.768   0.444   2.902 -0.2051  0.0531 -0.0036
12831TIP3    H159908   0.805   0.356   2.896  3.6376  1.2622  2.4175
12831TIP3    H259909   0.701   0.437   2.969  1.1646 -0.8016  1.3352
12832TIP3   OH259910   6.026   1.881   0.314  0.0942 -0.4234  0.0640
12832TIP3    H159911   6.117   1.908   0.327  0.3989 -1.5113  0.3304
12832TIP3    H259912   6.015   1.805   0.371 -0.6301 -1.0239 -0.8426
12833TIP3   OH259913   3.969   2.788   6.390 -0.4395 -0.3700  0.3249
12833TIP3    H159914   4.012   2.836   6.461  1.2241 -2.0164  0.4909
12833TIP3    H259915   3.925   2.715   6.433  3.0981 -3.1811 -0.4486
12834TIP3   OH259916   5.560   5.791   1.000 -0.5520  0.3220  0.2715
12834TIP3    H159917   5.610   5.829   1.071  0.3782 -2.8066  1.4808
12834TIP3    H259918   5.564   5.855   0.929  1.8844  1.8425  1.6699
12835TIP3   OH259919   5.199   1.078  12.086 -0.3764 -0.1426 -0.1393
12835TIP3    H159920   5.216   1.003  12.028 -0.5562  0.9391 -1.6554
12835TIP3    H259921   5.283   1.124  12.090 -0.3958 -0.1457  0.4007
12836TIP3   OH259922   6.540   2.041   3.190 -0.1196  0.3263  0.5659
12836TIP3    H159923   6.560   2.113   3.250  0.4369 -1.2681  2.3836
12836TIP3    H259924   6.449   2.018   3.210  0.4578 -1.0336  1.7575
12837TIP3   OH259925   6.495   0.143   5.039 -0.3113  0.1555  0.4494
12837TIP3    H159926   6.528   0.074   4.982 -1.6587 -1.3804  1.4102
12837TIP3    H259927   6.545   0.133   5.120 -2.2861 -1.5575  1.5658
12838TIP3   OH259928   5.092   3.238   0.789  0.4246 -0.2865  0.1221
12838TIP3    H159929   5.180   3.264   0.760  0.2756  0.6062  0.4333
12838TIP3    H259930   5.081   3.150   0.754  0.1029  0.8415 -2.9612
12839TIP3   OH259931   5.808   4.224  14.655 -0.4755  0.3455 -0.4523
12839TIP3    H159932   5.753   4.168  14.600  0.2107  0.5613 -1.3704
12839TIP3    H259933   5.764   4.310  14.653 -0.7404  0.2171 -0.2219
12840TIP3   OH259934   5.351   3.471   0.009 -0.4841  0.1793 -0.1950
12840TIP3    H159935   5.318   3.534   0.073 -1.0779  0.3610 -0.6691
12840TIP3    H259936   5.389   3.401   0.062 -1.3605  0.1140  0.3709
12841TIP3   OH259937   0.280   4.996   6.425  0.2079 -0.0326  0.0399
12841TIP3    H159938   0.360   5.018   6.377  1.6006  0.4414  2.4524
12841TIP3    H259939   0.260   4.906   6.399  0.7321  0.2914 -1.5976
12842TIP3   OH259940   4.026   0.858  15.271  0.6310 -0.5226  0.1490
12842TIP3    H159941   4.001   0.823  15.356  0.1605 -0.5662  0.0007
12842TIP3    H259942   4.017   0.952  15.279 -0.0830 -0.5672 -0.0499
12843TIP3   OH259943   5.113   4.276  10.960  0.2873  0.0663  0.2881
12843TIP3    H159944   5.037   4.309  10.913  0.7746  2.1246  0.8388
12843TIP3    H259945   5.177   4.257  10.892  0.0838  0.5562 -0.0470
12844TIP3   OH259946   1.437   5.359  13.079  0.3066  0.4171 -0.5029
12844TIP3    H159947   1.477   5.322  13.158  0.0186  0.3010 -0.4099
12844TIP3    H259948   1.502   5.421  13.046  0.5461  0.2597 -0.3312
12845TIP3   OH259949   5.738   5.218  10.898  0.0321 -0.1605  0.3440
12845TIP3    H159950   5.646   5.196  10.912 -0.3740  1.7267  0.9798
12845TIP3    H259951   5.740   5.314  10.902  1.3708  0.1636 -3.7020
12846TIP3   OH259952   5.687   3.417  13.506  0.4087 -0.3111  0.0391
12846TIP3    H159953   5.772   3.395  13.468  1.2436  2.2376  0.2805
12846TIP3    H259954   5.665   3.502  13.467 -1.3519 -0.2458  1.0808
12847TIP3   OH259955   2.378   5.993   4.961  0.0087 -0.6424  0.1253
12847TIP3    H159956   2.471   5.972   4.966  0.8827  2.0169 -2.2830
12847TIP3    H259957   2.364   6.058   5.030 -1.0006 -3.4323  2.7566
12848TIP3   OH259958   2.992   4.693   4.655  0.3474  0.2922 -0.1316
12848TIP3    H159959   2.911   4.711   4.705  0.3953 -1.0237  0.4542
12848TIP3    H259960   2.982   4.603   4.626  0.6258  0.8324 -2.0001
12849TIP3   OH259961   2.809   1.816  14.648 -0.0143  0.3777 -0.3372
12849TIP3    H159962   2.874   1.802  14.579 -0.7999 -2.0082 -0.6675
12849TIP3    H259963   2.861   1.834  14.727  1.0188 -0.4821 -0.8091
12850TIP3   OH259964   0.403   3.630  15.846 -0.3566 -0.0269  0.1877
12850TIP3    H159965   0.318   3.586  15.854  0.2008 -0.9631  1.2380
12850TIP3    H259966   0.412   3.679  15.927  0.0532  0.1758  0.0223
12851TIP3   OH259967   1.791   1.981  14.208  0.3631  0.5579  0.2058
12851TIP3    H159968   1.845   2.046  14.252  0.7687  0.0439  0.4792
12851TIP3    H259969   1.705   1.990  14.250  0.9802 -0.5824  1.8443
12852TIP3   OH259970   3.879   1.754  12.692 -0.5963  0.0352 -0.4081
12852TIP3    H159971   3.846   1.843  12.707  1.1467  0.9622 -1.7058
12852TIP3    H259972   3.873   1.741  12.598 -0.8025 -1.2441 -0.2383
12853TIP3   OH259973   0.156   2.409  15.145  0.0717 -0.8152  0.2044
12853TIP3    H159974   0.114   2.334  15.187 -0.9032 -0.1750  0.3970
12853TIP3    H259975   0.244   2.411  15.183 -1.2237  0.6583  3.5503
12854TIP3   OH259976   5.424   4.834   4.575 -0.2237 -0.0323 -0.0095
12854TIP3    H159977   5.457   4.799   4.492  1.0498 -0.2362  0.5582
12854TIP3    H259978   5.356   4.772   4.602 -0.5355 -0.0539 -0.8037
12855TIP3   OH259979   0.191   6.328   0.196  0.5669  0.3566  0.2486
12855TIP3    H159980   0.269   6.382   0.211  1.3596 -0.1394 -1.7147
12855TIP3    H259981   0.225   6.238   0.195  0.8421  0.2717 -4.4226
12856TIP3   OH259982   0.752   1.199   3.722  0.0367 -0.6347  0.6007
12856TIP3    H159983   0.745   1.232   3.811 -0.4156 -0.4503  0.4996
12856TIP3    H259984   0.682   1.244   3.674 -1.0078 -2.1803  0.5957
12857TIP3   OH259985   2.770   5.830   4.026  0.2179  0.8169  0.2984
12857TIP3    H159986   2.846   5.821   4.083  0.5989 -0.4419 -0.3693
12857TIP3    H259987   2.783   5.913   3.981  1.9495  0.0029 -0.8351
12858TIP3   OH259988   4.397   6.177  15.267  0.1431  0.0492 -0.0807
12858TIP3    H159989   4.376   6.089  15.234 -1.6086 -0.1814  1.4455
12858TIP3    H259990   4.368   6.236  15.198 -1.0488 -0.5067 -0.0821
12859TIP3   OH259991   2.519   4.482   4.946  0.2022  0.0121  0.0828
12859TIP3    H159992   2.477   4.568   4.951  2.0697  0.9366  0.7466
12859TIP3    H259993   2.471   4.428   5.009 -1.9505  0.0559 -1.3714
12860TIP3   OH259994   4.365   4.741  16.604 -0.4707  0.2220 -0.1815
12860TIP3    H159995   4.273   4.728  16.627  0.2489 -0.7346  2.4245
12860TIP3    H259996   4.374   4.836  16.596 -1.6680  0.3262 -0.5661
12861TIP3   OH259997   4.861   5.667  14.626  0.2375 -0.5312 -0.3904
12861TIP3    H159998   4.820   5.723  14.560  1.2284  1.7403  0.8017
12861TIP3    H259999   4.788   5.623  14.668 -0.6956  0.5813 -0.7738
12862TIP3   OH260000   4.423   3.147  13.704  0.3659  0.0154 -0.3065
12862TIP3    H160001   4.334   3.118  13.683  0.9343 -2.5973  0.5368
12862TIP3    H260002   4.466   3.069  13.738  1.8562  2.0429  2.9876
12863TIP3   OH260003   6.323   5.699  15.418  0.4269  0.4817 -0.0365
12863TIP3    H160004   6.342   5.656  15.502 -1.3580 -1.1916 -0.4120
12863TIP3    H260005   6.372   5.649  15.353 -1.9198 -1.3535 -0.5174
12864TIP3   OH260006   3.139   5.776  13.205  0.2678  0.1549  0.1680
12864TIP3    H160007   3.162   5.868  13.190  0.1302  0.3863  1.2724
12864TIP3    H260008   3.221   5.734  13.228  0.0580  0.4203  1.5071
12865TIP3   OH260009   3.680   4.741   0.441  0.3848  1.1965 -0.5309
12865TIP3    H160010   3.757   4.706   0.487 -0.4891 -2.7321 -1.6225
12865TIP3    H260011   3.623   4.772   0.511  2.3022  2.8387  0.3889
12866TIP3   OH260012   6.154   2.643  13.009 -0.0577  0.3722  0.4051
12866TIP3    H160013   6.181   2.714  12.951  2.0404 -0.2137  0.5894
12866TIP3    H260014   6.232   2.623  13.061 -1.3944 -0.2468  2.2846
12867TIP3   OH260015   0.460   3.059  15.658 -0.3656  0.2711  0.7680
12867TIP3    H160016   0.540   3.036  15.705 -0.1828 -1.0488 -0.1443
12867TIP3    H260017   0.469   3.153  15.641  1.2133  0.0564  0.2879
12868TIP3   OH260018   2.710   4.547  10.986  0.1297  0.0624  0.4680
12868TIP3    H160019   2.721   4.584  10.898 -3.5321  0.5455  0.0402
12868TIP3    H260020   2.758   4.464  10.983  1.1335  0.6334 -1.5453
12869TIP3   OH260021   3.758   2.807  14.003  0.7831 -0.4798 -0.2516
12869TIP3    H160022   3.763   2.883  14.060  1.8147 -0.5170 -0.2704
12869TIP3    H260023   3.675   2.818  13.956  0.6886  0.3746  0.0888
12870TIP3   OH260024   4.932   0.609   2.083  0.2812  0.0043 -0.1127
12870TIP3    H160025   4.906   0.592   1.992  0.4241 -1.1636  0.0436
12870TIP3    H260026   5.015   0.562   2.093  0.0096 -0.3057  0.7570
12871TIP3   OH260027   5.244   5.301   5.191 -0.5615 -0.2252  0.4011
12871TIP3    H160028   5.195   5.382   5.208 -1.6610 -1.1532  1.8905
12871TIP3    H260029   5.177   5.236   5.170  0.1855 -1.0877  0.6162
12872TIP3   OH260030   5.309   5.818   4.913  0.0938 -0.0410 -0.2758
12872TIP3    H160031   5.326   5.763   4.836  0.5502 -0.7467  0.3087
12872TIP3    H260032   5.236   5.874   4.888 -1.5990 -2.1440 -0.2961
12873TIP3   OH260033   3.357   3.445  14.153  0.3689 -0.5438  0.1084
12873TIP3    H160034   3.368   3.512  14.085 -2.9800  1.1042  0.9382
12873TIP3    H260035   3.330   3.367  14.106 -0.2674  0.0938 -0.6168
12874TIP3   OH260036   1.998   5.173  13.295 -0.0337  0.6598  0.1832
12874TIP3    H160037   1.995   5.260  13.334  1.4232 -0.0279  1.9663
12874TIP3    H260038   2.086   5.141  13.313  0.3777 -0.1976 -2.7874
12875TIP3   OH260039   4.723   6.361  12.562  0.2561 -0.5400 -0.1165
12875TIP3    H160040   4.682   6.401  12.639  1.0217  0.3857 -0.1728
12875TIP3    H260041   4.805   6.324  12.595  1.4253  1.3622 -0.7703
12876TIP3   OH260042   1.066   0.289   3.068  0.5171 -0.6034  0.2594
12876TIP3    H160043   1.093   0.373   3.105  1.6544 -1.8357  2.4717
12876TIP3    H260044   1.105   0.287   2.981 -1.0190  1.8316 -0.5899
12877TIP3   OH260045   5.373   5.246   2.405  0.2061 -0.1346 -0.1069
12877TIP3    H160046   5.423   5.165   2.396  0.9464  0.1774  0.9826
12877TIP3    H260047   5.314   5.230   2.479  0.2136  0.2457 -0.0165
12878TIP3   OH260048   1.270   5.831   5.354 -0.2433  0.2168  0.9021
12878TIP3    H160049   1.364   5.817   5.361 -0.1938  0.4328  0.6738
12878TIP3    H260050   1.231   5.745   5.369  0.1019 -0.5516 -2.0010
12879TIP3   OH260051   3.286   1.672  16.030  0.4115  0.4642 -0.3256
12879TIP3    H160052   3.200   1.629  16.034  0.0316  1.2384 -0.0763
12879TIP3    H260053   3.270   1.755  15.986  1.1953  0.2500 -1.0387
12880TIP3   OH260054   6.132   3.268   1.042 -0.5412 -0.2040  0.5853
12880TIP3    H160055   6.069   3.292   1.110  0.0889 -0.9376  1.4533
12880TIP3    H260056   6.086   3.285   0.960 -1.7626 -0.4353  1.1904
12881TIP3   OH260057   5.731   1.827   3.205  0.5336 -0.2475 -0.0533
12881TIP3    H160058   5.654   1.805   3.257  0.6176 -0.6510 -0.1011
12881TIP3    H260059   5.804   1.822   3.266  0.9630 -3.0396 -0.6912
12882TIP3   OH260060   3.123   3.384  12.714 -0.3168  0.3551 -0.0900
12882TIP3    H160061   3.117   3.467  12.666  0.3508 -0.7877 -2.2893
12882TIP3    H260062   3.047   3.385  12.772 -0.5800  2.2906 -0.3983
12883TIP3   OH260063   1.991   5.648  12.197 -0.4928 -0.2387 -0.3189
12883TIP3    H160064   1.912   5.597  12.178  0.4204 -1.8939  0.0847
12883TIP3    H260065   1.970   5.695  12.278 -1.6050  0.6398 -1.0739
12884TIP3   OH260066   4.337   4.397  12.135  0.2735  0.2709  0.1953
12884TIP3    H160067   4.420   4.365  12.169  0.9704  2.2978  0.5496
12884TIP3    H260068   4.346   4.492  12.136 -2.3603  0.5908  1.0094
12885TIP3   OH260069   1.927   0.981   2.974  0.5460 -0.0149 -0.3033
12885TIP3    H160070   1.849   0.950   3.020 -0.4716  3.2518  0.4492
12885TIP3    H260071   1.895   1.005   2.886  1.4529 -1.6478 -1.1245
12886TIP3   OH260072   0.166   5.827   2.444  0.2578 -0.0332  0.2332
12886TIP3    H160073   0.187   5.897   2.381 -1.9027 -0.0135 -0.5661
12886TIP3    H260074   0.248   5.810   2.489  1.4752  1.2020 -1.3774
12887TIP3   OH260075   6.242   1.734   3.445  0.1106 -0.3577 -0.1719
12887TIP3    H160076   6.260   1.641   3.433  1.6363 -0.0669 -0.3006
12887TIP3    H260077   6.317   1.768   3.492 -1.0149  0.5864  1.0343
12888TIP3   OH260078   3.876   4.822   3.542  0.7747  0.0643  0.3812
12888TIP3    H160079   3.867   4.870   3.624  0.4995 -0.8153  0.8658
12888TIP3    H260080   3.890   4.891   3.476  0.7197  0.7882  1.1123
12889TIP3   OH260081   2.482   1.910  13.575  0.4112  0.4960  0.2108
12889TIP3    H160082   2.427   1.875  13.644  1.2296 -0.0403  0.6031
12889TIP3    H260083   2.426   1.911  13.497  0.1321 -0.9390  0.3717
12890TIP3   OH260084   1.505   1.903  16.610 -0.2572  0.2389  0.5671
12890TIP3    H160085   1.559   1.974  16.576  0.9476 -0.3651  1.1572
12890TIP3    H260086   1.517   1.907  16.705  0.8160 -1.4861  0.5490
12891TIP3   OH260087   3.824   3.757   5.186 -0.0478  0.2270  0.3658
12891TIP3    H160088   3.861   3.827   5.132  0.9668 -2.0347 -2.1308
12891TIP3    H260089   3.900   3.709   5.219 -0.7092 -0.7117  0.5628
12892TIP3   OH260090   0.395   4.733   2.987 -0.4556 -0.1378 -0.1216
12892TIP3    H160091   0.437   4.649   2.967  1.0327  0.5443  0.0456
12892TIP3    H260092   0.404   4.742   3.082 -0.9200  0.0526 -0.0946
12893TIP3   OH260093   5.069   3.075   3.424 -0.3192 -0.5457 -0.3169
12893TIP3    H160094   5.028   3.105   3.343  0.4177 -0.7454 -0.7735
12893TIP3    H260095   5.142   3.136   3.437 -0.1282 -0.8276 -0.0831
12894TIP3   OH260096   0.605   5.361  16.126  0.1956 -0.4959  0.3358
12894TIP3    H160097   0.581   5.328  16.040  0.3160 -1.4444  0.6605
12894TIP3    H260098   0.692   5.399  16.114  0.0787 -0.3377 -0.0239
12895TIP3   OH260099   0.816   0.999   4.086 -0.2997  0.3040  0.3306
12895TIP3    H160100   0.892   1.045   4.053  0.9090 -1.5209  0.4349
12895TIP3    H260101   0.769   0.970   4.007 -0.5719  0.9325  0.2617
12896TIP3   OH260102   6.773   0.074  14.344 -0.3270  0.1274  0.0308
12896TIP3    H160103   6.823   0.065  14.425 -0.2241 -1.0183 -0.1463
12896TIP3    H260104   6.682   0.077  14.372 -0.3415 -1.0871  0.1509
12897TIP3   OH260105   5.338   1.070   4.636 -0.0084 -0.4634 -0.0472
12897TIP3    H160106   5.385   0.994   4.602  0.8252 -0.7212  1.6109
12897TIP3    H260107   5.399   1.143   4.628 -0.9491  0.1882 -2.0236
12898TIP3   OH260108   4.737   1.650  11.847  0.1747  0.7360  0.5191
12898TIP3    H160109   4.733   1.574  11.788 -0.3325  1.0313  0.1700
12898TIP3    H260110   4.812   1.700  11.817  0.9325  0.0408  1.1720
12899TIP3   OH260111   2.988   1.805  16.303  0.2406 -0.7725 -0.2702
12899TIP3    H160112   3.004   1.848  16.387  1.2407  1.6443 -1.5838
12899TIP3    H260113   3.054   1.736  16.298  0.4014 -0.7033  0.7606
12900TIP3   OH260114   0.719   0.053  15.746  0.3075  0.2109 -0.0063
12900TIP3    H160115   0.643   0.057  15.803 -1.2288 -2.2093 -1.7055
12900TIP3    H260116   0.758   0.141  15.751 -2.3501  1.4115  1.2148
12901TIP3   OH260117   5.786   2.217  15.562  0.0879  0.3103 -1.0186
12901TIP3    H160118   5.700   2.195  15.598 -0.0275  2.7607  0.4251
12901TIP3    H260119   5.812   2.139  15.512 -2.6232 -0.7680 -0.9071
12902TIP3   OH260120   4.403   1.440   3.606  0.4080  0.0892  0.2367
12902TIP3    H160121   4.374   1.530   3.590 -1.2409 -0.4781 -0.0772
12902TIP3    H260122   4.440   1.443   3.694 -2.1819  0.5471  1.4133
12903TIP3   OH260123   5.366   6.396  16.458 -0.2474  0.1402  0.3312
12903TIP3    H160124   5.407   6.311  16.444  0.2547 -0.0661  2.5644
12903TIP3    H260125   5.402   6.452  16.390  1.6820 -0.7369  0.5581
12904TIP3   OH260126   0.640   2.175  16.577 -0.0835  0.0498 -0.0177
12904TIP3    H160127   0.636   2.080  16.570 -1.7576  0.0904 -0.1801
12904TIP3    H260128   0.553   2.200  16.609  0.1648  1.5467 -0.4310
12905TIP3   OH260129   1.618   0.180  15.926  0.0418  0.2356  0.6524
12905TIP3    H160130   1.683   0.111  15.935  2.0747  2.0567  0.8560
12905TIP3    H260131   1.617   0.201  15.833 -1.6200 -0.9365  0.3524
12906TIP3   OH260132   4.330   1.570  14.491 -0.5261 -0.7219  0.7483
12906TIP3    H160133   4.263   1.603  14.551 -1.0867 -2.2246  0.9936
12906TIP3    H260134   4.294   1.487  14.459 -0.1188 -0.1084 -1.4748
12907TIP3   OH260135   2.942   3.139  15.467  0.3711  0.2436  0.2345
12907TIP3    H160136   2.892   3.190  15.403 -0.6343 -0.3813  0.4969
12907TIP3    H260137   2.907   3.051  15.460  0.1836  0.1805  1.7056
12908TIP3   OH260138   6.172   0.011  13.370 -0.0688 -0.4493  0.3097
12908TIP3    H160139   6.211  -0.022  13.290  0.4505  0.4381  0.1822
12908TIP3    H260140   6.145  -0.067  13.418 -1.4554 -0.9736 -1.2368
12909TIP3   OH260141   4.068   5.645  16.131 -0.2318  0.0260 -0.4124
12909TIP3    H160142   4.043   5.716  16.072 -0.4394  3.2141  3.1777
12909TIP3    H260143   4.157   5.665  16.158 -0.5125 -0.6658  1.1878
12910TIP3   OH260144   5.245   0.375   3.891  0.4531  0.0652  0.1948
12910TIP3    H160145   5.305   0.302   3.881 -0.9086 -1.0077 -0.3597
12910TIP3    H260146   5.227   0.405   3.802 -0.4914 -0.1888  0.2858
12911TIP3   OH260147   2.066   5.760  10.433  0.2986 -0.2818  0.6761
12911TIP3    H160148   2.082   5.778  10.340 -1.5515 -1.0166  0.1849
12911TIP3    H260149   2.147   5.789  10.477  0.9987  0.5695 -1.0804
12912TIP3   OH260150   0.632   4.762  15.718 -0.5137  0.0491  0.3901
12912TIP3    H160151   0.559   4.810  15.679 -0.3878  0.1475  0.2750
12912TIP3    H260152   0.648   4.690  15.657 -0.7110 -0.1484  0.5695
12913TIP3   OH260153   3.639   3.287   3.825  0.3143  0.1626  0.1771
12913TIP3    H160154   3.630   3.211   3.883  0.0548  0.3390  0.3679
12913TIP3    H260155   3.561   3.339   3.841  0.4055  0.3832 -0.0870
12914TIP3   OH260156   2.653   6.685   6.465  0.5026  0.2825 -0.7313
12914TIP3    H160157   2.694   6.635   6.535  0.2261  1.0215 -0.0177
12914TIP3    H260158   2.583   6.629   6.432 -0.8129  0.7689  1.0978
12915TIP3   OH260159   0.678   3.298   1.871 -0.1033 -0.3283  0.0077
12915TIP3    H160160   0.765   3.260   1.855  0.6696  1.3355  0.1171
12915TIP3    H260161   0.639   3.241   1.938  0.9091 -1.0613 -0.0069
12916TIP3   OH260162   2.734   0.017  15.860 -0.0239 -0.1462 -0.0666
12916TIP3    H160163   2.656   0.049  15.816  0.7411  0.5608 -0.9677
12916TIP3    H260164   2.782  -0.031  15.792  0.8537  0.3948  0.1504
12917TIP3   OH260165   4.020   3.068  14.489  0.1153  0.6275 -0.2781
12917TIP3    H160166   4.029   2.994  14.549 -1.2068 -0.6916 -1.6179
12917TIP3    H260167   4.059   3.142  14.536  2.3877 -1.0881  0.7155
12918TIP3   OH260168   0.326   2.994   3.621 -0.4817  0.3383  0.1825
12918TIP3    H160169   0.274   2.918   3.594  0.6496 -0.5242  0.3003
12918TIP3    H260170   0.272   3.039   3.685 -1.8012  0.4950 -0.9978
12919TIP3   OH260171   4.442   4.671   2.754  0.1213  0.3225  0.6897
12919TIP3    H160172   4.478   4.612   2.688 -0.8145 -0.7825  1.1230
12919TIP3    H260173   4.497   4.748   2.750  0.0331  0.3388 -1.4675
12920TIP3   OH260174   5.790   1.961   0.240 -0.1443 -0.4704 -0.2756
12920TIP3    H160175   5.870   1.914   0.265 -0.2583 -0.0742  0.8725
12920TIP3    H260176   5.816   2.053   0.239 -0.1346 -0.4619 -1.7158
12921TIP3   OH260177   2.806   3.972   2.344 -0.4386 -0.2886 -0.0605
12921TIP3    H160178   2.899   3.985   2.362 -0.7637  1.6209  0.5506
12921TIP3    H260179   2.769   3.941   2.426 -0.3401 -1.0722 -0.3107
12922TIP3   OH260180   2.504   3.118   1.952 -0.5907  0.7490 -0.1393
12922TIP3    H160181   2.525   3.133   1.860 -0.5911  3.4223  0.2204
12922TIP3    H260182   2.480   3.205   1.986  2.6019  0.5818  3.2108
12923TIP3   OH260183   3.544   1.432   3.692 -0.2189 -0.3083  0.3693
12923TIP3    H160184   3.462   1.411   3.647  0.0991 -0.2403 -0.2565
12923TIP3    H260185   3.609   1.374   3.652  0.2464  0.3886  0.0961
12924TIP3   OH260186   3.576   2.875   6.210 -0.1231  0.2584 -0.5994
12924TIP3    H160187   3.514   2.892   6.139 -0.1711 -1.4982 -1.0336
12924TIP3    H260188   3.564   2.782   6.230  2.8524 -0.3619 -1.2016
12925TIP3   OH260189   5.658   5.469  14.790 -0.9877  0.5828  0.3370
12925TIP3    H160190   5.643   5.533  14.860 -0.6182  0.3857  0.5982
12925TIP3    H260191   5.570   5.444  14.762 -1.1415  1.4161  0.0342
12926TIP3   OH260192   4.722   3.035   3.201  0.4004  0.4681  0.0586
12926TIP3    H160193   4.658   3.065   3.266  1.6721  1.2456  0.9845
12926TIP3    H260194   4.702   3.087   3.123 -0.2910  0.4752  0.2336
12927TIP3   OH260195   3.451   6.456   1.936 -0.2553  0.1556 -0.7732
12927TIP3    H160196   3.359   6.468   1.911 -0.6806 -0.9343  0.1344
12927TIP3    H260197   3.460   6.506   2.017 -0.1176  0.0812 -0.7431
12928TIP3   OH260198   2.737   1.161   4.450  0.1885  0.3482 -0.1449
12928TIP3    H160199   2.787   1.081   4.466  0.4134  0.6529  0.7529
12928TIP3    H260200   2.650   1.142   4.485  0.4889  0.7829  0.8777
12929TIP3   OH260201   1.115   5.984  13.132  0.1140  0.6090 -0.2194
12929TIP3    H160202   1.205   6.012  13.119  0.4906 -0.7119 -0.6859
12929TIP3    H260203   1.122   5.903  13.182 -0.7325 -0.0874 -1.1886
12930TIP3   OH260204   2.470   4.576   3.655  0.1314 -0.0153 -0.7250
12930TIP3    H160205   2.548   4.605   3.703 -0.3467  1.1850 -0.6195
12930TIP3    H260206   2.405   4.644   3.672 -0.1971  0.2434 -2.7090
12931TIP3   OH260207   5.940   5.518  13.462  0.5891  0.2651  0.3854
12931TIP3    H160208   5.965   5.599  13.506 -0.9566  1.4442 -0.7706
12931TIP3    H260209   5.883   5.546  13.390  1.1902 -1.7457 -0.9838
12932TIP3   OH260210   2.946   2.790  14.777  0.0453  0.0500  0.1330
12932TIP3    H160211   2.903   2.830  14.852  0.6161  1.0981 -0.0794
12932TIP3    H260212   3.039   2.797  14.796  0.1747 -1.8824  0.4285
12933TIP3   OH260213   2.525   0.918  16.635 -0.0558  0.7428 -0.2681
12933TIP3    H160214   2.467   0.994  16.631 -0.2747  0.6275  0.5096
12933TIP3    H260215   2.567   0.915  16.549  2.9060  4.0764  0.8432
12934TIP3   OH260216   6.098   3.317  14.585  0.7300 -0.2299  0.0608
12934TIP3    H160217   6.024   3.375  14.601  0.4760 -0.0095 -1.6612
12934TIP3    H260218   6.131   3.295  14.672 -1.5076 -0.5699  0.8854
12935TIP3   OH260219   2.165   4.990   4.412 -0.3812 -0.5911 -0.3477
12935TIP3    H160220   2.215   5.001   4.493  0.3473  2.2884 -1.0652
12935TIP3    H260221   2.109   5.067   4.408  1.4712  0.7888 -3.7692
12936TIP3   OH260222   0.052   3.961   1.547  0.0340 -0.0014  0.2667
12936TIP3    H160223   0.126   4.012   1.581  0.1449 -0.5312  0.8442
12936TIP3    H260224   0.018   3.914   1.623  0.1546 -1.0557 -0.3073
12937TIP3   OH260225   1.739   6.706  17.117 -0.4024 -1.2888  0.4922
12937TIP3    H160226   1.796   6.647  17.166 -0.8957 -1.2652  1.1016
12937TIP3    H260227   1.773   6.794  17.136  0.5941 -1.3770 -0.7491
12938TIP3   OH260228   1.392   5.071  12.213  0.1799  0.2935 -0.6360
12938TIP3    H160229   1.362   5.044  12.126  0.6644  0.2289 -0.7891
12938TIP3    H260230   1.483   5.097  12.199  0.9130 -1.6611  0.2264
12939TIP3   OH260231   4.635   6.692  11.357 -0.3675  0.6566 -0.2563
12939TIP3    H160232   4.721   6.730  11.375  0.5421 -1.0114 -0.8809
12939TIP3    H260233   4.638   6.669  11.264 -1.2243 -0.0465 -0.1214
12940TIP3   OH260234   6.356   5.029   2.908  0.6514 -0.4496  0.1523
12940TIP3    H160235   6.352   5.113   2.955 -1.0136 -0.6352  0.4161
12940TIP3    H260236   6.272   5.024   2.862  1.5957 -1.0120 -1.6030
12941TIP3   OH260237   3.144   3.087   1.055 -0.6280  0.1187 -0.4745
12941TIP3    H160238   3.169   3.042   1.135  3.0769  2.8241  0.1631
12941TIP3    H260239   3.199   3.048   0.987  1.1014  2.0644 -0.2965
12942TIP3   OH260240   6.531   3.346   1.695  0.0283 -0.4564 -0.1107
12942TIP3    H160241   6.470   3.336   1.768  1.2599  2.2383  1.4707
12942TIP3    H260242   6.615   3.313   1.728  0.1639 -1.0998 -1.0603
12943TIP3   OH260243   1.260   3.405   3.120  0.6890  0.7495  0.0605
12943TIP3    H160244   1.333   3.462   3.146  0.5132  0.7287  0.6189
12943TIP3    H260245   1.300   3.335   3.070  1.0848  0.6306  0.5357
12944TIP3   OH260246   1.897   1.908   0.042 -0.0176 -0.2902  0.2818
12944TIP3    H160247   1.984   1.945   0.061 -0.6224 -0.1838  3.2329
12944TIP3    H260248   1.915   1.818   0.016  1.0757  0.3488 -1.3911
12945TIP3   OH260249   4.618   5.834   5.747  0.3903  0.0014  0.4610
12945TIP3    H160250   4.671   5.863   5.822  1.5781 -1.2682  0.1616
12945TIP3    H260251   4.681   5.826   5.675 -0.3486 -0.7646 -0.1241
12946TIP3   OH260252   5.341   1.590   5.344  0.4670 -0.2192  0.1390
12946TIP3    H160253   5.356   1.567   5.436  0.4131  0.3388  0.2889
12946TIP3    H260254   5.305   1.678   5.347 -0.8738 -0.7355 -0.3458
12947TIP3   OH260255   0.914   4.137   4.261 -0.4222  0.1320 -0.3686
12947TIP3    H160256   1.009   4.152   4.258 -0.4910  0.3998 -2.0029
12947TIP3    H260257   0.882   4.168   4.177 -1.8523 -0.8049 -0.2014
12948TIP3   OH260258   0.975   2.467  13.663 -0.0083  0.1640 -0.0781
12948TIP3    H160259   1.030   2.491  13.588 -1.2783  1.4285 -0.6479
12948TIP3    H260260   0.951   2.376  13.647 -1.1337  0.7101 -1.8212
12949TIP3   OH260261   4.345   4.496  15.773  0.1475  0.1849 -0.4248
12949TIP3    H160262   4.415   4.433  15.788 -0.5941 -0.7707 -0.8758
12949TIP3    H260263   4.266   4.443  15.764 -0.8196  1.2880  1.0348
12950TIP3   OH260264   5.561   6.563  13.962 -0.1050  0.2552 -0.5240
12950TIP3    H160265   5.544   6.613  14.041  0.8994  2.4772 -1.6360
12950TIP3    H260266   5.482   6.510  13.949 -0.8559  0.9096  1.1500
12951TIP3   OH260267   2.476   2.091   3.233 -0.0110 -0.2117  0.1399
12951TIP3    H160268   2.477   2.092   3.329  0.9697 -0.8653  0.1526
12951TIP3    H260269   2.543   2.027   3.210 -0.3026 -0.1182 -0.9872
12952TIP3   OH260270   0.579   3.299   1.095  0.1627  0.6834  0.6497
12952TIP3    H160271   0.549   3.350   1.019  2.2399 -0.4153 -1.0272
12952TIP3    H260272   0.499   3.275   1.141 -1.3512  0.0740 -2.0863
12953TIP3   OH260273   5.243   3.135  13.405  0.6757  0.3628 -0.3203
12953TIP3    H160274   5.287   3.126  13.320  0.0003 -0.0626 -0.6373
12953TIP3    H260275   5.288   3.208  13.448  2.0330 -0.4067 -0.4002
12954TIP3   OH260276   6.377   6.140   0.204 -0.3577 -0.9241 -0.1693
12954TIP3    H160277   6.386   6.235   0.204  1.2877 -1.0453 -0.1858
12954TIP3    H260278   6.455   6.109   0.158 -1.2615 -2.2669 -0.8651
12955TIP3   OH260279   3.546   6.721   5.884  0.0655  0.4296 -0.0217
12955TIP3    H160280   3.481   6.701   5.951 -1.3721  1.4528 -1.0450
12955TIP3    H260281   3.625   6.741   5.934 -0.4219 -0.6938  1.2715
12956TIP3   OH260282   5.007   4.124  15.623  0.6026 -0.1136  0.0900
12956TIP3    H160283   4.926   4.075  15.609  0.0890  0.6621  0.2736
12956TIP3    H260284   5.024   4.117  15.717  2.6049 -3.0848 -0.3656
12957TIP3   OH260285   5.539   2.844   4.440 -0.4805  0.3773  0.4179
12957TIP3    H160286   5.537   2.749   4.450 -0.8392 -0.1717 -3.4245
12957TIP3    H260287   5.622   2.870   4.480  1.9791 -2.2810 -2.4192
12958TIP3   OH260288   5.796   4.981  16.008  0.0241  0.2697  0.2590
12958TIP3    H160289   5.802   5.075  15.994  2.2108  0.1415  0.0119
12958TIP3    H260290   5.705   4.966  16.034 -1.3253  1.9821 -2.9036
12959TIP3   OH260291   0.832   6.454   1.053  0.2030  0.2170  0.3827
12959TIP3    H160292   0.916   6.477   1.013 -0.0337 -2.5520 -2.0563
12959TIP3    H260293   0.848   6.368   1.093 -0.8076  0.8801  2.3106
12960TIP3   OH260294   0.557   4.033   1.032 -0.6920  0.4740 -0.5494
12960TIP3    H160295   0.612   4.059   1.106  1.7270 -0.6705 -1.8447
12960TIP3    H260296   0.510   3.955   1.063 -0.7591  0.8004  0.1942
12961TIP3   OH260297   1.980   1.217  15.663  0.2083  0.1728 -0.3897
12961TIP3    H160298   1.954   1.259  15.581 -0.1304  0.5729 -0.0830
12961TIP3    H260299   2.067   1.252  15.682  1.1408 -1.3820 -1.5650
12962TIP3   OH260300   5.649   1.627   1.398  0.0206  0.0771  0.0215
12962TIP3    H160301   5.613   1.713   1.377 -2.9159 -0.6045  1.6850
12962TIP3    H260302   5.640   1.620   1.493  0.7472 -1.8471 -0.0024
12963TIP3   OH260303   5.910   0.060   1.864 -0.0711 -0.2920 -0.4926
12963TIP3    H160304   5.911   0.129   1.798 -0.0296  0.0305 -0.1614
12963TIP3    H260305   5.859   0.097   1.936 -0.1694 -0.6628 -0.3717
12964TIP3   OH260306   3.990   4.565   3.614 -0.0796 -0.3596 -0.4768
12964TIP3    H160307   3.940   4.642   3.584 -0.2552  0.2034  1.1866
12964TIP3    H260308   3.975   4.562   3.708  2.0810 -0.8844 -0.1093
12965TIP3   OH260309   0.622   4.789   5.848 -0.4477 -0.1101 -0.4403
12965TIP3    H160310   0.654   4.759   5.933 -1.7702  0.4523  0.2861
12965TIP3    H260311   0.674   4.740   5.784  0.7526 -0.3497  0.6792
12966TIP3   OH260312   4.933   4.547  11.084 -0.0350  0.0182 -0.6177
12966TIP3    H160313   4.874   4.568  11.011 -0.4362  0.8399 -0.0723
12966TIP3    H260314   5.005   4.609  11.076  0.5724 -0.7259 -1.0481
12967TIP3   OH260315   2.717   0.830   5.157 -0.3439 -0.2482 -0.5773
12967TIP3    H160316   2.678   0.914   5.179 -1.1717 -0.8399  0.3163
12967TIP3    H260317   2.800   0.828   5.205 -1.4681 -0.9318  1.4742
12968TIP3   OH260318   5.495   4.470  17.028 -0.0163 -0.0794 -0.3223
12968TIP3    H160319   5.453   4.384  17.021  1.9321 -1.3051  1.8023
12968TIP3    H260320   5.436   4.521  17.083  0.2549 -1.1153  0.9813
12969TIP3   OH260321   6.390   4.279  10.603 -0.6273 -0.2133 -0.0816
12969TIP3    H160322   6.475   4.238  10.589 -0.3688 -0.0312  0.8729
12969TIP3    H260323   6.330   4.233  10.544 -0.0339 -0.8964 -0.1593
12970TIP3   OH260324   2.574   4.444   4.072  0.4639 -0.6918 -0.1270
12970TIP3    H160325   2.635   4.483   4.134  1.6091  0.4895 -1.9363
12970TIP3    H260326   2.616   4.452   3.987 -1.7554 -0.7831 -1.3167
12971TIP3   OH260327   0.707   5.708  12.675  0.4614  0.5287  0.2518
12971TIP3    H160328   0.666   5.777  12.623 -0.3821 -0.0618  0.1059
12971TIP3    H260329   0.779   5.752  12.721  0.4825  1.3072 -0.5007
12972TIP3   OH260330   6.206   6.058   2.707 -0.4929  0.3721 -0.3427
12972TIP3    H160331   6.295   6.089   2.722 -0.3985 -0.5011  1.0733
12972TIP3    H260332   6.211   6.009   2.626  0.4839 -0.2716  0.0910
12973TIP3   OH260333   5.548   6.061  12.241  0.2423 -1.0487 -0.2127
12973TIP3    H160334   5.638   6.048  12.212  0.0317 -0.2954 -1.2611
12973TIP3    H260335   5.555   6.076  12.335  1.4665  1.1493 -0.5882
12974TIP3   OH260336   2.210   6.786   1.194  0.1876 -0.0314  0.2013
12974TIP3    H160337   2.243   6.756   1.279 -1.1542  0.9689  1.1196
12974TIP3    H260338   2.128   6.737   1.182 -0.0647  0.4576 -0.1070
12975TIP3   OH260339   3.098   1.698   4.607 -0.2309 -0.0338 -0.0532
12975TIP3    H160340   3.181   1.693   4.561  0.4013  0.7122  0.9697
12975TIP3    H260341   3.044   1.757   4.554 -0.0272 -0.3133 -0.5798
12976TIP3   OH260342   5.710   4.414   2.557 -0.6349  0.1202 -0.3279
12976TIP3    H160343   5.668   4.465   2.626  1.3856 -0.8249  1.7466
12976TIP3    H260344   5.804   4.432   2.568 -0.1788 -0.8155 -2.2444
12977TIP3   OH260345   6.435   5.360   3.976 -0.4203  0.1712  0.5195
12977TIP3    H160346   6.439   5.431   4.040  0.3791 -0.8662  1.6461
12977TIP3    H260347   6.366   5.302   4.008 -0.8146  0.2232 -0.1994
12978TIP3   OH260348   4.611   6.729   3.337 -0.6387  0.0097  0.1029
12978TIP3    H160349   4.650   6.642   3.343  1.6545  1.0430  1.3452
12978TIP3    H260350   4.600   6.757   3.427 -2.2731  0.6711 -0.2641
12979TIP3   OH260351   6.467   2.750  16.332 -0.4620 -0.0229  0.2752
12979TIP3    H160352   6.471   2.658  16.307 -1.2303  0.2442 -0.9148
12979TIP3    H260353   6.406   2.753  16.405 -1.5684 -0.2897 -0.6170
12980TIP3   OH260354   2.229   5.750  12.941 -0.9721  0.5516  0.2369
12980TIP3    H160355   2.237   5.788  13.029 -0.1218 -2.2751  1.4902
12980TIP3    H260356   2.288   5.675  12.942 -1.5021 -0.0031 -2.5427
12981TIP3   OH260357   5.786   5.836  14.062 -0.0912  0.5705  0.1662
12981TIP3    H160358   5.794   5.758  14.007 -2.3662  0.7771 -0.5578
12981TIP3    H260359   5.853   5.824  14.130 -1.4493 -2.9174  1.1292
12982TIP3   OH260360   2.798   2.578  16.488  0.3115  0.9838 -0.3869
12982TIP3    H160361   2.767   2.531  16.410  1.3287  1.9537 -1.4122
12982TIP3    H260362   2.718   2.608  16.531 -0.3077 -0.5369 -0.4211
12983TIP3   OH260363   1.378   6.126  14.228  0.2103  0.0200 -0.9091
12983TIP3    H160364   1.324   6.201  14.200  1.2770  0.4701 -1.8698
12983TIP3    H260365   1.461   6.166  14.254  0.5685 -0.7844 -0.8074
12984TIP3   OH260366   2.998   2.620   5.838 -0.0037  0.2535  0.0130
12984TIP3    H160367   3.052   2.617   5.917  0.2567  1.7895 -0.0782
12984TIP3    H260368   2.910   2.638   5.870 -0.2093 -0.7428  0.0492
12985TIP3   OH260369   3.548   5.450   1.836 -0.2651  0.1829 -0.0892
12985TIP3    H160370   3.550   5.545   1.829  1.1485  0.0968 -1.3138
12985TIP3    H260371   3.456   5.427   1.830 -0.4817  1.3575 -2.0061
12986TIP3   OH260372   6.695   2.085  14.752  0.4647  0.1030 -0.3903
12986TIP3    H160373   6.781   2.124  14.765  0.5995 -0.0989 -0.6598
12986TIP3    H260374   6.634   2.159  14.755  0.7662  0.4050 -1.3930
12987TIP3   OH260375   0.930   6.131   2.393 -0.3699 -0.2874 -0.2320
12987TIP3    H160376   0.924   6.195   2.463 -0.4144 -1.8802  1.2795
12987TIP3    H260377   1.020   6.138   2.361  1.2365 -2.6781  3.2077
12988TIP3   OH260378   1.767   0.737  11.725  0.2360  0.7131 -0.2566
12988TIP3    H160379   1.749   0.682  11.802 -0.0774 -1.0380 -1.5222
12988TIP3    H260380   1.706   0.809  11.732 -0.5206  0.0158  0.5957
12989TIP3   OH260381   0.325   6.189  13.133  0.0109 -0.1589 -0.7178
12989TIP3    H160382   0.340   6.096  13.151 -1.9921 -0.1115  1.5965
12989TIP3    H260383   0.277   6.221  13.209  1.6996  3.1086 -0.8638
12990TIP3   OH260384   6.268   2.084   6.248 -0.6875 -0.0669  0.1538
12990TIP3    H160385   6.301   2.002   6.210 -1.2649 -0.3891  0.3327
12990TIP3    H260386   6.201   2.056   6.311  0.1433  0.4586  1.3148
12991TIP3   OH260387   0.050   1.945  15.180  0.3266  0.3765  0.7581
12991TIP3    H160388   0.084   2.002  15.249  0.4475 -0.2595  1.2366
12991TIP3    H260389   0.128   1.907  15.140  0.2561  0.7293  0.2752
12992TIP3   OH260390   6.061   0.053   5.751  0.2220 -0.1051 -0.0480
12992TIP3    H160391   5.967   0.053   5.736  0.0773 -2.9267  0.2505
12992TIP3    H260392   6.072   0.096   5.836 -0.8560 -0.2544  0.1822
12993TIP3   OH260393   5.257   4.216   2.308 -0.3935 -0.3789 -0.7378
12993TIP3    H160394   5.341   4.239   2.347 -0.1635 -1.3279 -0.6610
12993TIP3    H260395   5.199   4.288   2.333  0.1759 -0.1393 -0.0616
12994TIP3   OH260396   3.993   6.004   0.805  0.1955 -1.2499  0.4939
12994TIP3    H160397   3.951   5.992   0.720 -1.1280  1.8782  0.5604
12994TIP3    H260398   3.936   5.957   0.866 -0.7917 -0.6755  0.0422
12995TIP3   OH260399   5.653   5.338   4.467  0.6671 -0.2226 -0.5778
12995TIP3    H160400   5.613   5.379   4.545  0.3593 -0.8740 -0.3861
12995TIP3    H260401   5.646   5.244   4.484  1.2850 -0.3564 -1.0569
12996TIP3   OH260402   2.970   3.381   2.528 -0.5709  0.2188 -0.3589
12996TIP3    H160403   3.015   3.458   2.493 -1.7530  1.2434  0.3044
12996TIP3    H260404   2.896   3.367   2.469 -1.5101  0.8335  0.6285
12997TIP3   OH260405   4.707   0.622  12.506 -0.2279  0.2066 -0.1908
12997TIP3    H160406   4.622   0.665  12.517  0.0604  0.5042  1.0422
12997TIP3    H260407   4.709   0.556  12.575  0.5315  0.1875 -0.2230
12998TIP3   OH260408   1.197   1.284  16.503 -0.1634  0.2888  0.3879
12998TIP3    H160409   1.110   1.261  16.470 -1.0151  1.1670  1.9215
12998TIP3    H260410   1.238   1.333  16.432 -0.8716 -0.2115 -0.3831
12999TIP3   OH260411   4.898   5.319  13.348  0.2005 -0.0597 -0.1057
12999TIP3    H160412   4.981   5.311  13.395 -0.1203  0.8918  0.6650
12999TIP3    H260413   4.845   5.247  13.380  0.2496  0.1439  0.4465
13000TIP3   OH260414   4.045   2.770   0.644  0.0932  0.1552  0.5754
13000TIP3    H160415   4.008   2.806   0.563 -0.1869  0.3116  0.7727
13000TIP3    H260416   3.984   2.797   0.713 -0.5494 -1.3284  0.6383
13001TIP3   OH260417   3.679   3.169   4.381  0.2367 -0.6459  0.4422
13001TIP3    H160418   3.591   3.197   4.357  0.1048 -0.6820  0.8724
13001TIP3    H260419   3.673   3.147   4.474  0.9683  0.4604  0.7662
13002TIP3   OH260420   2.056   6.547  14.305  0.1979 -0.2474  0.3708
13002TIP3    H160421   2.078   6.538  14.398  1.5720  2.5322  0.4003
13002TIP3    H260422   1.975   6.598  14.304  1.3358  1.6318  0.0732
13003TIP3   OH260423   3.569   5.208  15.773  0.4208  0.0340 -0.2293
13003TIP3    H160424   3.616   5.254  15.842 -1.1582  0.9323  0.2890
13003TIP3    H260425   3.495   5.167  15.817 -1.0293  1.2302 -1.4571
13004TIP3   OH260426   6.611   2.445  15.741 -0.4499  0.5532  0.0585
13004TIP3    H160427   6.608   2.464  15.834 -0.5811  1.6960 -0.1730
13004TIP3    H260428   6.646   2.524  15.701  0.4244 -0.2210 -0.7889
13005TIP3   OH260429   2.328   2.854   3.043 -0.3203  0.6346  0.4535
13005TIP3    H160430   2.284   2.769   3.046  0.4503  0.2586  2.2136
13005TIP3    H260431   2.415   2.835   3.008 -0.2759  0.7625  0.4933
13006TIP3   OH260432   0.823   4.219  15.382 -0.4340  0.5932  0.0862
13006TIP3    H160433   0.785   4.189  15.465  2.1201 -2.6893  0.2844
13006TIP3    H260434   0.912   4.246  15.406  0.6470 -1.2274 -1.6316
13007TIP3   OH260435   3.963   3.958   5.080  0.3513 -0.3540 -0.1748
13007TIP3    H160436   3.994   4.033   5.131 -1.5201 -0.0374  0.5628
13007TIP3    H260437   4.003   3.970   4.994 -1.1142  2.4009 -0.5942
13008TIP3   OH260438   0.231   1.464   4.583  0.0924  0.4546  0.2694
13008TIP3    H160439   0.247   1.378   4.623 -0.4803 -0.1486 -0.7474
13008TIP3    H260440   0.299   1.471   4.515 -0.1210  0.6248  0.0735
13009TIP3   OH260441   5.222   1.210  16.411  0.1431 -0.6924 -0.8298
13009TIP3    H160442   5.267   1.216  16.326  1.1245 -1.2582 -0.3686
13009TIP3    H260443   5.257   1.283  16.462 -0.2924 -0.4763 -0.8368
13010TIP3   OH260444   3.090   3.562   5.776 -0.0900  0.0032  0.1458
13010TIP3    H160445   3.184   3.544   5.782  0.0628  0.1851 -1.3112
13010TIP3    H260446   3.083   3.631   5.711 -1.2643 -0.1955  0.0409
13011TIP3   OH260447   0.196   6.169  13.407 -0.1099 -0.1645  0.5101
13011TIP3    H160448   0.235   6.086  13.435  3.3378  1.8328  2.3273
13011TIP3    H260449   0.174   6.213  13.489 -1.1368  1.0588 -0.3867
13012TIP3   OH260450   3.183   3.889   5.360 -0.1415 -0.2104  0.4173
13012TIP3    H160451   3.191   3.806   5.406 -0.2519 -0.1162  0.6103
13012TIP3    H260452   3.190   3.955   5.429 -1.9152 -0.0914  0.5472
13013TIP3   OH260453   2.380   5.171  15.143  0.0255  0.1934  0.0635
13013TIP3    H160454   2.362   5.229  15.069  0.9309  0.9118  0.3811
13013TIP3    H260455   2.416   5.091  15.103 -2.6321 -0.8180 -0.4878
13014TIP3   OH260456   5.593   3.556  13.755 -0.4509  0.4160  0.3812
13014TIP3    H160457   5.641   3.534  13.675 -0.5152 -0.2060  0.5096
13014TIP3    H260458   5.526   3.619  13.726  0.8261  1.8032  0.3150
13015TIP3   OH260459   1.935   0.181   5.460 -0.3394  0.0621  0.9234
13015TIP3    H160460   1.995   0.125   5.410 -0.0769  0.6756  0.5316
13015TIP3    H260461   1.975   0.188   5.546 -0.7301 -0.9031  1.2046
13016TIP3   OH260462   5.333   0.763  15.434  0.6611  0.5992 -0.0477
13016TIP3    H160463   5.418   0.724  15.414  0.5416  0.2553  0.0985
13016TIP3    H260464   5.321   0.831  15.367 -0.2620 -1.3035 -1.9367
13017TIP3   OH260465   1.768   2.843  13.822 -0.4959 -0.2588  0.1615
13017TIP3    H160466   1.817   2.766  13.850  0.7086  1.1428  2.1688
13017TIP3    H260467   1.701   2.808  13.763  1.2370 -2.5616 -0.5894
13018TIP3   OH260468   3.545   5.708   0.381 -0.8863  0.0588  0.1473
13018TIP3    H160469   3.638   5.726   0.372 -0.9852  1.3874  1.2988
13018TIP3    H260470   3.506   5.735   0.298 -0.5023  1.6642  0.4599
13019TIP3   OH260471   5.411   1.231   0.720 -0.1749  0.1505 -0.4812
13019TIP3    H160472   5.367   1.268   0.796  0.5690 -1.1803  0.6239
13019TIP3    H260473   5.390   1.138   0.721  0.9085 -0.1280 -1.1493
13020TIP3   OH260474   2.752   0.885  15.854  0.2130 -0.4525 -0.3721
13020TIP3    H160475   2.728   0.795  15.875 -0.8655 -0.0926 -0.0026
13020TIP3    H260476   2.747   0.932  15.938 -0.4432  0.2100 -0.7677
13021TIP3   OH260477   0.974   6.386   3.631  0.1166 -0.8757 -0.1682
13021TIP3    H160478   0.953   6.419   3.544  0.1486 -0.7131 -0.1146
13021TIP3    H260479   1.038   6.316   3.616  1.2223  0.1079 -0.1809
13022TIP3   OH260480   1.187   1.831   4.666  0.1396  0.2036  0.4911
13022TIP3    H160481   1.180   1.770   4.740 -0.1045 -0.5480 -0.1309
13022TIP3    H260482   1.245   1.900   4.697  0.5079 -0.3999  1.1923
13023TIP3   OH260483   5.724   1.275   5.272  0.1048 -0.1082 -0.4354
13023TIP3    H160484   5.653   1.258   5.210  0.1122 -0.7217 -0.2848
13023TIP3    H260485   5.690   1.345   5.328 -0.2877 -0.2240 -0.5196
13024TIP3   OH260486   6.019   4.853   3.131  0.5901 -0.3264  0.4263
13024TIP3    H160487   6.023   4.813   3.044  1.0921  2.0148 -0.7066
13024TIP3    H260488   5.925   4.854   3.152  0.4561 -0.8283 -0.1158
13025TIP3   OH260489   1.877   1.584  13.726 -0.1229 -0.1085 -0.3684
13025TIP3    H160490   1.807   1.636  13.685  1.3487  0.6643 -2.0590
13025TIP3    H260491   1.956   1.638  13.716  0.9044 -1.3623  0.6276
13026TIP3   OH260492   1.580   3.589   3.807  0.7462  0.8019  0.2716
13026TIP3    H160493   1.625   3.538   3.874 -1.6943 -0.6491  0.9447
13026TIP3    H260494   1.635   3.666   3.794  2.8740 -0.3914  1.6686
13027TIP3   OH260495   0.432   4.542  12.082  0.2881 -0.0004  0.5845
13027TIP3    H160496   0.430   4.533  11.986 -0.3860  0.0832  0.5883
13027TIP3    H260497   0.418   4.636  12.096 -2.8818 -0.4254  0.8531
13028TIP3   OH260498   1.026   2.534  16.227 -0.1129  0.3707 -0.2391
13028TIP3    H160499   1.095   2.468  16.236  0.7795  1.3108 -0.0297
13028TIP3    H260500   0.944   2.485  16.237  0.5619 -0.3720  2.0992
13029TIP3   OH260501   4.258   5.844   0.026 -0.2524  0.1881 -0.0327
13029TIP3    H160502   4.275   5.768   0.082  2.0380  0.7538  0.1427
13029TIP3    H260503   4.242   5.808  -0.061  0.0502 -0.5255  0.2055
13030TIP3   OH260504   4.941   1.459   3.723  0.0410  0.0125  0.2566
13030TIP3    H160505   4.990   1.405   3.661 -0.4102 -0.8358  0.6203
13030TIP3    H260506   4.898   1.396   3.781  0.0145  0.7742  1.0975
13031TIP3   OH260507   0.608   0.213   4.836 -0.2722  0.3532  0.0625
13031TIP3    H160508   0.644   0.175   4.756  0.5098  0.1535  0.4985
13031TIP3    H260509   0.515   0.189   4.834  0.5354 -3.6098  1.4187
13032TIP3   OH260510   5.446   3.035   1.400  0.1128  0.3709 -0.4295
13032TIP3    H160511   5.541   3.022   1.398 -0.0407 -0.7201 -2.2329
13032TIP3    H260512   5.430   3.110   1.342 -0.1841  0.2438 -0.5130
13033TIP3   OH260513   0.939   2.340   4.223 -0.3231 -0.3420 -0.3983
13033TIP3    H160514   0.960   2.257   4.182  2.9556 -0.5483  1.3029
13033TIP3    H260515   0.997   2.403   4.179 -1.0467  0.5821 -0.0617
13034TIP3   OH260516   4.807   3.617   1.644 -0.2366  0.2348  0.3794
13034TIP3    H160517   4.857   3.543   1.679 -0.5757 -1.1005 -1.7106
13034TIP3    H260518   4.865   3.657   1.579 -0.5661  0.9258  0.5009
13035TIP3   OH260519   4.090   3.291   0.355 -0.7283  0.1628 -0.1363
13035TIP3    H160520   4.059   3.375   0.388 -0.9535 -0.2071  0.6339
13035TIP3    H260521   4.174   3.278   0.399 -0.2176  0.4333 -1.0119
13036TIP3   OH260522   1.446   5.350  14.720  0.1184  0.8746  0.6529
13036TIP3    H160523   1.538   5.338  14.697 -0.0068  1.1222  0.0300
13036TIP3    H260524   1.435   5.297  14.799  1.3400  2.5464  2.0309
13037TIP3   OH260525   0.598   0.677  10.676  0.4313  0.5287 -0.3366
13037TIP3    H160526   0.649   0.757  10.684 -0.0662  0.9078 -0.8640
13037TIP3    H260527   0.662   0.610  10.653  0.9007  0.7033  0.4204
13038TIP3   OH260528   1.172   2.112  16.841  0.8295  0.0022  0.7626
13038TIP3    H160529   1.136   2.109  16.752 -0.5171  0.5176  1.2548
13038TIP3    H260530   1.232   2.038  16.846  2.5126  1.1484 -1.2156
13039TIP3   OH260531   1.101   6.607  15.700 -0.1390  0.1221 -0.3518
13039TIP3    H160532   1.010   6.635  15.689 -0.5366 -1.1281 -0.4186
13039TIP3    H260533   1.120   6.622  15.792 -0.4355  0.3326 -0.3251
13040TIP3   OH260534   3.140   3.705   4.667  0.0470  0.3600  0.3075
13040TIP3    H160535   3.145   3.613   4.693  0.7978 -0.1172 -1.4394
13040TIP3    H260536   3.170   3.753   4.744 -0.7859 -0.8115  1.4051
13041TIP3   OH260537   5.596   0.743   1.731 -0.1415  0.1425 -0.3178
13041TIP3    H160538   5.504   0.718   1.725  0.1543 -0.6842 -2.1496
13041TIP3    H260539   5.594   0.837   1.748 -1.2996 -0.0465  0.7481
13042TIP3   OH260540   5.183   2.756   5.483 -0.1638 -0.2218 -0.2679
13042TIP3    H160541   5.212   2.673   5.446 -0.8490 -1.0966  1.0678
13042TIP3    H260542   5.253   2.780   5.545  0.4881  0.7144 -1.3140
13043TIP3   OH260543   2.863   1.401   1.492  0.1421 -0.1408 -0.5191
13043TIP3    H160544   2.809   1.323   1.478  1.8383 -1.6131  0.6495
13043TIP3    H260545   2.950   1.375   1.461  0.9852  0.9048  0.8607
13044TIP3   OH260546   0.492   0.052  12.069 -0.1351  0.1832  0.2581
13044TIP3    H160547   0.502   0.068  11.975  0.1969  0.5950  0.3589
13044TIP3    H260548   0.491   0.140  12.108 -0.1890  0.0119  0.6501
13045TIP3   OH260549   1.711   4.954   3.575 -0.0968  0.3635 -0.1194
13045TIP3    H160550   1.736   5.007   3.499 -0.3867  1.1397  0.3165
13045TIP3    H260551   1.682   4.871   3.538 -0.7973  0.9442 -0.8964
13046TIP3   OH260552   3.714   6.396  11.040  0.2482 -0.0957  0.0801
13046TIP3    H160553   3.781   6.456  11.008  0.3389  0.1129  0.6540
13046TIP3    H260554   3.725   6.317  10.988 -0.4178  0.6744 -1.2785
13047TIP3   OH260555   5.971   3.430   1.473  0.0082  0.1927 -0.2631
13047TIP3    H160556   6.033   3.422   1.546  0.6567  2.0670 -0.5424
13047TIP3    H260557   5.885   3.416   1.514  0.5795 -3.9113 -0.1400
13048TIP3   OH260558   2.994   3.989  14.615  0.9061 -0.0478 -0.1564
13048TIP3    H160559   2.918   3.943  14.651  0.2041  0.5547 -0.8535
13048TIP3    H260560   2.962   4.076  14.594  1.7924  0.2112 -0.4787
13049TIP3   OH260561   4.722   5.784  13.171 -0.3382  0.2888  0.2400
13049TIP3    H160562   4.728   5.793  13.266 -1.4528  0.2164  0.3197
13049TIP3    H260563   4.651   5.842  13.145  0.5849  1.0450 -0.6732
13050TIP3   OH260564   6.302   3.637  15.394 -0.3197 -0.2553  0.3169
13050TIP3    H160565   6.254   3.720  15.391 -2.1118 -1.2541 -0.2842
13050TIP3    H260566   6.378   3.655  15.450  0.0054  2.0952 -0.7386
13051TIP3   OH260567   3.158   4.483  14.007  0.0762 -0.5037 -0.1156
13051TIP3    H160568   3.237   4.442  14.042 -0.3610 -1.8193 -0.6180
13051TIP3    H260569   3.125   4.537  14.079  0.1167 -1.8384  0.9371
13052TIP3   OH260570   1.968   4.567   4.271 -0.1983 -0.0358 -0.1103
13052TIP3    H160571   2.009   4.646   4.236 -0.4639  1.4751  2.7190
13052TIP3    H260572   1.887   4.598   4.311 -0.5480 -1.8265  0.6540
13053TIP3   OH260573   2.722   0.870  12.734 -0.2493  0.3456 -0.4954
13053TIP3    H160574   2.815   0.871  12.756 -0.7114 -0.0086  1.7658
13053TIP3    H260575   2.692   0.959  12.752 -0.9361 -0.3065  2.0741
13054TIP3   OH260576   2.725   5.885   2.283 -0.7602 -0.5500 -0.1979
13054TIP3    H160577   2.659   5.946   2.315  0.0477  0.5252 -0.5213
13054TIP3    H260578   2.689   5.850   2.202 -0.3992  1.0641 -1.1112
13055TIP3   OH260579   4.727   0.939  11.555 -0.5857 -0.3107 -0.4614
13055TIP3    H160580   4.785   1.012  11.577 -1.6581  0.3071  0.3907
13055TIP3    H260581   4.659   0.941  11.622 -1.0319 -1.6660 -0.8386
13056TIP3   OH260582   3.835   2.727   3.106 -0.3844 -0.1565 -0.1843
13056TIP3    H160583   3.889   2.737   3.184 -0.7032  0.7878 -0.0746
13056TIP3    H260584   3.770   2.797   3.112 -1.4512 -1.0932 -0.4579
13057TIP3   OH260585   6.173   5.877  12.567  0.1287  0.3865 -0.3345
13057TIP3    H160586   6.223   5.812  12.519  0.8385  1.4678 -1.0930
13057TIP3    H260587   6.213   5.879  12.654  0.0010 -0.2911 -0.2577
13058TIP3   OH260588   1.564   1.957  15.064  0.6118  0.1264 -0.4571
13058TIP3    H160589   1.494   1.904  15.101 -1.6632  2.7419 -0.7295
13058TIP3    H260590   1.604   1.901  14.998 -1.9412 -1.1543 -1.0340
13059TIP3   OH260591   5.889   6.491   0.943 -0.1467  0.0479  0.1207
13059TIP3    H160592   5.919   6.557   1.005  3.2949 -0.3549 -0.8807
13059TIP3    H260593   5.946   6.502   0.867 -2.7070 -0.9446 -2.1158
13060TIP3   OH260594   4.014   1.562   2.903 -0.0014 -0.5407 -0.1122
13060TIP3    H160595   4.062   1.612   2.970 -0.8254  0.7466 -0.4510
13060TIP3    H260596   4.055   1.588   2.821  0.0545 -1.0150 -0.2376
13061TIP3   OH260597   3.687   6.427   3.743  0.1844  0.2651  0.5079
13061TIP3    H160598   3.626   6.492   3.707 -1.0503 -0.4874  1.1474
13061TIP3    H260599   3.678   6.351   3.685  0.1207 -0.0318  0.8988
13062TIP3   OH260600   5.755   3.889   5.836 -0.5269 -0.2284 -0.0039
13062TIP3    H160601   5.739   3.974   5.876  0.3847  0.4656 -1.0773
13062TIP3    H260602   5.787   3.834   5.908  1.7265  1.1749  0.1414
13063TIP3   OH260603   2.132   6.603  13.112 -0.3491  0.3675 -0.1808
13063TIP3    H160604   2.156   6.575  13.023 -2.1341  1.2355 -0.9928
13063TIP3    H260605   2.056   6.548  13.135 -1.5045  1.8588 -0.2713
13064TIP3   OH260606   0.538   5.703  16.955 -0.2117  0.2020 -0.1895
13064TIP3    H160607   0.593   5.780  16.942  0.2483  0.0098  0.5556
13064TIP3    H260608   0.552   5.649  16.877  1.3680 -0.2630  0.3863
13065TIP3   OH260609   5.755   5.283  14.554 -0.0710 -0.3714  0.2377
13065TIP3    H160610   5.829   5.327  14.514 -0.0707 -1.4635 -1.0030
13065TIP3    H260611   5.744   5.327  14.638  1.3455  0.4658  0.0117
13066TIP3   OH260612   3.508   4.625   4.298  0.7491  0.2517 -0.0312
13066TIP3    H160613   3.508   4.574   4.217 -0.6880  0.0569  0.0531
13066TIP3    H260614   3.563   4.577   4.358 -0.3793 -1.0960 -0.0328
13067TIP3   OH260615   5.176   3.641   3.691  0.0671  0.2379  0.4762
13067TIP3    H160616   5.112   3.704   3.726 -0.5153  0.0269 -0.1833
13067TIP3    H260617   5.223   3.689   3.624  0.6104  0.3907  0.9574
13068TIP3   OH260618   0.983   1.985   1.791 -0.1326  0.2255  0.2148
13068TIP3    H160619   1.033   2.057   1.752 -0.9862  1.8606  1.9902
13068TIP3    H260620   0.978   1.919   1.722 -0.7738  2.5514 -2.0965
13069TIP3   OH260621   4.079   1.880  13.008  0.3700  0.6369  0.2575
13069TIP3    H160622   4.111   1.862  12.919 -1.7542 -1.6251 -0.1421
13069TIP3    H260623   4.013   1.949  12.995  1.4611  1.7481  0.4107
13070TIP3   OH260624   4.783   2.270   4.744 -0.2006  0.3410  0.2182
13070TIP3    H160625   4.762   2.341   4.805  0.2575 -0.3698  1.2172
13070TIP3    H260626   4.698   2.237   4.716 -0.5155 -1.3153  2.8201
13071TIP3   OH260627   1.912   2.214  10.935  1.2401  0.0886 -0.1535
13071TIP3    H160628   1.948   2.147  10.877 -0.3742 -1.3691  0.4624
13071TIP3    H260629   1.921   2.296  10.885 -0.8225 -1.1999 -2.9004
13072TIP3   OH260630   4.581   3.479  14.515 -0.1526 -0.7284 -0.4168
13072TIP3    H160631   4.667   3.510  14.542  0.1844  1.1133 -3.1284
13072TIP3    H260632   4.578   3.387  14.541  2.8401 -0.9742 -0.6488
13073TIP3   OH260633   6.762   1.923   5.805 -0.0158  0.4430  0.1287
13073TIP3    H160634   6.712   2.003   5.820 -1.1712 -0.0803 -0.7716
13073TIP3    H260635   6.702   1.866   5.757  1.4909 -0.1716 -1.1005
13074TIP3   OH260636   6.066   2.762   1.047  0.2607  0.2993 -0.1671
13074TIP3    H160637   6.124   2.686   1.045 -0.4502 -0.7365  4.5880
13074TIP3    H260638   6.117   2.829   1.095 -1.3701  0.2902  1.7232
13075TIP3   OH260639   1.102   0.389   1.654  0.4028 -0.1381  0.5578
13075TIP3    H160640   1.087   0.464   1.711  0.2215  0.6967 -0.5654
13075TIP3    H260641   1.126   0.427   1.569  2.4599 -1.3546  0.5241
13076TIP3   OH260642   4.119   5.101  16.394 -0.0059 -0.5905  0.3781
13076TIP3    H160643   4.087   5.179  16.349 -1.2403 -0.6188  1.1464
13076TIP3    H260644   4.055   5.087  16.465  0.3225 -2.1580  0.3924
13077TIP3   OH260645   4.276   1.925  11.200 -0.3675 -0.1230 -0.0062
13077TIP3    H160646   4.303   2.017  11.196  3.9283 -0.9839  2.2393
13077TIP3    H260647   4.275   1.896  11.109  3.4796  1.1027 -0.6434
13078TIP3   OH260648   6.589   4.309   1.833  0.2179 -0.0737  0.6644
13078TIP3    H160649   6.536   4.250   1.779  0.0251  0.1037  0.6543
13078TIP3    H260650   6.635   4.252   1.894 -0.7977 -0.1624  1.3769
13079TIP3   OH260651   1.567   0.850   4.119  0.3905  0.4689 -0.2603
13079TIP3    H160652   1.565   0.892   4.033 -0.1338  0.0380 -0.4599
13079TIP3    H260653   1.479   0.861   4.154 -0.7973 -3.1567 -1.6431
13080TIP3   OH260654   1.621   4.342  15.327 -0.0701 -0.2124  0.0114
13080TIP3    H160655   1.619   4.325  15.233  0.6519 -2.1629  0.3165
13080TIP3    H260656   1.585   4.263  15.367 -0.1346  0.4882  1.4077
13081TIP3   OH260657   6.368   0.791   2.926  0.5211 -0.2384 -0.9113
13081TIP3    H160658   6.360   0.713   2.980 -0.5511  0.2998 -0.2579
13081TIP3    H260659   6.304   0.853   2.963 -0.7538 -0.0827 -3.1900
13082TIP3   OH260660   5.570   0.975   1.399 -0.8319  1.0721 -0.7775
13082TIP3    H160661   5.582   0.913   1.327 -0.1835 -0.5271  0.6098
13082TIP3    H260662   5.491   0.945   1.444  1.8665 -1.8868  2.6446
13083TIP3   OH260663   6.679   1.182   5.796  0.2663 -0.1960 -0.0520
13083TIP3    H160664   6.725   1.188   5.879 -0.2439  1.2517  0.1432
13083TIP3    H260665   6.664   1.088   5.784  0.7418 -0.4577  1.2572
13084TIP3   OH260666   5.002   2.781  11.918 -0.1770 -0.2541  0.2238
13084TIP3    H160667   4.997   2.821  11.831 -1.4796  0.3417  0.5469
13084TIP3    H260668   5.069   2.714  11.910  1.3926  1.3333 -0.6258
13085TIP3   OH260669   6.137   2.927   1.252 -0.5121  0.1720  0.8342
13085TIP3    H160670   6.113   3.006   1.300  2.6086  0.8160  1.5730
13085TIP3    H260671   6.228   2.911   1.277  0.0979 -1.6070 -2.0509
13086TIP3   OH260672   0.136   0.774   1.842 -0.0600 -0.6449  0.2762
13086TIP3    H160673   0.058   0.829   1.834  0.7210  0.7313  1.6070
13086TIP3    H260674   0.114   0.712   1.911 -0.8965 -1.9867 -1.1401
13087TIP3   OH260675   4.164   3.115  15.773 -0.7053  0.6652  0.0152
13087TIP3    H160676   4.165   3.023  15.798  0.4265  0.6760  0.0323
13087TIP3    H260677   4.167   3.115  15.677  0.4203  0.6834  0.0379
13088TIP3   OH260678   2.618   1.294   1.774  0.7669  0.9192  0.6275
13088TIP3    H160679   2.591   1.315   1.863  0.9859  2.5928  0.3316
13088TIP3    H260680   2.709   1.321   1.769  1.1300 -0.3291  0.2445
13089TIP3   OH260681   2.873   6.726  13.530 -0.1506 -0.3140  1.0942
13089TIP3    H160682   2.913   6.733  13.444 -1.0751 -1.0518  0.5779
13089TIP3    H260683   2.945   6.736  13.592  0.8299 -1.6327  0.2064
13090TIP3   OH260684   5.811   4.649  14.502  0.9790  0.6091 -0.3474
13090TIP3    H160685   5.871   4.669  14.574  0.8639  0.6363 -0.2594
13090TIP3    H260686   5.869   4.621  14.431  1.0806  0.4345 -0.1971
13091TIP3   OH260687   5.138   0.556  14.374  0.1145 -0.1698 -0.2549
13091TIP3    H160688   5.078   0.533  14.445  1.5994  0.1333  1.1778
13091TIP3    H260689   5.132   0.652  14.367  1.4050  0.0425  0.9042
13092TIP3   OH260690   0.393   5.173  17.102  0.3293 -0.2039 -0.5422
13092TIP3    H160691   0.412   5.137  17.016 -1.0457  1.7469 -1.7238
13092TIP3    H260692   0.374   5.096  17.156  0.8280 -1.4460 -2.0590
13093TIP3   OH260693   0.804   1.452   3.181  0.2159  0.0782  0.1648
13093TIP3    H160694   0.859   1.519   3.222  1.4165  0.8042 -2.4117
13093TIP3    H260695   0.864   1.405   3.123 -1.4692 -0.5005 -1.1664
13094TIP3   OH260696   1.498   2.808  10.976 -0.4170  0.4546 -0.4257
13094TIP3    H160697   1.451   2.763  10.906 -3.1388  1.3836  0.6863
13094TIP3    H260698   1.548   2.877  10.931  1.0044 -1.3367 -1.7602
13095TIP3   OH260699   6.676   4.199  14.302  0.1008 -0.0011  0.2542
13095TIP3    H160700   6.663   4.138  14.230 -1.1953 -1.2936  1.5252
13095TIP3    H260701   6.729   4.151  14.366  1.5536  1.2541  0.0676
13096TIP3   OH260702   5.405   2.315   3.630  0.3222  0.1964 -0.4785
13096TIP3    H160703   5.404   2.219   3.623 -0.5674  0.2830 -1.9006
13096TIP3    H260704   5.487   2.341   3.588  0.1852  0.0941 -0.8119
13097TIP3   OH260705   3.022   2.065   3.161 -0.0239 -0.5535 -0.0835
13097TIP3    H160706   3.078   2.077   3.237  1.3376 -1.2192 -0.9461
13097TIP3    H260707   3.037   2.142   3.107 -0.7075 -0.2567  0.1434
13098TIP3   OH260708   4.311   1.510  10.741 -0.0465  0.0665 -0.6233
13098TIP3    H160709   4.290   1.485  10.831 -0.4142  0.1035 -0.6955
13098TIP3    H260710   4.370   1.441  10.710 -0.7952 -0.5588 -0.7143
13099TIP3   OH260711   2.612   0.881  13.358  0.0377  0.1730 -0.2060
13099TIP3    H160712   2.544   0.874  13.425 -0.6096  0.4328 -0.8219
13099TIP3    H260713   2.689   0.915  13.405 -0.4894  0.6247  0.3466
13100TIP3   OH260714   2.802   4.429   1.549  0.5760 -0.2556  0.1114
13100TIP3    H160715   2.878   4.475   1.515  0.8052 -1.2024 -0.6996
13100TIP3    H260716   2.797   4.348   1.497 -0.9149 -0.2605  0.2157
13101TIP3   OH260717   5.592   0.838  14.237 -0.0169 -0.1304 -0.3407
13101TIP3    H160718   5.611   0.757  14.189 -1.5389 -0.3962 -0.5542
13101TIP3    H260719   5.510   0.819  14.283  0.8680  0.4745  1.5597
13102TIP3   OH260720   4.823   3.486   2.406  0.4524  0.3942 -0.2134
13102TIP3    H160721   4.884   3.548   2.446  0.2299  2.0723 -2.2735
13102TIP3    H260722   4.736   3.522   2.425  0.2734  0.0770 -0.4245
13103TIP3   OH260723   6.005   1.737   1.688  0.3434 -0.3261 -0.4500
13103TIP3    H160724   6.097   1.709   1.694  0.8390  1.1956 -0.5029
13103TIP3    H260725   5.995   1.766   1.597 -0.0362  0.0046 -0.3035
13104TIP3   OH260726   3.950   2.995  11.734 -0.5209 -0.7919  0.1297
13104TIP3    H160727   3.997   2.975  11.815 -1.3461 -2.9346  0.1432
13104TIP3    H260728   3.890   3.066  11.758 -0.4745 -1.1225  1.2979
13105TIP3   OH260729   6.172   3.979  12.849  0.1188 -0.4247 -0.1317
13105TIP3    H160730   6.146   4.048  12.789  0.3330 -1.0372 -0.9440
13105TIP3    H260731   6.266   3.967  12.834  0.1931 -0.5290  0.3831
13106TIP3   OH260732   6.594   4.281  12.449 -0.0458 -0.0865 -0.8294
13106TIP3    H160733   6.555   4.361  12.413 -2.5401 -0.0560  1.6020
13106TIP3    H260734   6.687   4.301  12.456 -0.8113  3.6306  1.8093
13107TIP3   OH260735   3.936   4.424  10.571 -0.0386  0.0904 -0.4493
13107TIP3    H160736   3.860   4.480  10.555  0.1944  1.0197  1.3738
13107TIP3    H260737   4.009   4.485  10.581  0.9232 -0.7725 -1.8277
13108TIP3   OH260738   6.101   3.615  11.602 -0.0657 -0.2145  0.1558
13108TIP3    H160739   6.181   3.610  11.654  0.8770 -0.1035 -1.2425
13108TIP3    H260740   6.036   3.653  11.662  1.0315  0.0976  1.1841
13109TIP3   OH260741   1.719   3.940  14.856  0.3400  0.0374 -0.2129
13109TIP3    H160742   1.757   3.892  14.783 -1.7028 -0.3508 -1.1052
13109TIP3    H260743   1.631   3.904  14.865  0.4200  0.3066  2.2664
13110TIP3   OH260744   5.470   2.856   2.403  0.2365 -0.3958 -0.7510
13110TIP3    H160745   5.548   2.888   2.450 -0.8165  1.7818 -0.3393
13110TIP3    H260746   5.454   2.769   2.439  0.7344  0.3344  1.4094
13111TIP3   OH260747   3.763   6.332  15.526  0.2584 -0.6361 -0.6377
13111TIP3    H160748   3.672   6.341  15.497 -0.0302  1.0619  0.6494
13111TIP3    H260749   3.756   6.310  15.619  1.1392  0.8406 -0.1963
13112TIP3   OH260750   0.312   3.268   4.435  0.3413 -0.5478 -0.3084
13112TIP3    H160751   0.267   3.347   4.466 -0.5827 -1.1812  0.0150
13112TIP3    H260752   0.405   3.288   4.443  0.1143  0.2521  0.4255
13113TIP3   OH260753   1.621   2.583  12.208 -0.8383 -0.2350 -0.2088
13113TIP3    H160754   1.609   2.592  12.302 -1.0477  0.3799 -0.2895
13113TIP3    H260755   1.595   2.668  12.172  1.1692  0.2668 -0.6346
13114TIP3   OH260756   3.624   3.979  11.733 -0.2789 -0.5063  0.7122
13114TIP3    H160757   3.719   3.990  11.740 -0.1615 -0.8728 -0.1602
13114TIP3    H260758   3.593   4.062  11.695 -0.4168 -0.0679  1.7639
13115TIP3   OH260759   3.417   6.689  10.391  0.4772  0.6891  0.3372
13115TIP3    H160760   3.436   6.783  10.393  0.9185  0.6208 -0.4464
13115TIP3    H260761   3.494   6.649  10.432  1.8617  0.4606 -2.2483
13116TIP3   OH260762   2.631   6.380   4.741  0.3434  0.1269 -0.1964
13116TIP3    H160763   2.542   6.347   4.752 -0.6521  2.6997  0.0206
13116TIP3    H260764   2.631   6.424   4.656  2.0685 -1.6383 -1.1911
13117TIP3   OH260765   1.664   4.438  12.597 -0.0262  0.2355 -0.4284
13117TIP3    H160766   1.607   4.514  12.587 -0.0544  0.1285 -1.1546
13117TIP3    H260767   1.743   4.471  12.639 -0.0026  0.6756 -0.8227
13118TIP3   OH260768   2.631   3.597  15.725  0.1891  0.4352 -0.1423
13118TIP3    H160769   2.662   3.582  15.814  2.3840  0.5370 -0.8156
13118TIP3    H260770   2.656   3.518  15.677 -0.4842  0.6064 -0.7944
13119TIP3   OH260771   2.348   0.304  11.828 -0.5357 -1.3000 -0.5140
13119TIP3    H160772   2.277   0.332  11.770 -1.5286  1.4123  1.7872
13119TIP3    H260773   2.302   0.270  11.905  0.3427  2.6948  2.0698
13120TIP3   OH260774   1.463   6.705  16.248 -0.1094  0.0471  0.0532
13120TIP3    H160775   1.476   6.760  16.325  0.0639  1.4581 -0.9425
13120TIP3    H260776   1.370   6.715  16.227  0.5220  2.6190 -1.9916
13121TIP3   OH260777   2.617   6.380   1.010  0.2873 -0.0064 -0.1489
13121TIP3    H160778   2.555   6.320   1.052 -0.2301  0.0005 -0.8944
13121TIP3    H260779   2.626   6.452   1.072 -0.6305  0.1040 -0.1281
13122TIP3   OH260780   5.176   6.566   5.069  0.4442  0.6586  0.1698
13122TIP3    H160781   5.201   6.645   5.117  0.4473  1.7779 -1.6047
13122TIP3    H260782   5.088   6.584   5.037 -0.2548 -0.7831  1.1834
13123TIP3   OH260783   1.391   0.384   5.339 -0.0683  0.2369  0.3432
13123TIP3    H160784   1.477   0.409   5.306 -0.0142  0.1187  0.3946
13123TIP3    H260785   1.378   0.438   5.417  0.7613 -1.0661  1.4195
13124TIP3   OH260786   4.411   5.567   4.168 -0.3229 -0.2706  0.6319
13124TIP3    H160787   4.358   5.550   4.090 -0.0541  0.7346  0.2124
13124TIP3    H260788   4.400   5.489   4.222 -1.0656 -0.6905 -0.1013
13125TIP3   OH260789   3.093   5.219  11.787  0.2144 -0.0890 -0.4127
13125TIP3    H160790   3.127   5.248  11.702  1.3101  0.9831  0.3566
13125TIP3    H260791   3.104   5.295  11.844 -0.1235 -0.9244  0.7958
13126TIP3   OH260792   0.304   0.818   0.946  0.0001 -0.5575  0.0475
13126TIP3    H160793   0.317   0.788   1.035 -1.1135 -2.2123 -0.3052
13126TIP3    H260794   0.382   0.870   0.926  0.5354 -0.6674  1.7591
13127TIP3   OH260795   4.961   1.928  15.731 -0.0277 -0.3493 -0.2004
13127TIP3    H160796   5.032   1.899  15.787  0.1829 -0.8411 -0.7118
13127TIP3    H260797   4.918   1.997  15.781  0.2679 -0.6471  0.4826
13128TIP3   OH260798   3.900   4.018   3.272 -0.6625  0.0699  0.0834
13128TIP3    H160799   3.872   4.107   3.249 -0.0548  0.2046 -0.1766
13128TIP3    H260800   3.973   4.000   3.212 -1.3407 -0.9489 -0.4697
13129TIP3   OH260801   4.575   3.857   5.733 -0.1386  0.1531 -0.6649
13129TIP3    H160802   4.645   3.862   5.798 -0.0399 -0.4986 -0.7114
13129TIP3    H260803   4.581   3.939   5.685 -1.0127  1.2154  0.9438
13130TIP3   OH260804   2.222   1.657   5.580  0.2529 -0.4196  0.3081
13130TIP3    H160805   2.292   1.720   5.595  0.1047 -0.3527  0.7579
13130TIP3    H260806   2.265   1.571   5.580  0.3125 -0.3929  0.7851
13131TIP3   OH260807   1.080   6.091   0.353  0.3199 -0.2732 -0.2350
13131TIP3    H160808   1.173   6.070   0.355  0.3762 -0.0840  2.0761
13131TIP3    H260809   1.070   6.162   0.417 -1.6241 -1.3058  0.6938
13132TIP3   OH260810   3.596   0.333   2.836 -0.0267  0.8925 -0.8221
13132TIP3    H160811   3.642   0.317   2.753  1.1409 -0.0130 -0.0477
13132TIP3    H260812   3.648   0.401   2.879  0.9278 -0.4762  0.2737
13133TIP3   OH260813   3.707   6.775  16.140 -0.1238 -0.3892  0.1432
13133TIP3    H160814   3.732   6.694  16.184  0.5465 -0.9486 -1.2316
13133TIP3    H260815   3.654   6.746  16.066  0.1471  0.4402 -0.3768
13134TIP3   OH260816   1.263   3.015  15.925 -0.0184  0.1219  0.4406
13134TIP3    H160817   1.334   2.971  15.971  0.6756  1.2878  0.5381
13134TIP3    H260818   1.184   2.970  15.954  0.7106 -1.7417 -0.2899
13135TIP3   OH260819   2.028   5.337   3.633 -1.0769  0.0688 -0.2240
13135TIP3    H160820   1.979   5.336   3.550 -1.7898  1.5307  0.1463
13135TIP3    H260821   2.030   5.245   3.660 -4.5426 -0.0201  0.2147
13136TIP3   OH260822   0.950   1.628  16.581 -0.6785  0.8262 -1.0048
13136TIP3    H160823   0.945   1.541  16.542 -1.5090  0.4934 -0.2056
13136TIP3    H260824   1.007   1.678  16.523 -1.7038  0.2973 -2.5025
13137TIP3   OH260825   1.000   4.468  14.249  0.2939 -0.3323  0.4220
13137TIP3    H160826   0.922   4.464  14.192  1.3243 -0.9895 -1.0131
13137TIP3    H260827   1.064   4.412  14.205  1.4920 -0.0347  1.7280
13138TIP3   OH260828   0.020   6.526   0.422 -0.0595 -0.3138  0.5464
13138TIP3    H160829   0.112   6.515   0.398  0.0617  0.8332  0.4323
13138TIP3    H260830  -0.014   6.437   0.427  1.3137 -0.8170  1.6323
13139TIP3   OH260831   0.984   3.709  15.052 -0.4457  0.0734  0.2207
13139TIP3    H160832   0.894   3.737  15.069  0.4190  3.4074  0.1477
13139TIP3    H260833   1.033   3.737  15.129  0.7979 -0.0707 -0.4784
13140TIP3   OH260834   5.633   1.492  14.636  0.4120 -0.0294 -0.1668
13140TIP3    H160835   5.683   1.434  14.693 -0.2873 -0.0450  0.4536
13140TIP3    H260836   5.542   1.477  14.661  0.2018  1.2111 -0.1107
13141TIP3   OH260837   2.516   5.421  16.941 -0.0949  0.3617 -0.1555
13141TIP3    H160838   2.478   5.353  16.997  0.3278  0.5953  0.4193
13141TIP3    H260839   2.525   5.497  16.998 -3.0657  1.8370 -1.4091
13142TIP3   OH260840   5.679   5.197  15.234 -0.7043  0.1613 -0.2123
13142TIP3    H160841   5.630   5.210  15.153 -0.7529 -2.8442 -0.7757
13142TIP3    H260842   5.613   5.198  15.303 -1.2751 -1.3394 -0.6974
13143TIP3   OH260843   4.277   5.525  12.183 -0.1599  0.0373 -0.1700
13143TIP3    H160844   4.326   5.515  12.101  0.9501 -0.9258  0.5673
13143TIP3    H260845   4.220   5.601  12.168  0.5222  0.3126 -1.5790
13144TIP3   OH260846   5.095   4.877  15.424  0.2993  0.1471 -0.6160
13144TIP3    H160847   5.022   4.937  15.411  1.7714  1.6659 -2.6307
13144TIP3    H260848   5.087   4.847  15.515 -1.8788  1.4923 -0.3110
13145TIP3   OH260849   4.706   0.139  13.737 -0.9659  0.1459 -0.0999
13145TIP3    H160850   4.693   0.128  13.643 -1.0510 -1.0719  0.0470
13145TIP3    H260851   4.785   0.089  13.757 -1.9052 -1.0557  0.7598
13146TIP3   OH260852   0.033   6.726   6.684  0.4045  1.1573  0.7204
13146TIP3    H160853  -0.033   6.793   6.704 -1.5728 -0.5336  0.2599
13146TIP3    H260854  -0.013   6.665   6.626  1.8927 -0.9825  1.6985
13147TIP3   OH260855   4.432   2.708   3.387 -0.1911  0.5905 -0.3712
13147TIP3    H160856   4.482   2.702   3.468  1.1410  0.0751 -1.1944
13147TIP3    H260857   4.491   2.754   3.326 -0.9581  0.5142 -1.1869
13148TIP3   OH260858   5.030   5.221   6.505  0.6277  0.2139  0.1951
13148TIP3    H160859   5.106   5.164   6.512 -0.5257 -1.1007  4.1669
13148TIP3    H260860   4.955   5.162   6.504 -0.5011  1.5857 -0.3351
13149TIP3   OH260861   1.028   4.083   1.776 -1.1826  0.2817  0.7521
13149TIP3    H160862   1.083   4.094   1.698 -1.4260  1.5819  0.7440
13149TIP3    H260863   0.969   4.012   1.753 -0.1814 -0.4522  0.3717
13150TIP3   OH260864   1.876   5.265  14.825  0.3308 -0.3644 -0.0013
13150TIP3    H160865   1.796   5.315  14.843  0.3698 -0.1193 -0.4808
13150TIP3    H260866   1.910   5.243  14.911  1.2122  1.8841  0.3089
13151TIP3   OH260867   0.961   5.292   5.669 -0.2108  0.1181  0.0231
13151TIP3    H160868   0.916   5.208   5.658 -0.6523  0.1484  1.3609
13151TIP3    H260869   0.913   5.336   5.740  1.0744  0.7441  0.5381
13152TIP3   OH260870   2.713   6.085  10.969 -1.0991  0.3284 -0.7930
13152TIP3    H160871   2.629   6.042  10.987 -0.9191 -0.2529 -1.2961
13152TIP3    H260872   2.759   6.024  10.911  1.0716 -1.0657  2.1227
13153TIP3   OH260873   1.775   4.841   1.033 -0.3076  0.1434 -0.2391
13153TIP3    H160874   1.696   4.843   1.087 -0.3755 -0.7702 -0.2944
13153TIP3    H260875   1.826   4.768   1.068  0.7126  0.9811  0.0583
13154TIP3   OH260876   1.582   4.145  11.253  0.1094  0.2417  0.0026
13154TIP3    H160877   1.575   4.233  11.292 -1.9936  0.9836 -1.7855
13154TIP3    H260878   1.599   4.087  11.327 -0.5889  1.9262  1.5692
13155TIP3   OH260879   5.344   2.808  16.740 -0.1529  0.0760  0.3995
13155TIP3    H160880   5.396   2.754  16.798 -0.7308 -1.0594 -0.1114
13155TIP3    H260881   5.407   2.864  16.696  1.3429 -3.8226 -3.0704
13156TIP3   OH260882   5.833   3.207   2.660 -0.3320 -0.1459 -0.5491
13156TIP3    H160883   5.823   3.299   2.681  1.2410 -0.1102  0.2199
13156TIP3    H260884   5.795   3.161   2.735  0.4568 -0.0840 -0.0998
13157TIP3   OH260885   0.047   1.705  11.880  0.4981  0.1444 -0.1445
13157TIP3    H160886   0.024   1.775  11.941  1.8147  2.1004 -1.7806
13157TIP3    H260887   0.088   1.639  11.936 -1.9871 -0.0350  1.6442
13158TIP3   OH260888   3.720   5.193  12.940  0.3148 -0.4559 -0.2316
13158TIP3    H160889   3.785   5.210  12.872  2.3867 -0.8736  1.5337
13158TIP3    H260890   3.746   5.249  13.013 -1.9861  0.1626  0.2132
13159TIP3   OH260891   2.212   1.431  11.224 -0.1791  0.4927 -0.1187
13159TIP3    H160892   2.191   1.359  11.165  0.4613 -0.3345  0.6252
13159TIP3    H260893   2.271   1.392  11.289  0.7237  1.8466 -0.0807
13160TIP3   OH260894   4.293   3.065  13.318 -0.4314 -0.4429 -0.0804
13160TIP3    H160895   4.369   3.123  13.316 -0.2762 -0.4603 -3.9882
13160TIP3    H260896   4.328   2.979  13.338 -0.1629  0.1957  2.4512
13161TIP3   OH260897   3.546   0.321  15.076 -0.3873 -0.0283 -0.2935
13161TIP3    H160898   3.540   0.372  14.995  0.6730  1.2968  0.4318
13161TIP3    H260899   3.455   0.309  15.103 -0.7450 -0.2796 -1.5329
13162TIP3   OH260900   0.725   3.356   5.457  0.1876  0.1782  0.2572
13162TIP3    H160901   0.803   3.404   5.428 -0.0544  0.8343  0.6587
13162TIP3    H260902   0.683   3.415   5.520 -0.7470 -0.0764 -0.1134
13163TIP3   OH260903   5.734   6.255  15.150 -0.3683  0.5278 -0.1334
13163TIP3    H160904   5.697   6.332  15.194 -1.5359  0.8279 -1.5585
13163TIP3    H260905   5.754   6.194  15.221 -2.7353  0.7493  0.8017
13164TIP3   OH260906   0.434   5.284  14.574 -0.2635 -0.0973  0.4931
13164TIP3    H160907   0.420   5.214  14.510  0.4677 -0.2423  0.4809
13164TIP3    H260908   0.351   5.291  14.621 -0.9547  0.2916 -0.7408
13165TIP3   OH260909   5.975   5.014  16.496 -0.3365  0.1909 -0.1489
13165TIP3    H160910   6.006   5.088  16.549 -0.0705 -0.6467  0.9268
13165TIP3    H260911   6.053   4.958  16.487 -1.4192 -2.0158  2.6904
13166TIP3   OH260912   2.583   5.654  13.754  0.2604  0.1029  0.6069
13166TIP3    H160913   2.634   5.620  13.828 -0.3224 -2.7286 -0.1744
13166TIP3    H260914   2.547   5.737  13.786  2.5564  0.5395  2.3530
13167TIP3   OH260915   1.752   0.251  15.071  0.6161 -0.1727 -0.2399
13167TIP3    H160916   1.848   0.252  15.070  0.6385 -0.4328  1.0421
13167TIP3    H260917   1.728   0.343  15.085  0.6976 -0.2520  0.4322
13168TIP3   OH260918   6.358   2.943  14.474  0.0275  0.3521 -0.0651
13168TIP3    H160919   6.372   2.979  14.561  2.3414 -0.6556  0.0639
13168TIP3    H260920   6.442   2.902  14.451 -1.1863 -1.3464 -1.8506
13169TIP3   OH260921   3.090   5.523   4.892 -0.4568  0.8735 -0.2457
13169TIP3    H160922   3.157   5.466   4.854 -0.7564  0.8615 -0.7619
13169TIP3    H260923   3.105   5.608   4.851 -2.2742  0.3159 -2.2577
13170TIP3   OH260924   5.465   6.688  14.577 -0.4848  0.3051 -0.4763
13170TIP3    H160925   5.493   6.620  14.517 -0.1670  0.6959 -0.7778
13170TIP3    H260926   5.532   6.687  14.646 -1.6875 -1.2218  0.7407
13171TIP3   OH260927   1.182   0.427   2.133 -0.0694  0.0128  0.2746
13171TIP3    H160928   1.163   0.334   2.122 -2.3025  0.2224  1.5899
13171TIP3    H260929   1.158   0.445   2.224 -1.4334  2.2269 -0.4541
13172TIP3   OH260930   4.470   0.078  14.226  0.0552 -0.1947  0.2273
13172TIP3    H160931   4.509   0.120  14.149  1.0963  1.4040  1.5686
13172TIP3    H260932   4.388   0.125  14.240 -1.3201 -1.9982 -1.1822
13173TIP3   OH260933   5.497   6.379  12.769  0.1835  0.5729 -0.2926
13173TIP3    H160934   5.488   6.367  12.864 -0.4967 -0.9418 -0.5294
13173TIP3    H260935   5.526   6.470  12.760 -2.0114  1.5392  1.2544
13174TIP3   OH260936   5.342   3.805   0.087  0.2259  0.0347 -0.2568
13174TIP3    H160937   5.314   3.819  -0.004  1.9769  0.5703 -0.7531
13174TIP3    H260938   5.320   3.888   0.131  1.1790  0.5413 -0.6981
13175TIP3   OH260939   6.573   4.898  16.245 -0.2757  0.4339  0.1910
13175TIP3    H160940   6.613   4.954  16.178  0.9317  0.1410  0.6538
13175TIP3    H260941   6.485   4.934  16.257 -0.2905  0.8817 -1.0911
13176TIP3   OH260942   5.383   0.175  12.268  0.4228 -0.4382  0.4174
13176TIP3    H160943   5.367   0.260  12.309 -0.3074 -0.7142  0.7187
13176TIP3    H260944   5.405   0.195  12.178 -3.0241 -0.0406 -0.4785
13177TIP3   OH260945   1.035   6.521  16.703  0.2802  0.2761  0.1473
13177TIP3    H160946   1.099   6.558  16.642  0.7351 -0.3464  0.2300
13177TIP3    H260947   1.087   6.466  16.762  0.0389  1.9058  1.9722
13178TIP3   OH260948   3.450   5.958   4.620  0.0809 -0.0844  0.7943
13178TIP3    H160949   3.541   5.948   4.592 -0.7771  0.8651 -2.9272
13178TIP3    H260950   3.441   6.051   4.640 -0.4604  0.2721 -0.9064
13179TIP3   OH260951   0.194   2.159  15.312 -0.3998 -0.6815  0.3208
13179TIP3    H160952   0.288   2.162  15.294 -0.9027  1.3311 -2.6793
13179TIP3    H260953   0.186   2.181  15.405  2.0746 -1.1996  0.7164
13180TIP3   OH260954   2.619   1.594  14.763  0.5680 -0.7652 -0.2972
13180TIP3    H160955   2.637   1.584  14.857  0.4745 -1.3445 -0.3372
13180TIP3    H260956   2.687   1.654  14.732  0.0947  0.1132  0.3019
13181TIP3   OH260957   0.417   3.597   4.752 -0.2102 -0.7263  0.4099
13181TIP3    H160958   0.428   3.540   4.828 -0.3632 -1.5924 -0.1880
13181TIP3    H260959   0.451   3.545   4.679  2.8861  1.2598  0.2753
13182TIP3   OH260960   1.603   3.938  14.210 -0.0731  0.3625  0.3881
13182TIP3    H160961   1.672   3.871  14.205  0.8452  0.9717  3.0597
13182TIP3    H260962   1.526   3.891  14.240 -0.2812  0.0483 -0.5831
13183TIP3   OH260963   4.306   3.072   2.870  0.1844 -0.0961 -0.0350
13183TIP3    H160964   4.226   3.064   2.922 -0.3037  0.0411 -0.7429
13183TIP3    H260965   4.286   3.141   2.806  0.3717 -0.9949 -1.0890
13184TIP3   OH260966   0.650   6.158   5.349  0.4298  0.5312  0.4995
13184TIP3    H160967   0.584   6.101   5.387 -1.6628  1.9699 -0.8046
13184TIP3    H260968   0.713   6.099   5.308 -1.8916 -0.9248 -1.2168
13185TIP3   OH260969   6.524   5.660  11.832 -0.0473 -0.0722 -0.4255
13185TIP3    H160970   6.519   5.646  11.927  1.6104  2.0009  0.0592
13185TIP3    H260971   6.508   5.574  11.794 -0.4217 -1.0365  1.7547
13186TIP3   OH260972   6.306   5.068   3.307  0.3775 -0.4951  0.0146
13186TIP3    H160973   6.313   4.978   3.275 -0.7142  0.1762 -2.3588
13186TIP3    H260974   6.392   5.107   3.290  0.2288 -0.5433 -0.9087
13187TIP3   OH260975   3.719   6.200  11.491  0.5275 -0.5328  0.0576
13187TIP3    H160976   3.705   6.295  11.483 -0.0225 -0.6765 -0.8484
13187TIP3    H260977   3.670   6.176  11.570  1.5360  0.0848  0.9079
13188TIP3   OH260978   4.209   1.751  16.798  0.5865 -0.2338  1.2396
13188TIP3    H160979   4.205   1.845  16.815 -1.1529  0.2052 -1.0103
13188TIP3    H260980   4.125   1.717  16.830 -0.7348 -0.1550 -1.7693
13189TIP3   OH260981   6.021   6.305  11.392  0.8405  0.0053  0.4321
13189TIP3    H160982   6.083   6.235  11.373  0.8173  0.3774 -1.1288
13189TIP3    H260983   5.936   6.270  11.363  0.5414  0.0450  1.2265
13190TIP3   OH260984   4.315   6.474  14.693  0.4988 -0.5750 -0.1075
13190TIP3    H160985   4.402   6.509  14.673  0.6049 -1.1138 -0.6136
13190TIP3    H260986   4.329   6.381  14.708 -0.2010 -0.9704 -1.7300
13191TIP3   OH260987   3.497   2.721   3.978 -0.1284 -0.0852 -0.6298
13191TIP3    H160988   3.542   2.650   3.932 -0.3985  0.0645 -1.1276
13191TIP3    H260989   3.563   2.791   3.983  0.0498 -0.2684 -0.3792
13192TIP3   OH260990   4.152   4.359   5.583  0.0348 -0.9418  0.0234
13192TIP3    H160991   4.179   4.268   5.595 -0.4029 -1.4414 -2.2997
13192TIP3    H260992   4.057   4.356   5.584 -0.0046 -0.7445 -1.2972
13193TIP3   OH260993   5.687   4.784  15.248  0.0231 -0.1722 -0.0792
13193TIP3    H160994   5.608   4.772  15.300 -0.1401 -1.5338 -0.5892
13193TIP3    H260995   5.733   4.700  15.256  0.3055 -0.1853 -1.5922
13194TIP3   OH260996   2.065   6.336   0.481 -0.1736  0.3440 -0.2016
13194TIP3    H160997   2.043   6.247   0.454 -1.4330  0.8126 -0.8247
13194TIP3    H260998   2.138   6.361   0.425 -0.8088  0.2281 -1.1043
13195TIP3   OH260999   2.098   2.993   2.557 -0.5075  0.3712 -0.4997
13195TIP3    H161000   2.035   2.963   2.492 -1.8137 -0.4098  1.0342
13195TIP3    H261001   2.046   3.040   2.622  0.8618  1.8319 -0.4020
13196TIP3   OH261002   6.371   4.417   3.735 -0.7587  0.2124  0.6782
13196TIP3    H161003   6.330   4.335   3.763  0.9202 -0.8446  0.1244
13196TIP3    H261004   6.449   4.391   3.686 -1.3898  2.0896 -1.5274
13197TIP3   OH261005   2.230   1.597   1.242 -0.0296 -0.0631  0.1488
13197TIP3    H161006   2.146   1.598   1.287  0.3211  1.5418  0.8346
13197TIP3    H261007   2.215   1.650   1.163 -0.1742 -1.4225 -0.7656
13198TIP3   OH261008   0.291   0.440   5.282 -0.6155  0.0053 -0.1474
13198TIP3    H161009   0.362   0.492   5.321 -0.5745  0.2880 -0.5995
13198TIP3    H261010   0.246   0.402   5.357  0.8070 -1.2321  0.1343
13199TIP3   OH261011   0.135   3.112   5.511 -0.1371  0.1317  0.3317
13199TIP3    H161012   0.205   3.051   5.490 -0.9473 -2.6304  4.4577
13199TIP3    H261013   0.178   3.180   5.564 -0.1065  0.2364  0.1754
13200TIP3   OH261014   3.901   0.233  16.865  0.5613 -0.6201 -0.1372
13200TIP3    H161015   3.978   0.255  16.813  0.1696 -3.7922 -2.3097
13200TIP3    H261016   3.827   0.260  16.811 -0.0266  2.1464  1.8179
13201TIP3   OH261017   5.376   0.700   1.352  0.3066  0.4369  0.7767
13201TIP3    H161018   5.445   0.698   1.286 -1.5649  0.3783 -1.3022
13201TIP3    H261019   5.396   0.627   1.410  1.7690  0.2084  0.0308
13202TIP3   OH261020   3.279   1.265  16.790  0.0560 -0.1806 -0.4281
13202TIP3    H161021   3.285   1.339  16.850  0.1918 -0.3098 -0.2816
13202TIP3    H261022   3.207   1.287  16.731 -0.1534 -0.1044 -0.1448
13203TIP3   OH261023   0.341   2.962   0.734 -0.4707 -0.0093  0.0695
13203TIP3    H161024   0.328   2.958   0.829 -0.4132 -0.1790  0.0708
13203TIP3    H261025   0.254   2.943   0.697 -0.8888  1.6898  0.0942
13204TIP3   OH261026   4.529   6.484   3.129 -0.4575  0.4492 -0.6344
13204TIP3    H161027   4.603   6.534   3.094 -0.4077  0.0372 -1.1266
13204TIP3    H261028   4.532   6.400   3.082  0.3710 -0.6255  1.2379
13205TIP3   OH261029   1.240   1.529  16.317  0.1479 -0.0609 -0.0040
13205TIP3    H161030   1.228   1.538  16.222 -0.4344 -0.6110  0.0099
13205TIP3    H261031   1.319   1.580  16.336  0.6110 -0.4270 -0.8768
13206TIP3   OH261032   2.322   1.203   5.448  0.3070 -0.1239 -0.0472
13206TIP3    H161033   2.334   1.292   5.482  2.0588 -0.6406  0.8203
13206TIP3    H261034   2.362   1.206   5.361  0.0074  0.0222 -0.1833
13207TIP3   OH261035   2.359   5.627   4.976  0.6622  0.1492  0.7645
13207TIP3    H161036   2.442   5.647   5.019  1.6766 -0.2659 -0.8777
13207TIP3    H261037   2.384   5.568   4.904 -0.9112  0.8799 -0.4259
13208TIP3   OH261038   6.233   5.739  13.406 -0.0732 -0.0048  0.2942
13208TIP3    H161039   6.263   5.703  13.323 -1.2659 -0.6245  0.1098
13208TIP3    H261040   6.142   5.763  13.390 -0.8998 -1.8295  1.9087
13209TIP3   OH261041   5.566   4.035  14.852 -0.2192 -0.3570  0.1669
13209TIP3    H161042   5.660   4.056  14.844 -0.5026  1.8866  1.6009
13209TIP3    H261043   5.524   4.089  14.786 -0.6510  0.4073  1.0458
13210TIP3   OH261044   4.902   4.645  10.128 -0.6583  0.4695 -0.6716
13210TIP3    H161045   4.824   4.702  10.129 -0.6830  0.4493  0.8783
13210TIP3    H261046   4.972   4.700  10.164 -0.2180  0.1128 -0.9722
13211TIP3   OH261047   4.861   0.230  12.476 -0.0968 -0.8810  0.6845
13211TIP3    H161048   4.767   0.213  12.473 -0.3906  0.6878 -1.2167
13211TIP3    H261049   4.885   0.216  12.567 -2.7346  1.4084  1.8791
13212TIP3   OH261050   4.349   0.083  15.481  0.1855 -0.1383  0.1747
13212TIP3    H161051   4.289   0.115  15.548  1.5915  0.0249  1.4289
13212TIP3    H261052   4.330  -0.011  15.476 -0.6899  0.0427 -0.0160
13213TIP3   OH261053   1.848   1.896   3.152 -0.3993  0.0394 -0.0159
13213TIP3    H161054   1.867   1.884   3.245 -2.1019  1.4785  0.5781
13213TIP3    H261055   1.797   1.818   3.128 -1.1136  0.2842  0.6506
13214TIP3   OH261056   4.013   0.557  14.750 -0.0916  0.1627 -0.5328
13214TIP3    H161057   4.037   0.637  14.796  0.1672 -0.3445  0.2332
13214TIP3    H261058   3.964   0.506  14.814  0.0253 -0.4341 -0.9102
13215TIP3   OH261059   0.431   2.386  12.192  0.2157  0.1184  0.4122
13215TIP3    H161060   0.344   2.376  12.231 -0.1178  0.4866 -0.2108
13215TIP3    H261061   0.415   2.433  12.110  0.7466 -1.6904 -0.7690
13216TIP3   OH261062   1.225   2.827   0.821  0.4068  0.5053 -0.9407
13216TIP3    H161063   1.180   2.901   0.861  0.8654  0.1670  0.2274
13216TIP3    H261064   1.293   2.803   0.884 -0.8636 -2.0707 -0.4097
13217TIP3   OH261065   1.773   6.500   3.691  0.0188  0.7948  0.0788
13217TIP3    H161066   1.797   6.519   3.781  2.5959 -1.6073  0.0514
13217TIP3    H261067   1.690   6.546   3.678 -1.2369  0.0820  4.1021
13218TIP3   OH261068   6.787   5.291   1.419 -0.1353 -0.0865  0.5626
13218TIP3    H161069   6.721   5.354   1.450  1.3175  0.7717  2.0825
13218TIP3    H261070   6.831   5.261   1.499  1.7550 -0.1292 -0.4372
13219TIP3   OH261071   0.451   2.077  12.750  0.4124 -0.2525 -0.6363
13219TIP3    H161072   0.465   2.149  12.690 -2.1328  1.2519  0.4055
13219TIP3    H261073   0.516   2.091  12.820  2.9494 -1.6557 -2.5401
13220TIP3   OH261074   0.072   5.514  13.734  0.2368  1.0471 -0.7085
13220TIP3    H161075   0.161   5.525  13.769 -0.5809  0.9522  1.5512
13220TIP3    H261076   0.056   5.595  13.685  0.6308  2.3036  1.1255
13221TIP3   OH261077   3.308   5.326   3.097  0.6932 -0.6769  0.9262
13221TIP3    H161078   3.386   5.358   3.143  0.0542 -0.1469  1.6572
13221TIP3    H261079   3.241   5.320   3.165  0.0459 -0.9707  0.2683
13222TIP3   OH261080   5.936   5.087  12.960  0.0351  0.0878 -0.3045
13222TIP3    H161081   5.956   5.123  12.874 -1.2323  1.5974 -0.0319
13222TIP3    H261082   5.872   5.018  12.943 -0.3109  0.4703 -0.5830
13223TIP3   OH261083   0.370   6.239   1.854 -0.3318 -0.2052 -0.5510
13223TIP3    H161084   0.426   6.185   1.799  2.9962  1.9851  0.3832
13223TIP3    H261085   0.354   6.186   1.932  3.9435  0.3300  0.9320
13224TIP3   OH261086   2.511   2.806  11.390  0.0267 -0.2342 -0.0728
13224TIP3    H161087   2.561   2.746  11.446 -1.7553 -1.4192  0.3211
13224TIP3    H261088   2.454   2.853  11.451 -0.9240 -0.5183 -0.7274
13225TIP3   OH261089   1.672   3.080   3.167 -0.0150 -0.0030  0.4264
13225TIP3    H161090   1.689   2.993   3.204  0.8895  0.5921  1.4884
13225TIP3    H261091   1.753   3.103   3.121  0.9375  1.4342  2.6230
13226TIP3   OH261092   6.266   0.489  16.760  0.1601 -0.0939 -0.3513
13226TIP3    H161093   6.287   0.582  16.756 -2.0327  0.4747  0.0460
13226TIP3    H261094   6.294   0.461  16.847 -0.7649  0.6527  0.1984
13227TIP3   OH261095   4.781   0.127  14.036 -0.3685  0.1107  0.3501
13227TIP3    H161096   4.696   0.166  14.056 -0.5686  1.0966 -2.0619
13227TIP3    H261097   4.836   0.151  14.110 -2.2956 -1.1425  2.3149
13228TIP3   OH261098   2.168   4.033   0.908 -0.2138  0.3615  0.0223
13228TIP3    H161099   2.233   4.062   0.972  1.1113  1.3605 -1.6849
13228TIP3    H261100   2.197   4.072   0.825 -2.7690  0.5007 -0.8992
13229TIP3   OH261101   0.576   5.751  13.863 -0.3240  0.2818 -0.5694
13229TIP3    H161102   0.619   5.669  13.841  2.3867  1.6869 -0.9150
13229TIP3    H261103   0.608   5.771  13.951 -0.6175  1.1577 -0.6554
13230TIP3   OH261104   5.392   6.031  12.015  0.4914  0.0379 -0.0709
13230TIP3    H161105   5.464   6.068  11.964  0.5232  0.9894  0.6341
13230TIP3    H261106   5.430   6.017  12.102  0.1751 -0.6545 -0.0453
13231TIP3   OH261107   2.030   3.564  13.010  0.0865 -0.4113 -0.0616
13231TIP3    H161108   2.073   3.537  13.091  0.1687 -2.1532 -0.6361
13231TIP3    H261109   2.076   3.643  12.983  0.8297 -0.4740  0.9709
13232TIP3   OH261110   4.307   3.723   3.999 -0.6568  0.4965 -0.0237
13232TIP3    H161111   4.286   3.736   3.906  0.9006 -4.1804 -1.3546
13232TIP3    H261112   4.239   3.664   4.031  1.1090 -1.4205  0.4143
13233TIP3   OH261113   4.860   4.674  13.169  0.2256  0.6342  0.1865
13233TIP3    H161114   4.787   4.651  13.227  0.0939  0.6764  0.0400
13233TIP3    H261115   4.854   4.770  13.160 -0.8883  0.4735 -1.3501
13234TIP3   OH261116   0.198   1.990  16.571 -0.8705 -0.0554 -0.1352
13234TIP3    H161117   0.191   1.917  16.509  0.4905 -0.2022 -0.1456
13234TIP3    H261118   0.152   1.960  16.649  2.9234 -2.6555  1.3802
13235TIP3   OH261119   5.451   5.332   5.354  0.6794 -0.4763 -0.9321
13235TIP3    H161120   5.435   5.308   5.446  1.2979  0.4697 -0.5614
13235TIP3    H261121   5.381   5.289   5.306 -0.4753  0.1211  0.1419
13236TIP3   OH261122   6.437   3.437  12.140 -0.4030 -0.6469  0.1999
13236TIP3    H161123   6.519   3.483  12.124 -1.0438  0.0007 -1.4781
13236TIP3    H261124   6.390   3.491  12.203 -0.5356  0.2955 -0.6718
13237TIP3   OH261125   3.860   5.000   3.767  0.2617  0.6178  0.1989
13237TIP3    H161126   3.891   5.085   3.736  2.5188 -0.2135 -0.0017
13237TIP3    H261127   3.783   5.021   3.820 -0.0726  2.6281 -0.9649
13238TIP3   OH261128   3.503   3.946  14.905  0.0912  0.0698 -0.1174
13238TIP3    H161129   3.475   3.887  14.975 -0.0983 -1.9867 -1.8028
13238TIP3    H261130   3.424   3.993  14.879 -0.0480  0.1113  0.3767
13239TIP3   OH261131   1.019   4.759  16.517 -0.2284 -0.2032 -0.1372
13239TIP3    H161132   1.056   4.672  16.506  1.0135  0.5260 -2.0993
13239TIP3    H261133   0.924   4.745  16.514 -0.0435 -1.4737 -0.6017
13240TIP3   OH261134   6.146   5.236  16.337  0.4402  0.0976 -0.3010
13240TIP3    H161135   6.138   5.160  16.280 -0.1269 -0.1111  0.0429
13240TIP3    H261136   6.118   5.310  16.282  0.4613 -0.0199 -0.4698
13241TIP3   OH261137   5.099   4.603   5.957 -0.2717 -0.1729 -0.1847
13241TIP3    H161138   5.048   4.523   5.974 -0.3976  0.3162  2.0551
13241TIP3    H261139   5.184   4.586   5.997 -0.6190  1.1224  1.2208
13242TIP3   OH261140   1.193   4.517   0.227  0.0863 -0.1810 -0.4955
13242TIP3    H161141   1.272   4.570   0.239 -0.1373  0.2170 -0.7615
13242TIP3    H261142   1.121   4.576   0.246 -0.1419 -1.2662  2.5433
13243TIP3   OH261143   3.419   2.936  15.801 -0.2013 -0.5572 -0.4920
13243TIP3    H161144   3.476   2.874  15.845 -1.4297  0.1853  2.3885
13243TIP3    H261145   3.402   3.004  15.866 -1.1929  1.3362 -2.5624
13244TIP3   OH261146   4.252   4.006   0.052 -0.3974 -0.2996  0.6116
13244TIP3    H161147   4.280   4.096   0.033 -2.0826 -0.0189 -0.8312
13244TIP3    H261148   4.168   4.017   0.096 -1.4080 -1.1493 -1.0124
13245TIP3   OH261149   2.844   3.802  12.009 -0.7095 -0.0902  0.0514
13245TIP3    H161150   2.864   3.815  12.102 -0.3942 -0.2863  0.0100
13245TIP3    H261151   2.751   3.781  12.008 -0.6585 -0.3332  0.3437
13246TIP3   OH261152   3.332   2.810   5.466 -0.1988  0.5376 -0.5823
13246TIP3    H161153   3.412   2.796   5.517  0.0163  2.4318 -0.3416
13246TIP3    H261154   3.261   2.789   5.526  0.0675 -0.9750 -0.7402
13247TIP3   OH261155   0.950   5.286   4.106  0.0250  0.3722 -0.1391
13247TIP3    H161156   1.016   5.221   4.128  0.2211  0.1900 -1.2172
13247TIP3    H261157   0.969   5.310   4.015 -1.8978 -0.3242 -0.7881
13248TIP3   OH261158   3.739   2.004  12.727  0.5499 -0.3071 -0.3428
13248TIP3    H161159   3.644   1.995  12.738  0.6974 -0.9494  0.5157
13248TIP3    H261160   3.750   2.043  12.640 -0.6251  2.6005  0.6852
13249TIP3   OH261161   3.607   5.964  12.409 -0.4650 -0.2921  0.2602
13249TIP3    H161162   3.690   5.976  12.361  0.1686 -0.3561  1.3067
13249TIP3    H261163   3.582   5.873  12.390  1.1024 -1.1661  1.9934
13250TIP3   OH261164   3.229   6.731  11.439  0.3367 -0.4820  0.4604
13250TIP3    H161165   3.300   6.764  11.384 -0.1125  0.4896  0.4349
13250TIP3    H261166   3.245   6.770  11.525 -1.1983  1.3469 -0.0129
13251TIP3   OH261167   0.972   1.456  16.374 -0.1218  0.1241 -0.3378
13251TIP3    H161168   0.947   1.389  16.309 -0.5142 -1.5544  1.4592
13251TIP3    H261169   1.062   1.479  16.350 -0.5772  0.2821 -2.0455
13252TIP3   OH261170   1.302   5.120   6.400  0.3377  0.6324 -0.0115
13252TIP3    H161171   1.275   5.178   6.329  1.7613 -0.3797 -1.4628
13252TIP3    H261172   1.328   5.180   6.470  1.1987  1.7702 -1.2414
13253TIP3   OH261173   5.435   5.608  13.779  0.0502  0.2799 -0.3872
13253TIP3    H161174   5.372   5.536  13.784 -3.0165  2.8169  1.0265
13253TIP3    H261175   5.440   5.628  13.686 -1.1994 -0.0400 -0.5484
13254TIP3   OH261176   6.431   3.882   3.680  0.5325 -0.3918 -0.4780
13254TIP3    H161177   6.491   3.950   3.711  1.7157  0.1851 -3.7097
13254TIP3    H261178   6.350   3.929   3.658  0.6086 -0.3856 -0.7405
13255TIP3   OH261179   0.655   5.764   0.543 -0.3827 -0.4196  0.4030
13255TIP3    H161180   0.667   5.682   0.591 -0.9769 -0.9475 -0.3454
13255TIP3    H261181   0.743   5.802   0.539  0.2388 -1.9101 -0.8397
13256TIP3   OH261182   5.519   4.845  11.851 -0.8247 -0.5769  0.4039
13256TIP3    H161183   5.551   4.874  11.936 -0.8394 -0.2524  0.3025
13256TIP3    H261184   5.576   4.772  11.827 -0.8175 -0.6651  0.6877
13257TIP3   OH261185   1.044   1.297  15.340 -0.7178 -0.6215  0.4765
13257TIP3    H161186   1.076   1.207  15.333 -0.8566 -0.5587 -1.6007
13257TIP3    H261187   1.044   1.329  15.250  1.6964  2.3253  1.3475
13258TIP3   OH261188   0.506   4.284   3.708 -0.0708  0.5736  0.7119
13258TIP3    H161189   0.424   4.328   3.683 -0.1143  0.3718  0.4871
13258TIP3    H261190   0.486   4.243   3.792 -0.2457  0.4149  0.5963
13259TIP3   OH261191   2.582   6.399   1.365  0.5019 -0.0698 -0.0083
13259TIP3    H161192   2.606   6.491   1.369  3.7609 -0.8045  0.3469
13259TIP3    H261193   2.530   6.384   1.443 -0.5066  1.5410 -0.3406
13260TIP3   OH261194   4.038   2.910   1.743 -0.4330  0.0226  0.4368
13260TIP3    H161195   3.953   2.865   1.741 -1.1710  1.3316 -2.0334
13260TIP3    H261196   4.016   3.003   1.735  1.2221  0.3919 -0.2811
13261TIP3   OH261197   6.187   1.718  13.981 -0.3271  0.7109 -0.0420
13261TIP3    H161198   6.184   1.712  14.076 -1.0457 -0.2921 -0.1175
13261TIP3    H261199   6.125   1.788  13.959 -4.3645 -2.4888 -0.0193
13262TIP3   OH261200   2.253   6.395   4.135  0.3871  0.2879 -0.3638
13262TIP3    H161201   2.186   6.327   4.146 -0.1554  0.7514 -0.7609
13262TIP3    H261202   2.204   6.477   4.129  1.1472  1.0570  2.5369
13263TIP3   OH261203   5.418   5.883  17.010 -0.2123 -0.2985  0.1064
13263TIP3    H161204   5.367   5.832  16.946  1.2732 -0.5780 -0.9241
13263TIP3    H261205   5.375   5.968  17.012  0.1109 -0.0198 -1.8958
13264TIP3   OH261206   2.964   4.170   4.424  0.0697 -0.2082  0.3790
13264TIP3    H161207   3.017   4.093   4.404  0.8041  0.3558  0.1066
13264TIP3    H261208   3.022   4.245   4.407 -0.5144  0.3988  0.9704
13265TIP3   OH261209   6.108   5.131   4.681 -0.5249 -0.2399  0.3880
13265TIP3    H161210   6.094   5.209   4.627  1.1071  1.4879  2.2839
13265TIP3    H261211   6.062   5.061   4.635 -2.2203  1.8577 -1.3213
13266TIP3   OH261212   2.078   6.771   4.759  0.2792 -0.0704  0.7245
13266TIP3    H161213   2.152   6.768   4.819  0.3627 -0.2669  0.6116
13266TIP3    H261214   2.048   6.680   4.754 -0.3173  0.0852  1.2044
13267TIP3   OH261215   0.065   6.482  16.689 -0.3193  0.6860  0.2330
13267TIP3    H161216   0.030   6.526  16.611  0.1208 -0.0581 -0.4070
13267TIP3    H261217   0.144   6.438  16.658 -1.6347 -2.0006  0.3828
13268TIP3   OH261218   0.855   6.244  14.711  0.1687  0.1024  0.8946
13268TIP3    H161219   0.793   6.306  14.750 -2.1447 -1.3372 -0.2731
13268TIP3    H261220   0.839   6.162  14.758 -0.8930 -1.0141 -1.2849
13269TIP3   OH261221   2.966   0.639  16.484  1.0825  0.0656  0.5188
13269TIP3    H161222   2.937   0.549  16.477 -1.0079  0.8100 -1.8386
13269TIP3    H261223   2.920   0.674  16.561  2.3818 -0.9476  1.8187
13270TIP3   OH261224   5.791   6.098   4.024 -0.6716  0.5906  0.1857
13270TIP3    H161225   5.798   6.132   4.113 -0.1895 -1.1016  0.8347
13270TIP3    H261226   5.854   6.149   3.973 -1.2049  1.8121  0.7192
13271TIP3   OH261227   6.536   0.513  14.679  0.0416  0.3830  0.3878
13271TIP3    H161228   6.580   0.532  14.761  0.5836  0.1856  0.1456
13271TIP3    H261229   6.556   0.588  14.623  0.1051  0.2713  0.2610
13272TIP3   OH261230   0.818   4.512   2.151 -0.0542 -0.1027  0.0032
13272TIP3    H161231   0.793   4.437   2.096 -2.0850 -0.1220  0.8819
13272TIP3    H261232   0.831   4.583   2.088 -2.4890 -0.0776 -0.5914
13273TIP3   OH261233   1.842   5.705  13.051 -0.7740 -0.0050 -0.5111
13273TIP3    H161234   1.841   5.730  12.958 -2.1700  1.0613 -0.2348
13273TIP3    H261235   1.913   5.755  13.089 -0.5332 -0.0491 -0.8970
13274TIP3   OH261236   3.912   2.468   3.975 -0.2880  0.1998 -0.3329
13274TIP3    H161237   4.005   2.445   3.974 -0.2319  0.4280 -0.6499
13274TIP3    H261238   3.866   2.385   3.973 -0.0978  0.1023 -2.4303
13275TIP3   OH261239   5.889   5.108  16.967 -0.6253  0.3645 -0.3254
13275TIP3    H161240   5.831   5.143  16.900  0.2071  1.5891 -0.4302
13275TIP3    H261241   5.848   5.132  17.050 -1.9857 -1.6951 -0.3261
13276TIP3   OH261242   3.254   5.527  12.312 -0.3345  0.3523 -0.2382
13276TIP3    H161243   3.234   5.574  12.231  0.4297  1.0011 -0.0587
13276TIP3    H261244   3.265   5.436  12.285  1.3368  0.7822 -1.1061
13277TIP3   OH261245   0.352   4.521  16.600  0.4336  0.4532 -0.2734
13277TIP3    H161246   0.339   4.611  16.572 -0.7375 -0.4879 -3.0966
13277TIP3    H261247   0.295   4.512  16.677  0.4076  2.0482 -0.0741
13278TIP3   OH261248   5.058   2.410  15.845  0.1758 -0.2492 -0.0028
13278TIP3    H161249   5.070   2.449  15.758 -0.7953 -0.4628 -0.2509
13278TIP3    H261250   4.979   2.453  15.879  0.9616  0.3766  1.1011
13279TIP3   OH261251   5.434   1.059  13.062 -0.4227 -0.2287 -0.2077
13279TIP3    H161252   5.476   1.141  13.035 -0.0433 -0.4323 -0.2513
13279TIP3    H261253   5.493   0.991  13.030 -0.2847 -0.4924  0.5951
13280TIP3   OH261254   3.527   6.466   0.912  0.3238 -0.2380  0.0188
13280TIP3    H161255   3.453   6.410   0.890 -0.4079  0.3398  0.8998
13280TIP3    H261256   3.598   6.435   0.857 -1.1693  0.6975 -2.5872
13281TIP3   OH261257   1.762   4.110  14.002  0.1005  0.2773 -0.2465
13281TIP3    H161258   1.700   4.075  14.066  2.3751 -0.9531  1.4234
13281TIP3    H261259   1.742   4.204  13.999 -0.1887  0.3523  2.1940
13282TIP3   OH261260   0.189   3.490   4.521 -0.2856  0.2032 -0.4622
13282TIP3    H161261   0.249   3.549   4.475 -0.7172  0.8784 -0.1638
13282TIP3    H261262   0.104   3.532   4.515 -0.7010 -0.6344 -0.6660
13283TIP3   OH261263   0.338   4.893  15.967 -0.4482 -0.5185  0.1850
13283TIP3    H161264   0.284   4.971  15.981  0.1732  0.2333 -1.3684
13283TIP3    H261265   0.426   4.920  15.992 -0.2522 -0.7785 -0.2294
13284TIP3   OH261266   0.391   0.131  12.710 -0.0051  0.2563 -0.5461
13284TIP3    H161267   0.477   0.088  12.707 -0.1139 -0.0943  0.7139
13284TIP3    H261268   0.330   0.060  12.730 -0.4304  0.7121 -0.2112
13285TIP3   OH261269   2.199   4.106   1.865 -0.0576 -0.4121 -0.6394
13285TIP3    H161270   2.168   4.091   1.776 -0.4624  0.5063 -0.6681
13285TIP3    H261271   2.290   4.078   1.864 -0.6754 -2.5927 -0.7257
13286TIP3   OH261272   3.494   4.908   4.322  0.2680  0.0309  0.4388
13286TIP3    H161273   3.502   4.903   4.227 -0.0234  0.0810  0.4098
13286TIP3    H261274   3.508   4.818   4.352  0.2470 -0.0053  0.3406
13287TIP3   OH261275   2.404   3.679   1.773 -0.6685 -0.1207 -0.2943
13287TIP3    H161276   2.421   3.601   1.827  0.3535  0.5157  0.3258
13287TIP3    H261277   2.461   3.668   1.697  0.9347  0.9250  0.7109
13288TIP3   OH261278   1.295   1.721   3.724 -0.1002  0.4242 -0.2427
13288TIP3    H161279   1.265   1.789   3.784 -0.3049  1.2432 -1.2527
13288TIP3    H261280   1.262   1.639   3.762  0.9253  0.7620  1.4682
13289TIP3   OH261281   6.535   4.725  15.953 -0.6471 -0.2559 -0.0782
13289TIP3    H161282   6.630   4.727  15.965 -0.5842 -1.3422 -0.2855
13289TIP3    H261283   6.517   4.637  15.920 -1.6318  0.2514 -0.9310
13290TIP3   OH261284   6.509   3.143  14.701  0.0197 -0.2490 -0.3483
13290TIP3    H161285   6.592   3.185  14.722 -0.2925  0.5423 -0.6869
13290TIP3    H261286   6.499   3.076  14.768 -1.2469  2.5768  2.5152
13291TIP3   OH261287   4.542   1.901   5.968  0.4550 -0.3015  0.4379
13291TIP3    H161288   4.626   1.935   5.937  1.8833 -2.2683  1.8943
13291TIP3    H261289   4.514   1.963   6.036  0.5956  0.4767 -0.2019
13292TIP3   OH261290   1.128   3.054   1.202 -0.3411  0.1431  0.0955
13292TIP3    H161291   1.036   3.066   1.177 -0.3678 -0.6640 -0.2214
13292TIP3    H261292   1.159   3.142   1.224 -1.0787  0.4754 -0.1785
13293TIP3   OH261293   2.930   3.346   4.819  0.6904 -0.7459  0.0974
13293TIP3    H161294   2.965   3.268   4.776  0.7081  0.4648 -2.1936
13293TIP3    H261295   2.886   3.395   4.749 -0.6123  0.5939  1.7642
13294TIP3   OH261296   1.998   4.776  13.434 -0.4355  0.1164  0.3545
13294TIP3    H161297   2.023   4.813  13.518 -1.3284  2.4795 -0.3474
13294TIP3    H261298   2.070   4.797  13.375 -0.1062 -0.9642  0.3389
13295TIP3   OH261299   6.135   1.789  11.594  0.4008  0.0214  0.4218
13295TIP3    H161300   6.118   1.702  11.630  0.5858  0.6601  2.1252
13295TIP3    H261301   6.178   1.837  11.665 -1.4022  2.1073  0.2022
13296TIP3   OH261302   0.984   0.395  16.822  0.0683 -0.2959 -0.2587
13296TIP3    H161303   1.061   0.416  16.875 -0.7151 -1.4813  1.4474
13296TIP3    H261304   0.916   0.372  16.886 -1.4495 -0.1376 -1.7422
13297TIP3   OH261305   4.340   4.638   5.463 -0.4766 -0.0037 -0.7020
13297TIP3    H161306   4.374   4.726   5.479  1.0788 -0.5016 -1.1323
13297TIP3    H261307   4.315   4.606   5.550 -2.1193  1.2391 -0.6636
13298TIP3   OH261308   0.962   0.115   2.526  0.5697  0.4069  0.1216
13298TIP3    H161309   1.025   0.070   2.582  0.9560  0.7673 -0.0221
13298TIP3    H261310   0.900   0.046   2.499  1.7400 -0.2686 -0.9401
13299TIP3   OH261311   0.250   2.368  15.743  0.1523  0.1118 -0.5531
13299TIP3    H161312   0.208   2.313  15.809 -0.7141  1.7377  0.2838
13299TIP3    H261313   0.282   2.305  15.678 -2.3084 -1.3155 -0.5171
13300TIP3   OH261314   1.942   3.948  15.247  0.2399  0.0913  0.6591
13300TIP3    H161315   2.035   3.928  15.239  0.0014 -1.4829  1.3411
13300TIP3    H261316   1.923   4.004  15.173  1.6204  0.0060  0.2076
13301TIP3   OH261317   3.253   1.531  17.075  0.2833 -0.0658  0.0339
13301TIP3    H161318   3.193   1.580  17.131 -0.4418  0.2917 -1.0188
13301TIP3    H261319   3.226   1.440  17.085 -0.6619  0.1189 -0.6535
13302TIP3   OH261320   5.618   2.285   2.085  0.0596 -0.1539  0.3015
13302TIP3    H161321   5.609   2.374   2.117  0.2191 -0.2024  0.4845
13302TIP3    H261322   5.662   2.238   2.156  2.9971  0.3867 -0.9873
13303TIP3   OH261323   2.676   4.375  11.931 -0.2140 -0.0524  0.1204
13303TIP3    H161324   2.678   4.280  11.938  0.1590  0.0447  1.6799
13303TIP3    H261325   2.768   4.400  11.917 -0.4480  0.0333 -1.4508
13304TIP3   OH261326   6.192   0.905  12.916  0.4728  0.3919 -0.0814
13304TIP3    H161327   6.116   0.868  12.961  0.5896  0.9873  0.6306
13304TIP3    H261328   6.163   0.992  12.887  0.3313 -0.0621 -1.3760
13305TIP3   OH261329   0.221   1.552   3.981  0.3133  0.2173 -0.4268
13305TIP3    H161330   0.143   1.500   3.964  0.1620  1.1806 -3.3991
13305TIP3    H261331   0.292   1.488   3.988 -0.0139 -0.5620 -3.0324
13306TIP3   OH261332   6.693   2.101  16.646  0.1117 -0.4729  0.7738
13306TIP3    H161333   6.598   2.108  16.660  0.2788  3.7999  1.1523
13306TIP3    H261334   6.705   2.132  16.556  1.1887  0.0168  1.0712
13307TIP3   OH261335   4.466   5.976   3.916  0.6708  0.1194  0.1156
13307TIP3    H161336   4.423   5.919   3.852 -0.3737  1.6468 -0.6026
13307TIP3    H261337   4.450   5.934   4.001 -0.7378 -0.2611 -0.3192
13308TIP3   OH261338   0.710   6.322  15.061 -0.1756 -0.2021 -0.1190
13308TIP3    H161339   0.676   6.333  15.150  2.6573 -1.4420  1.2514
13308TIP3    H261340   0.757   6.403  15.043 -2.3226  0.8390 -1.3438
13309TIP3   OH261341   4.925   3.346  16.045 -0.1274 -0.6612  0.0899
13309TIP3    H161342   4.964   3.267  16.008 -0.4658 -0.7228 -0.1368
13309TIP3    H261343   4.949   3.416  15.984  2.4800 -0.0642  1.6494
13310TIP3   OH261344   6.287   0.782   3.983 -0.1430 -0.2137 -0.0951
13310TIP3    H161345   6.255   0.703   3.941 -0.4996 -0.4650  0.6334
13310TIP3    H261346   6.276   0.766   4.077  2.3672 -0.4203  0.2330
13311TIP3   OH261347   0.315   2.737  14.270 -0.7270 -0.6416  0.5217
13311TIP3    H161348   0.338   2.649  14.239  3.0066  0.5214 -0.4973
13311TIP3    H261349   0.346   2.740  14.360 -0.2087 -0.1823  0.3337
13312TIP3   OH261350   4.557   1.490  15.346  0.0884 -0.1003  0.3896
13312TIP3    H161351   4.508   1.411  15.367  0.5969 -0.7070 -0.6208
13312TIP3    H261352   4.538   1.506  15.254 -1.0545  1.7353  0.8992
13313TIP3   OH261353   3.472   4.982  16.592 -0.3824  0.0612 -0.0523
13313TIP3    H161354   3.523   4.911  16.553 -1.6368 -0.4606 -0.7950
13313TIP3    H261355   3.395   4.938  16.629 -0.9899  0.9850 -0.2024
13314TIP3   OH261356   0.555   6.340   4.131 -0.2726 -0.3359  0.0380
13314TIP3    H161357   0.531   6.345   4.038  2.4069  2.3126 -0.6569
13314TIP3    H261358   0.570   6.431   4.157  1.9109 -1.2170  2.2260
13315TIP3   OH261359   5.087   6.244   2.995  0.2178  0.3130 -0.1743
13315TIP3    H161360   5.012   6.188   2.976 -1.2381  2.2040 -0.3636
13315TIP3    H261361   5.131   6.201   3.068 -0.8509 -1.0364 -0.2831
13316TIP3   OH261362   6.310   4.342  17.076  0.1381 -0.2286 -0.2064
13316TIP3    H161363   6.345   4.383  17.155 -1.3217 -0.2061  0.4445
13316TIP3    H261364   6.353   4.389  17.004  2.1168 -0.7973  0.5212
13317TIP3   OH261365   4.334   0.061  13.167  0.9126  0.2024  0.3620
13317TIP3    H161366   4.376   0.036  13.085 -0.6498 -1.9000  0.1296
13317TIP3    H261367   4.363   0.151  13.182  0.9889  0.7870 -2.6540
13318TIP3   OH261368   4.389   0.626   4.385  0.1903  0.0734  0.0467
13318TIP3    H161369   4.431   0.558   4.332 -2.1179 -0.6597 -0.9840
13318TIP3    H261370   4.420   0.708   4.347 -1.0294 -0.4354 -2.2709
13319TIP3   OH261371   3.674   6.000   6.016  0.5480 -0.1483  0.1081
13319TIP3    H161372   3.665   5.984   6.110  2.4464 -0.5644  0.2523
13319TIP3    H261373   3.597   5.958   5.977  0.6993 -1.6565  1.3201
13320TIP3   OH261374   5.005   4.781  12.290  0.7437  0.9768 -0.1931
13320TIP3    H161375   4.953   4.859  12.274  0.5153  0.7799 -0.4315
13320TIP3    H261376   5.050   4.798  12.372 -1.3535  0.2795  1.1683
13321TIP3   OH261377   4.205   4.642   6.278  0.2787 -0.2565 -0.3515
13321TIP3    H161378   4.270   4.708   6.300  0.4427 -0.2365 -0.8637
13321TIP3    H261379   4.183   4.600   6.361  0.6054  0.0474 -0.1102
13322TIP3   OH261380   1.503   5.590  11.897 -0.1422  0.0625 -0.3414
13322TIP3    H161381   1.436   5.567  11.832 -0.4097 -0.5233  0.1285
13322TIP3    H261382   1.569   5.521  11.888 -1.5415 -1.7518  1.9326
13323TIP3   OH261383   5.021   3.061  15.674 -0.4094 -0.2303 -0.6837
13323TIP3    H161384   5.091   3.028  15.617 -0.7061  1.1078 -1.9142
13323TIP3    H261385   4.986   3.136  15.626 -3.7420 -1.7415 -0.8732
13324TIP3   OH261386   0.959   0.991  10.983  0.4538 -0.4297 -0.1113
13324TIP3    H161387   0.915   0.965  11.064  0.5536  0.0666  0.1050
13324TIP3    H261388   0.895   1.044  10.936  0.8158  0.3157  0.2155
13325TIP3   OH261389   5.463   3.354  11.233  0.1902  0.5007  0.3846
13325TIP3    H161390   5.548   3.398  11.240  0.3431  0.1696  0.6028
13325TIP3    H261391   5.400   3.426  11.233  0.3653  0.6945  1.9047
13326TIP3   OH261392   2.280   1.548  12.996 -0.1858  0.5789  0.6788
13326TIP3    H161393   2.321   1.579  12.915 -2.5870  1.0498 -0.4225
13326TIP3    H261394   2.269   1.627  13.049 -0.0141  0.5079  0.8220
13327TIP3   OH261395   3.405   6.249  16.898 -0.4481 -0.1205 -0.5236
13327TIP3    H161396   3.486   6.269  16.944 -1.3162 -1.4855  1.7255
13327TIP3    H261397   3.396   6.319  16.833  1.9583  0.6311 -0.1322
13328TIP3   OH261398   5.823   5.184  13.188  0.3735  0.8171  0.6217
13328TIP3    H161399   5.737   5.189  13.146  0.8121  4.0518 -0.1681
13328TIP3    H261400   5.874   5.127  13.130 -1.1618 -1.1926  1.1314
13329TIP3   OH261401   1.797   6.637   1.965 -0.0188 -0.0309 -0.0227
13329TIP3    H161402   1.754   6.554   1.942 -0.8824  0.5738 -0.6368
13329TIP3    H261403   1.764   6.699   1.900  1.8172  0.4534 -0.5575
13330TIP3   OH261404   5.020   2.011   2.513  0.0107  0.0866 -0.2983
13330TIP3    H161405   4.977   2.095   2.527  0.9768  0.4102  0.8348
13330TIP3    H261406   5.114   2.030   2.516  0.2727 -1.1927  1.2813
13331TIP3   OH261407   0.476   4.198   0.344  0.6864  0.2221 -0.0548
13331TIP3    H161408   0.545   4.250   0.385  1.4959 -0.9744  0.1709
13331TIP3    H261409   0.455   4.131   0.409 -0.8660  0.6904 -0.0408
13332TIP3   OH261410   0.188   5.775  14.479  0.6304  0.7379  0.0502
13332TIP3    H161411   0.279   5.802  14.467  0.2157  1.6561 -1.2033
13332TIP3    H261412   0.153   5.769  14.390 -0.2585 -0.6264  0.4624
13333TIP3   OH261413   2.875   2.514   3.813 -0.1124  0.4638 -0.4112
13333TIP3    H161414   2.842   2.602   3.797  1.7201  1.3570  0.3638
13333TIP3    H261415   2.808   2.472   3.867 -0.6158  1.6919 -0.0474
13334TIP3   OH261416   2.367   2.758  15.715 -0.3186 -0.2923  0.2747
13334TIP3    H161417   2.292   2.704  15.738 -0.3115 -2.2567 -3.4404
13334TIP3    H261418   2.338   2.848  15.729 -2.0658 -1.0761  2.1354
13335TIP3   OH261419   1.065   6.468   4.902 -0.1136  0.2082 -0.1492
13335TIP3    H161420   0.991   6.528   4.895  0.6436  1.2161  0.2110
13335TIP3    H261421   1.074   6.452   4.996  1.4232  1.8036  0.0190
13336TIP3   OH261422   6.046   1.115  12.897 -0.2028 -0.3070 -0.0503
13336TIP3    H161423   5.994   1.166  12.960 -0.4456 -0.6157 -0.0006
13336TIP3    H261424   5.983   1.085  12.832  0.0041 -0.2233 -0.2913
13337TIP3   OH261425   1.538   5.574   0.722  0.2619  0.1929 -0.0100
13337TIP3    H161426   1.521   5.480   0.728 -0.9643  0.3901  0.0012
13337TIP3    H261427   1.543   5.591   0.628 -0.5992  0.2784 -0.0468
13338TIP3   OH261428   6.691   4.668  14.489 -0.0505 -0.6867  0.8321
13338TIP3    H161429   6.721   4.577  14.488 -0.5025 -0.8276  0.2495
13338TIP3    H261430   6.772   4.719  14.480  0.0444 -1.0646 -0.6990
13339TIP3   OH261431   5.584   2.614  15.255 -0.2183  0.1327  0.5570
13339TIP3    H161432   5.661   2.603  15.200 -1.4529 -1.3481 -0.9936
13339TIP3    H261433   5.598   2.554  15.329 -1.2522 -2.7109 -1.3987
13340TIP3   OH261434   1.024   5.695  14.765  0.1431 -0.4322  0.0797
13340TIP3    H161435   0.972   5.630  14.812  1.4260 -0.2737  1.7919
13340TIP3    H261436   1.077   5.644  14.704  0.2246 -0.8803  0.5216
13341TIP3   OH261437   1.455   5.614   5.061  0.4717  0.1129 -0.4087
13341TIP3    H161438   1.462   5.706   5.035 -0.5513  0.4915  0.6125
13341TIP3    H261439   1.384   5.579   5.008 -0.1263  0.3049  0.2566
13342TIP3   OH261440   4.805   2.174   2.838 -1.1439  0.1957 -0.4853
13342TIP3    H161441   4.821   2.111   2.908 -1.3743  3.1034  2.4073
13342TIP3    H261442   4.727   2.142   2.793 -1.3252 -1.4784  0.9543
13343TIP3   OH261443   2.051   0.115  11.862  0.4039  0.1918 -0.3175
13343TIP3    H161444   2.049   0.098  11.956 -1.8468  1.0144 -0.1424
13343TIP3    H261445   1.995   0.048  11.824 -0.1284  0.9072 -0.8343
13344TIP3   OH261446   2.243   5.322  14.922 -0.1497 -0.2945 -0.2060
13344TIP3    H161447   2.209   5.325  14.833 -1.3209  1.6048  0.2580
13344TIP3    H261448   2.169   5.292  14.975  1.3433 -4.6397 -0.1009
13345TIP3   OH261449   4.659   2.544   1.197 -0.0236  0.1057  0.2826
13345TIP3    H161450   4.675   2.462   1.244 -2.0342  0.6636  2.0596
13345TIP3    H261451   4.737   2.555   1.141  1.9599 -1.1732  2.6145
13346TIP3   OH261452   4.432   1.358   1.172  0.2720 -0.2378  0.1212
13346TIP3    H161453   4.518   1.388   1.145  0.9463 -0.4694  1.8544
13346TIP3    H261454   4.426   1.268   1.139  0.1934  0.1583 -0.9869
13347TIP3   OH261455   2.298   0.942  13.899 -0.0468 -0.0654  0.3913
13347TIP3    H161456   2.293   1.024  13.850 -1.6453  0.8587  1.9690
13347TIP3    H261457   2.210   0.904  13.891  0.3692 -1.0796  0.5655
13348TIP3   OH261458   1.781   3.024   4.223 -0.0162  0.6667 -0.7956
13348TIP3    H161459   1.846   3.022   4.293  1.2340  4.1166 -1.6717
13348TIP3    H261460   1.813   2.960   4.159  0.9971  0.3479  0.0128
13349TIP3   OH261461   3.918   0.432   4.755  0.1303 -0.2228 -0.2469
13349TIP3    H161462   3.851   0.500   4.764  1.4736  1.1654 -0.3582
13349TIP3    H261463   3.924   0.417   4.660 -0.5909 -0.9677 -0.1871
13350TIP3   OH261464   1.151   1.898  13.392  0.3345  0.5316  0.0915
13350TIP3    H161465   1.063   1.864  13.381  0.6683  0.2111 -2.0118
13350TIP3    H261466   1.139   1.980  13.440 -0.8587 -0.4808  1.6414
13351TIP3   OH261467   0.209   0.441   1.993  0.3443  0.1938 -0.0297
13351TIP3    H161468   0.226   0.365   2.049  0.9397  0.8300  0.6757
13351TIP3    H261469   0.193   0.404   1.907  1.6554 -0.6856  0.0833
13352TIP3   OH261470   5.384   6.595  11.515 -0.1774 -0.1257  0.1210
13352TIP3    H161471   5.474   6.623  11.501 -0.2682  0.9359  1.5241
13352TIP3    H261472   5.336   6.676  11.534 -1.5752 -0.5881 -1.2265
13353TIP3   OH261473   1.819   3.640   5.494 -1.1208  0.1273 -0.0687
13353TIP3    H161474   1.788   3.575   5.557  0.4815 -1.0851 -0.4623
13353TIP3    H261475   1.914   3.627   5.491 -1.0382  0.8597 -1.9251
13354TIP3   OH261476   6.740   2.438   1.043 -0.1635 -0.8639  0.3494
13354TIP3    H161477   6.655   2.418   1.004  0.7272 -2.7772 -0.7777
13354TIP3    H261478   6.768   2.355   1.083  0.9713 -0.1413  1.1011
13355TIP3   OH261479   6.093   3.624  15.025  0.4136  0.0720  0.3763
13355TIP3    H161480   6.056   3.710  15.044 -0.3482 -0.4220  1.2120
13355TIP3    H261481   6.187   3.639  15.017  0.1110  1.2658 -1.2951
13356TIP3   OH261482   5.801   2.693   3.686 -0.4543 -0.4917  0.1138
13356TIP3    H161483   5.837   2.613   3.725 -3.0019 -1.4230  0.7128
13356TIP3    H261484   5.787   2.671   3.594 -1.2437 -0.7815  0.2995
13357TIP3   OH261485   4.206   2.076   5.264  0.2532  0.3510 -0.2301
13357TIP3    H161486   4.271   2.132   5.307  1.5200  0.5347 -2.2334
13357TIP3    H261487   4.153   2.137   5.213 -1.8120  0.2406  1.6310
13358TIP3   OH261488   6.661   2.285   4.134  0.0150  0.2686 -0.6192
13358TIP3    H161489   6.653   2.279   4.039 -0.4652 -1.1984 -0.5056
13358TIP3    H261490   6.572   2.271   4.166  0.1017  1.1539  0.0497
13359TIP3   OH261491   2.547   2.948   2.402  0.2650  0.0822 -0.1346
13359TIP3    H161492   2.457   2.962   2.374  0.0445  0.5834  0.7896
13359TIP3    H261493   2.601   2.978   2.328 -0.3171 -1.7624 -1.3810
13360TIP3   OH261494   0.115   1.149  12.538  0.2194  0.2651  0.0083
13360TIP3    H161495   0.058   1.115  12.607 -0.6565  1.4498 -0.1018
13360TIP3    H261496   0.163   1.073  12.507 -1.2094 -0.7461  0.1995
13361TIP3   OH261497   6.033   3.234   0.744 -0.5461  0.0167  0.1572
13361TIP3    H161498   6.007   3.238   0.652 -1.3219  0.2077  0.3843
13361TIP3    H261499   6.028   3.141   0.766 -3.3618  0.2457  0.8417
13362TIP3   OH261500   0.249   3.730  17.114  0.1200 -0.3261 -0.1847
13362TIP3    H161501   0.263   3.647  17.160  0.5680  0.4721  1.1918
13362TIP3    H261502   0.259   3.709  17.021 -1.6086 -2.1694 -0.0253
13363TIP3   OH261503   6.514   2.020  11.812 -0.1109 -0.8211 -0.3255
13363TIP3    H161504   6.575   2.094  11.801  0.1098 -1.2761 -2.3772
13363TIP3    H261505   6.523   1.969  11.732 -2.9542 -1.0933 -0.5567
13364TIP3   OH261506   6.337   6.284  16.873  0.7767 -0.3746 -0.1605
13364TIP3    H161507   6.402   6.319  16.933 -0.0761 -0.7769  1.0284
13364TIP3    H261508   6.318   6.356  16.813  2.6702 -0.4118 -0.8612
13365TIP3   OH261509   3.444   1.259   0.890  0.2550  0.4917  0.6986
13365TIP3    H161510   3.523   1.280   0.841 -0.4769  1.4677 -0.1408
13365TIP3    H261511   3.465   1.277   0.981  1.3998 -0.5807  0.6656
13366TIP3   OH261512   6.495   2.057  13.272 -0.5192 -0.0777  0.0748
13366TIP3    H161513   6.442   2.132  13.300 -1.1574  0.0825 -1.4671
13366TIP3    H261514   6.559   2.095  13.212 -0.9781 -0.7732 -0.8811
13367TIP3   OH261515   4.289   0.526   4.632  0.2986 -0.0161 -0.5179
13367TIP3    H161516   4.328   0.580   4.563  0.0747  0.7663 -0.0465
13367TIP3    H261517   4.342   0.545   4.710  0.5555 -0.9001 -0.4679
13368TIP3   OH261518   1.560   5.109  11.355  0.1291 -0.1340 -0.5212
13368TIP3    H161519   1.548   5.021  11.318 -0.0732  0.8448 -2.9482
13368TIP3    H261520   1.563   5.094  11.450  0.6743 -2.8055 -0.8651
13369TIP3   OH261521   1.776   6.638   2.262 -0.7069 -0.5399  0.1907
13369TIP3    H161522   1.766   6.637   2.167  1.5287  2.0429 -0.1824
13369TIP3    H261523   1.851   6.581   2.278 -0.9510 -0.8039  0.4069
13370TIP3   OH261524   0.029   5.137  16.973 -0.3948  0.2799 -0.1719
13370TIP3    H161525  -0.005   5.226  16.964  1.8356  1.2728  0.4737
13370TIP3    H261526   0.117   5.141  16.933  0.4201 -1.1533  1.3636
13371TIP3   OH261527   2.488   3.424   1.072  0.7142  0.0754  0.2650
13371TIP3    H161528   2.549   3.439   1.144  2.7996 -0.6089 -1.2666
13371TIP3    H261529   2.436   3.505   1.068  0.6382  0.1833  2.3880
13372TIP3   OH261530   5.634   2.548  11.004 -0.2143  1.3202 -0.0188
13372TIP3    H161531   5.630   2.536  10.910 -0.9232 -1.5016  0.2858
13372TIP3    H261532   5.691   2.624  11.016  1.2760  0.7328 -2.6464
13373TIP3   OH261533   0.894   4.130   4.704  0.1032  0.1542 -0.0410
13373TIP3    H161534   0.959   4.101   4.767 -1.4061  0.0896  1.5612
13373TIP3    H261535   0.833   4.056   4.697 -0.1573  0.4410 -1.0372
13374TIP3   OH261536   6.741   1.191   3.784 -0.5872  0.2881  0.2383
13374TIP3    H161537   6.676   1.174   3.852 -1.8948 -0.8710 -1.2247
13374TIP3    H261538   6.817   1.138   3.810 -1.5905 -1.2955  0.1058
13375TIP3   OH261539   2.918   2.092  15.028 -0.5880  0.3242  0.3315
13375TIP3    H161540   3.009   2.099  15.054 -0.5302 -2.6416  1.2794
13375TIP3    H261541   2.868   2.127  15.102 -0.2477 -1.2560  1.3514
13376TIP3   OH261542   2.065   1.173  11.349  0.0420 -0.5037 -0.7117
13376TIP3    H161543   2.070   1.165  11.444 -3.1053  0.1618 -0.3889
13376TIP3    H261544   2.150   1.141  11.318  1.7244  0.5544  2.3415
13377TIP3   OH261545   4.310   1.574   4.796 -0.0841  0.3245  0.1106
13377TIP3    H161546   4.241   1.517   4.828 -1.1136  1.9809  1.0165
13377TIP3    H261547   4.269   1.628   4.729  0.8559  0.0275 -0.7288
13378TIP3   OH261548   2.586   2.962  14.410 -0.1173  0.0084  0.1945
13378TIP3    H161549   2.642   2.903  14.459  1.7160 -0.1606 -1.9261
13378TIP3    H261550   2.614   3.050  14.436  0.6029 -0.0797 -0.2587
13379TIP3   OH261551   6.011   0.204  12.689  0.2316 -0.8313 -0.3921
13379TIP3    H161552   5.985   0.155  12.767 -1.7388 -1.4688 -1.3841
13379TIP3    H261553   6.097   0.168  12.666  0.2078 -1.6171  0.6720
13380TIP3   OH261554   1.800   2.239  11.431 -0.2617 -0.1190 -0.5860
13380TIP3    H161555   1.789   2.264  11.340 -1.2469  1.3629 -0.0873
13380TIP3    H261556   1.887   2.198  11.434 -1.2720 -2.6996 -2.6729
13381TIP3   OH261557   2.638   3.734  11.050 -0.4303  0.0343 -0.1319
13381TIP3    H161558   2.712   3.688  11.009 -1.7809 -1.4235 -1.0318
13381TIP3    H261559   2.563   3.677  11.036 -1.1540 -0.3475  3.9413
13382TIP3   OH261560   5.018   0.956   5.265 -0.7616  0.4131  0.5755
13382TIP3    H161561   4.943   0.944   5.207 -0.3245 -1.4106  0.3236
13382TIP3    H261562   5.039   0.868   5.297 -0.3573  1.2249  2.7347
13383TIP3   OH261563   4.270   0.758  10.792  0.4127  0.1521 -0.3528
13383TIP3    H161564   4.225   0.683  10.752  0.2165  0.2526 -0.3229
13383TIP3    H261565   4.211   0.832  10.776  0.1943  0.1399  0.3854
13384TIP3   OH261566   4.822   4.757   3.490 -0.9429  0.2826 -0.0681
13384TIP3    H161567   4.911   4.740   3.520 -1.1442  1.5186  1.3518
13384TIP3    H261568   4.782   4.671   3.481  0.5690 -0.3240 -1.3525
13385TIP3   OH261569   5.649   1.809   5.368 -0.3162  0.2580 -0.1007
13385TIP3    H161570   5.740   1.837   5.378 -0.3098  0.8432 -1.6380
13385TIP3    H261571   5.655   1.720   5.333 -0.3283  0.5354 -0.8155
13386TIP3   OH261572   1.218   0.535  14.650 -0.2630  0.2805  0.0409
13386TIP3    H161573   1.162   0.610  14.629 -0.8387  0.0975  0.8710
13386TIP3    H261574   1.170   0.488  14.718  0.4718 -0.3998  0.1023
13387TIP3   OH261575   0.141   2.934   2.376  0.1035  0.7538  0.9875
13387TIP3    H161576   0.196   3.011   2.387  1.9072 -0.2926 -0.1370
13387TIP3    H261577   0.101   2.921   2.462  1.5573  1.6423  1.8434
13388TIP3   OH261578   5.740   1.670   4.429  0.3382 -0.3994  0.0907
13388TIP3    H161579   5.795   1.739   4.466  1.7272 -1.6129  0.3557
13388TIP3    H261580   5.779   1.588   4.460 -0.1281 -1.3827 -1.7652
13389TIP3   OH261581   4.087   3.302   1.509 -0.2368  0.4284  0.2717
13389TIP3    H161582   4.100   3.290   1.414  0.3151  0.8808  0.2823
13389TIP3    H261583   4.039   3.384   1.516  1.6034  1.5557  0.4524
13390TIP3   OH261584   3.851   2.685   5.854  0.1345 -0.3416 -0.0767
13390TIP3    H161585   3.818   2.603   5.817 -1.7167  0.4700 -0.2936
13390TIP3    H261586   3.849   2.672   5.948  0.5567 -0.7899 -0.1227
13391TIP3   OH261587   4.461   1.738  14.290 -0.0592 -0.5418 -0.0339
13391TIP3    H161588   4.466   1.684  14.369  0.9650  0.0345  0.3031
13391TIP3    H261589   4.503   1.685  14.222  1.4385  0.0224  0.4202
13392TIP3   OH261590   1.716   1.891   0.345 -0.2297  0.3323 -0.2287
13392TIP3    H161591   1.725   1.946   0.423  1.1930 -2.0913  1.4728
13392TIP3    H261592   1.799   1.901   0.298  0.6150 -1.2508  0.8159
13393TIP3   OH261593   3.669   6.567  16.988 -0.2380 -0.4588 -0.4339
13393TIP3    H161594   3.581   6.600  17.007  0.5246  0.4611  1.8536
13393TIP3    H261595   3.667   6.475  17.015 -0.1521 -0.0700  0.9868
13394TIP3   OH261596   0.878   3.661   4.530 -0.7765 -0.4120  0.0754
13394TIP3    H161597   0.826   3.724   4.480 -1.6401 -1.0860  0.1101
13394TIP3    H261598   0.871   3.579   4.481  1.5233 -0.1798 -0.7580
13395TIP3   OH261599   5.706   6.245   0.108  0.3543  0.0411  0.1992
13395TIP3    H161600   5.733   6.154   0.103 -1.7351 -0.6334  0.3253
13395TIP3    H261601   5.616   6.242   0.138 -0.6108  2.0057 -2.1277
13396TIP3   OH261602   2.628   5.116  15.644  0.3235  0.2860 -0.3317
13396TIP3    H161603   2.560   5.109  15.576  0.8352 -0.2832 -0.8053
13396TIP3    H261604   2.594   5.063  15.716 -1.4810  3.0078  1.0116
13397TIP3   OH261605   3.889   0.150  13.039  0.4620 -0.1350 -0.0719
13397TIP3    H161606   3.977   0.183  13.021  0.4349 -0.4210 -0.7617
13397TIP3    H261607   3.888   0.133  13.133  0.6184  1.3863  0.2182
13398TIP3   OH261608   3.175   2.209   1.293  0.7704  0.3606 -0.9697
13398TIP3    H161609   3.208   2.257   1.217  2.1273  1.7419  0.4170
13398TIP3    H261610   3.238   2.138   1.306  0.0884 -0.3720 -1.5974
13399TIP3   OH261611   1.479   0.408  12.181 -0.2256  0.4396  0.3011
13399TIP3    H161612   1.555   0.407  12.239  1.2895  0.2836 -1.5670
13399TIP3    H261613   1.479   0.495  12.142 -1.5970  0.7600  0.9623
13400TIP3   OH261614   0.096   4.934  15.619  0.0560  0.9552  0.5405
13400TIP3    H161615   0.080   4.841  15.608  1.7735  0.8554 -1.7631
13400TIP3    H261616   0.022   4.976  15.574  0.2943  0.6825 -0.1066
13401TIP3   OH261617   1.387   6.033   0.134 -0.0647  0.0264 -0.1117
13401TIP3    H161618   1.445   5.973   0.181 -1.0069 -1.1676 -0.4298
13401TIP3    H261619   1.385   6.000   0.044 -0.8962  0.2886 -0.2049
13402TIP3   OH261620   1.628   3.375   1.616  0.3747 -0.3247 -0.7642
13402TIP3    H161621   1.600   3.285   1.634  0.4930 -0.2776 -0.3200
13402TIP3    H261622   1.661   3.407   1.700 -3.2058  1.4468  0.1799
13403TIP3   OH261623   6.559   2.308  12.163 -0.3901  0.1211  0.1947
13403TIP3    H161624   6.477   2.312  12.213  0.6017  1.2360  1.8512
13403TIP3    H261625   6.549   2.376  12.096 -2.2379 -2.2103 -2.1285
13404TIP3   OH261626   3.454   4.929   1.525  0.3846 -0.2860  0.4000
13404TIP3    H161627   3.423   4.902   1.611 -0.7189  0.2309  0.1803
13404TIP3    H261628   3.500   5.012   1.540  0.4929 -0.3709  0.5363
13405TIP3   OH261629   5.740   6.543  11.121  0.4100 -0.2721 -0.0853
13405TIP3    H161630   5.830   6.538  11.153  0.2009  1.2644  0.8300
13405TIP3    H261631   5.742   6.498  11.037  1.9972 -0.3991 -0.0077
13406TIP3   OH261632   5.689   1.447   3.700  0.9150 -0.1942  0.3714
13406TIP3    H161633   5.666   1.496   3.621  0.6547  0.0021  0.5741
13406TIP3    H261634   5.612   1.451   3.756  0.0706 -2.5796 -0.4623
13407TIP3   OH261635   4.744   4.767  14.356 -0.4314 -0.3975  0.0776
13407TIP3    H161636   4.748   4.778  14.451 -2.2560 -1.1367  0.2912
13407TIP3    H261637   4.777   4.679  14.340 -0.8079 -0.5441  0.1063
13408TIP3   OH261638   0.878   6.437   2.907  0.6915  0.2236 -0.0130
13408TIP3    H161639   0.848   6.421   2.818  0.1480  1.1758 -0.0218
13408TIP3    H261640   0.826   6.378   2.961  2.7880 -2.2564 -0.4900
13409TIP3   OH261641   1.076   6.485  10.565 -0.2262 -0.3516  0.4802
13409TIP3    H161642   1.014   6.416  10.543  1.3095 -2.1882  1.5893
13409TIP3    H261643   1.044   6.521  10.647 -0.1243 -0.9450  0.7862
13410TIP3   OH261644   0.936   1.724  11.515 -0.1912  0.0192  0.0426
13410TIP3    H161645   1.001   1.738  11.447  1.0166 -1.3651  0.8386
13410TIP3    H261646   0.939   1.804  11.568 -0.4593  0.7073 -0.9510
13411TIP3   OH261647   3.247   2.317  11.565 -0.1572  0.4810  0.1690
13411TIP3    H161648   3.274   2.270  11.644 -2.8735  1.2147  1.6844
13411TIP3    H261649   3.244   2.251  11.496 -0.9256 -0.9471  1.5168
13412TIP3   OH261650   4.846   6.080  12.398  0.0935  0.5250 -0.1485
13412TIP3    H161651   4.757   6.060  12.370 -0.0262  0.4816  0.2585
13412TIP3    H261652   4.836   6.122  12.484  0.3027  2.9207 -1.2285
13413TIP3   OH261653   2.828   3.450  12.647 -0.6353 -0.6082 -0.1150
13413TIP3    H161654   2.747   3.501  12.655 -0.0544  0.2930  0.2131
13413TIP3    H261655   2.848   3.452  12.553 -0.7899 -0.5234 -0.1473
13414TIP3   OH261656   1.533   1.388   0.448 -0.2672 -0.2982  0.3808
13414TIP3    H161657   1.574   1.460   0.401  0.0773 -0.5460  0.2957
13414TIP3    H261658   1.465   1.429   0.501  1.5183  0.4007  2.2428
13415TIP3   OH261659   4.910   1.705  16.279 -0.2990  0.7908  0.0020
13415TIP3    H161660   4.929   1.730  16.370 -0.4260 -0.7236  0.4685
13415TIP3    H261661   4.996   1.698  16.238 -0.2238  1.1163  0.1005
13416TIP3   OH261662   4.088   5.096  13.721 -0.2479 -0.2541 -1.0740
13416TIP3    H161663   4.159   5.049  13.765 -1.5291 -0.3369  1.0558
13416TIP3    H261664   4.115   5.101  13.629  1.1123 -2.8781 -0.8951
13417TIP3   OH261665   6.359   5.511   0.283  0.1817  0.1561  0.4040
13417TIP3    H161666   6.309   5.559   0.217  0.4869 -1.0623 -0.7694
13417TIP3    H261667   6.428   5.572   0.309 -0.5661  1.0348  0.3741
13418TIP3   OH261668   3.772   3.502  11.587  0.2652  0.0341  0.4130
13418TIP3    H161669   3.835   3.451  11.536  0.4427  1.2907 -0.6760
13418TIP3    H261670   3.806   3.499  11.676  0.4811 -1.3976  0.3094
13419TIP3   OH261671   2.129   0.907   0.873 -0.8132  0.1228  0.3548
13419TIP3    H161672   2.040   0.891   0.843 -1.6683  3.3399  0.7237
13419TIP3    H261673   2.185   0.866   0.808 -2.5393 -1.6834 -0.0693
13420TIP3   OH261674   5.266   3.818  16.994 -0.0746 -0.2245 -0.0276
13420TIP3    H161675   5.216   3.736  16.991 -4.1734  2.0382 -0.3302
13420TIP3    H261676   5.294   3.832  16.903  0.8870 -1.3135  0.0675
13421TIP3   OH261677   2.581   3.694  11.796 -0.9752 -0.1881  0.4677
13421TIP3    H161678   2.628   3.757  11.742  0.6018 -1.5420  0.1692
13421TIP3    H261679   2.556   3.743  11.875  1.9525  0.3750  1.1662
13422TIP3   OH261680   3.219   3.876   0.409 -0.1429 -0.2690  0.1361
13422TIP3    H161681   3.232   3.929   0.330 -1.6800  0.0332  0.0649
13422TIP3    H261682   3.155   3.811   0.384  3.1891 -3.6836 -0.4436
13423TIP3   OH261683   6.683   0.625  15.849 -0.2813 -0.0778  0.4064
13423TIP3    H161684   6.603   0.670  15.876  0.3038  2.7796 -2.0679
13423TIP3    H261685   6.740   0.630  15.926 -1.3954  0.6055  1.2269
13424TIP3   OH261686   1.126   2.496  15.406 -0.0350 -0.1650  0.4976
13424TIP3    H161687   1.158   2.407  15.414 -1.1279 -0.4507  2.2114
13424TIP3    H261688   1.158   2.526  15.320 -2.6474 -3.4669 -1.9086
13425TIP3   OH261689   5.324   5.819  15.760 -0.5042  0.0370 -0.0693
13425TIP3    H161690   5.333   5.806  15.665  1.9498  1.6606 -0.1435
13425TIP3    H261691   5.299   5.911  15.769  3.1709  1.0941  0.8489
13426TIP3   OH261692   5.842   6.231  14.413 -0.1028  0.5105  0.7412
13426TIP3    H161693   5.910   6.272  14.359 -1.0576  1.2025  0.0395
13426TIP3    H261694   5.871   6.245  14.503  2.5957 -2.4187  0.5353
13427TIP3   OH261695   5.589   3.777  12.808 -0.1042  0.2581  0.0992
13427TIP3    H161696   5.620   3.706  12.752 -2.1265 -1.3445  0.9115
13427TIP3    H261697   5.529   3.827  12.753 -1.4842 -0.8568  0.5322
13428TIP3   OH261698   5.624   0.752   3.117 -0.3639  0.3485  0.2384
13428TIP3    H161699   5.656   0.697   3.045  0.6724  1.6017 -0.2883
13428TIP3    H261700   5.579   0.691   3.175 -0.4751 -0.8328 -1.0321
13429TIP3   OH261701   0.265   0.794   0.056  0.2602  0.4069  0.2335
13429TIP3    H161702   0.175   0.768   0.036 -0.2275  1.6433  0.7326
13429TIP3    H261703   0.258   0.849   0.134  1.4424  0.5724  0.2459
13430TIP3   OH261704   2.121   0.815   4.643  0.3458  0.4855 -0.3002
13430TIP3    H161705   2.120   0.871   4.565  1.7851  0.9961  0.0215
13430TIP3    H261706   2.164   0.734   4.615 -1.1975 -0.2558 -0.6094
13431TIP3   OH261707   4.942   0.670  12.706  0.4823  0.1172 -0.2920
13431TIP3    H161708   4.883   0.736  12.670 -0.6955 -0.4350  0.5472
13431TIP3    H261709   4.898   0.587  12.687  0.7630 -0.2790  0.7382
13432TIP3   OH261710   3.298   5.451   1.677  0.8888 -0.2278  0.0208
13432TIP3    H161711   3.300   5.545   1.692  0.1011 -0.1682 -0.2173
13432TIP3    H261712   3.230   5.438   1.611  0.1065 -1.0649  0.9514
13433TIP3   OH261713   0.697   3.848  16.278 -0.5995  0.5052 -0.1722
13433TIP3    H161714   0.645   3.929  16.280 -0.5634  0.5197  0.2269
13433TIP3    H261715   0.787   3.878  16.264 -0.6954  0.4791 -0.8723
13434TIP3   OH261716   6.063   2.378   2.185  0.6629  0.1269  0.1185
13434TIP3    H161717   6.122   2.443   2.147 -0.3370  1.0723  0.1506
13434TIP3    H261718   5.976   2.416   2.177  0.1988 -0.5934  1.4216
13435TIP3   OH261719   6.407   6.544  12.981 -0.0843  0.0169 -0.4449
13435TIP3    H161720   6.440   6.617  12.929  0.8586  1.0793  1.5304
13435TIP3    H261721   6.433   6.466  12.932  2.3464  0.9066 -0.7234
13436TIP3   OH261722   4.549   5.270   1.895 -0.0854 -0.1906 -0.2950
13436TIP3    H161723   4.551   5.360   1.928  0.8304  0.0242 -0.9185
13436TIP3    H261724   4.540   5.216   1.974 -1.6590  0.4729  0.0169
13437TIP3   OH261725   1.015   3.170   0.018 -0.4396  0.0663 -0.1612
13437TIP3    H161726   1.038   3.236  -0.048  1.1804 -0.9762 -0.7016
13437TIP3    H261727   0.936   3.130  -0.016 -0.2583  0.3111 -0.9036
13438TIP3   OH261728   1.947   1.740  15.107 -0.5313  0.1066  0.1854
13438TIP3    H161729   1.924   1.832  15.097  0.2898  0.2991 -0.0330
13438TIP3    H261730   1.872   1.700  15.150 -0.4428  1.0984  1.2817
13439TIP3   OH261731   2.439   1.009   4.096 -0.8410 -0.0918  0.5184
13439TIP3    H161732   2.423   1.029   4.003  1.5257  0.2384  0.1188
13439TIP3    H261733   2.398   1.082   4.143  0.4255  1.3242 -0.4666
13440TIP3   OH261734   3.796   2.528   0.788 -0.1206 -0.3530  0.5316
13440TIP3    H161735   3.780   2.498   0.698  3.8514 -1.1657 -0.1002
13440TIP3    H261736   3.808   2.622   0.780 -1.1185 -0.2290  0.4607
13441TIP3   OH261737   0.129   6.739   2.069  0.0978 -0.0773 -0.0610
13441TIP3    H161738   0.220   6.764   2.056 -0.1930  1.4280  0.5869
13441TIP3    H261739   0.125   6.704   2.158 -0.2670  1.6154  0.6285
13442TIP3   OH261740   0.484   6.753   2.236  0.1503 -0.3306 -0.0243
13442TIP3    H161741   0.471   6.809   2.160  0.1528  1.8102  1.4325
13442TIP3    H261742   0.578   6.756   2.252 -0.0977  1.2568  1.4142
13443TIP3   OH261743   0.730   4.597   0.318  0.2646 -0.5860 -0.0344
13443TIP3    H161744   0.662   4.558   0.264 -0.5414 -0.6459  0.9808
13443TIP3    H261745   0.748   4.682   0.278  0.0647 -0.8492 -0.6850
13444TIP3   OH261746   1.284   2.783   2.797 -0.2912  0.0886  0.4016
13444TIP3    H161747   1.352   2.835   2.839  0.5713  0.3521 -1.2441
13444TIP3    H261748   1.213   2.780   2.861  0.9296  0.5036  1.8344
13445TIP3   OH261749   5.044   0.094  14.677 -0.1429  0.4375 -0.1787
13445TIP3    H161750   4.986   0.151  14.727 -3.6193 -2.8912  0.0697
13445TIP3    H261751   5.105   0.058  14.741 -0.1980  1.2301  0.3228
13446TIP3   OH261752   1.328   0.379  15.278 -0.2870 -0.1668 -0.5346
13446TIP3    H161753   1.350   0.449  15.217 -1.2466  0.0458 -0.6523
13446TIP3    H261754   1.289   0.424  15.353 -1.7105 -0.6238 -0.9761
13447TIP3   OH261755   3.247   2.818   5.814 -0.4443  0.0182 -0.1472
13447TIP3    H161756   3.267   2.725   5.801 -0.2908  0.0938 -0.4561
13447TIP3    H261757   3.152   2.821   5.823 -0.4946 -0.1139 -0.6170
13448TIP3   OH261758   5.806   3.859   4.138 -0.1681 -0.6892 -0.0342
13448TIP3    H161759   5.826   3.950   4.159  2.2851 -0.8085 -1.4699
13448TIP3    H261760   5.715   3.860   4.109 -0.0682  1.3858 -0.4310
13449TIP3   OH261761   5.990   4.634   5.794  0.4398 -0.4577 -0.1001
13449TIP3    H161762   6.027   4.704   5.848 -0.1659 -0.9795  1.0224
13449TIP3    H261763   5.930   4.680   5.735 -0.1848 -0.0443  0.8329
13450TIP3   OH261764   4.841   4.768   3.107 -0.2632 -0.2900  0.1933
13450TIP3    H161765   4.896   4.773   3.186 -0.8288 -1.2989  0.6772
13450TIP3    H261766   4.846   4.856   3.069  0.3295  0.1123  1.1429
13451TIP3   OH261767   6.259   3.512  16.566 -0.4490 -0.0133  0.3706
13451TIP3    H161768   6.256   3.537  16.474 -0.4409  1.6663  0.7883
13451TIP3    H261769   6.350   3.523  16.591 -0.8104  1.8606  1.1135
13452TIP3   OH261770   2.655   0.445  14.703  0.3537 -0.2210  0.0631
13452TIP3    H161771   2.698   0.526  14.675 -0.5176  0.0775 -0.4588
13452TIP3    H261772   2.725   0.379  14.701  1.0328  0.4695  0.3174
13453TIP3   OH261773   3.913   3.276  16.722 -0.1063 -0.3795  0.1104
13453TIP3    H161774   3.998   3.276  16.677 -0.5443 -0.7538 -0.7424
13453TIP3    H261775   3.900   3.184  16.748 -0.7857 -0.5595 -0.8250
13454TIP3   OH261776   5.732   0.087   0.430  0.0628  0.6457  0.3807
13454TIP3    H161777   5.686   0.109   0.348 -1.7514  1.8897  1.6485
13454TIP3    H261778   5.824   0.100   0.409 -0.2608 -0.0757 -1.7527
13455TIP3   OH261779   5.360   2.318   0.589  0.0567 -0.1310  0.6212
13455TIP3    H161780   5.374   2.411   0.607 -0.2196  0.0637 -0.1172
13455TIP3    H261781   5.411   2.300   0.510 -1.2976 -0.1596 -0.2805
13456TIP3   OH261782   2.684   1.168  13.798 -0.4788 -0.5909  0.2376
13456TIP3    H161783   2.752   1.185  13.732 -0.2852 -0.3389  0.4967
13456TIP3    H261784   2.716   1.213  13.876 -1.2844  0.1054  0.1715
13457TIP3   OH261785   2.633   6.061   2.941  0.3328  0.5816  0.2186
13457TIP3    H161786   2.584   6.042   2.861  1.7033  1.4197 -0.8973
13457TIP3    H261787   2.681   5.981   2.960  0.0106  0.3798  0.1683
13458TIP3   OH261788   2.748   4.229   1.336 -0.2568 -0.3885  0.0575
13458TIP3    H161789   2.834   4.195   1.309 -0.8217 -0.9825 -1.0402
13458TIP3    H261790   2.702   4.153   1.371 -0.1023  0.0658  1.2662
13459TIP3   OH261791   0.587   6.695  12.971 -0.1604  0.3025  0.7996
13459TIP3    H161792   0.545   6.612  12.993  1.0898 -0.7858 -0.7323
13459TIP3    H261793   0.516   6.759  12.978 -1.4577 -1.0617  0.8006
13460TIP3   OH261794   1.956   0.043  11.347 -0.0718 -0.3828  0.2922
13460TIP3    H161795   2.044   0.016  11.321  0.4948  1.5557  0.0163
13460TIP3    H261796   1.917   0.081  11.268 -1.4639 -1.8504  0.2165
13461TIP3   OH261797   1.033   6.209   1.722 -0.2801 -0.3042 -0.4654
13461TIP3    H161798   1.036   6.217   1.817 -0.6658  0.2533 -0.4964
13461TIP3    H261799   0.943   6.233   1.699  0.1144  0.6364 -1.0641
13462TIP3   OH261800   2.599   0.501   3.591  0.1130  0.1847  0.0655
13462TIP3    H161801   2.613   0.435   3.659 -0.6519  0.1908  0.2336
13462TIP3    H261802   2.508   0.490   3.564 -0.3413  1.7879  0.7913
13463TIP3   OH261803   5.062   5.784   0.110 -0.7079 -0.4530 -0.3544
13463TIP3    H161804   5.125   5.741   0.052 -0.1037 -0.6463  0.4288
13463TIP3    H261805   5.053   5.872   0.075 -1.7590 -1.1099 -1.8246
13464TIP3   OH261806   5.442   2.015  14.169  0.2398 -0.0356  0.0114
13464TIP3    H161807   5.359   1.976  14.141 -0.2165  1.1008 -0.2806
13464TIP3    H261808   5.468   1.963  14.245 -0.3075 -0.9390 -0.3984
13465TIP3   OH261809   1.819   2.048   4.848  0.2160 -0.1692  0.3722
13465TIP3    H161810   1.732   2.013   4.830 -0.2190  0.7603  0.6396
13465TIP3    H261811   1.863   2.049   4.763  0.6651 -2.4202  0.4991
13466TIP3   OH261812   2.545   3.502   2.522 -0.4682 -0.0028 -0.2466
13466TIP3    H161813   2.574   3.471   2.608  1.2645 -0.4793 -0.9592
13466TIP3    H261814   2.590   3.446   2.459 -1.9578  0.1248 -1.4831
13467TIP3   OH261815   1.429   2.499  10.737 -0.3000  0.1647 -0.1341
13467TIP3    H161816   1.398   2.588  10.755  1.3984  0.9147 -0.7034
13467TIP3    H261817   1.361   2.442  10.774 -1.6812  1.6836 -0.2041
13468TIP3   OH261818   4.402   1.507   5.777  0.0844  0.8938  0.5777
13468TIP3    H161819   4.361   1.463   5.851  1.0536 -0.8130  0.1606
13468TIP3    H261820   4.330   1.527   5.718 -0.2190 -3.3890 -0.8470
13469TIP3   OH261821   3.747   0.232   2.553  0.8499 -0.4684  0.3602
13469TIP3    H161822   3.683   0.164   2.575  1.3865 -1.1894 -0.2364
13469TIP3    H261823   3.801   0.193   2.484  0.5101  0.9675 -0.7651
13470TIP3   OH261824   2.960   0.664   3.371 -0.3652 -0.0712 -0.3572
13470TIP3    H161825   2.956   0.759   3.367 -2.3974  0.0080  1.6030
13470TIP3    H261826   2.975   0.637   3.280 -1.5772  2.0619 -1.2705
13471TIP3   OH261827   2.873   5.561  16.906 -0.2450  0.0846  0.2278
13471TIP3    H161828   2.838   5.624  16.969  0.7900  1.2338 -0.2983
13471TIP3    H261829   2.919   5.496  16.960 -0.7204  0.1743  0.7435
13472TIP3   OH261830   1.109   4.040  11.212  0.1150 -0.1166 -0.2869
13472TIP3    H161831   1.145   4.078  11.291 -0.2123 -3.2926  1.5721
13472TIP3    H261832   1.146   4.092  11.141  0.4895  2.8258  1.8596
13473TIP3   OH261833   6.324   3.622  12.704 -0.3787 -0.0906  0.1876
13473TIP3    H161834   6.367   3.540  12.727  0.3742  0.4181  0.6298
13473TIP3    H261835   6.240   3.596  12.666 -0.0833 -1.0622  0.1965
13474TIP3   OH261836   6.503   4.796  15.538 -0.6504  0.0609  0.1262
13474TIP3    H161837   6.424   4.762  15.496 -0.8956  1.3617 -0.5371
13474TIP3    H261838   6.551   4.718  15.566 -2.2307 -0.7478  0.6834
13475TIP3   OH261839   2.819   0.199   5.164 -0.6298  0.1936  0.1201
13475TIP3    H161840   2.817   0.104   5.164 -1.6578  0.2104 -0.0362
13475TIP3    H261841   2.897   0.221   5.113  0.5234 -0.5559  1.4780
13476TIP3   OH261842   2.066   0.460   2.018  0.2427 -0.0077 -0.4438
13476TIP3    H161843   2.043   0.551   2.039  3.9798  1.0810 -0.3706
13476TIP3    H261844   2.144   0.443   2.070  0.3550 -2.8876 -1.4232
13477TIP3   OH261845   1.090   6.089   0.075 -0.7095 -0.0577  0.2701
13477TIP3    H161846   1.167   6.145   0.080  0.9245 -1.8064 -2.5570
13477TIP3    H261847   1.084   6.050   0.162  1.6277  0.1634  0.6126
13478TIP3   OH261848   1.186   4.114  16.536 -0.0715  0.2462 -0.0843
13478TIP3    H161849   1.139   4.191  16.505  1.9364  1.4122 -0.3984
13478TIP3    H261850   1.117   4.048  16.549 -1.5698  1.3053 -2.0729
13479TIP3   OH261851   1.844   2.747  11.688 -0.2881 -0.9554 -0.2304
13479TIP3    H161852   1.824   2.674  11.629 -1.4076  0.2318 -1.3771
13479TIP3    H261853   1.802   2.823  11.648  0.0895  0.1701  1.4010
13480TIP3   OH261854   5.371   4.000  16.170  0.7190  0.0955  0.2310
13480TIP3    H161855   5.390   4.064  16.101  0.1200 -0.0101 -0.0373
13480TIP3    H261856   5.344   4.053  16.245 -0.2201  0.1595 -0.1305
13481TIP3   OH261857   1.828   5.605   0.818  0.8631 -0.0287  0.4964
13481TIP3    H161858   1.737   5.580   0.806  1.0855 -0.4945 -0.2685
13481TIP3    H261859   1.874   5.568   0.743  1.5965  0.6649  0.5805
13482TIP3   OH261860   4.989   5.801  10.930 -0.1734  0.8750 -0.1033
13482TIP3    H161861   4.932   5.757  10.868 -0.4901  1.1110  0.0156
13482TIP3    H261862   5.035   5.867  10.878  0.1234  0.5682 -0.2339
13483TIP3   OH261863   6.327   1.415   1.516 -0.2418 -0.3194  0.1810
13483TIP3    H161864   6.299   1.503   1.540 -2.6367 -0.6054 -1.2462
13483TIP3    H261865   6.418   1.410   1.545  0.1528  2.8017 -0.2141
13484TIP3   OH261866   2.950   0.393  16.628 -0.2580 -0.3000 -0.5041
13484TIP3    H161867   3.028   0.425  16.673 -0.9849  1.9504 -0.7117
13484TIP3    H261868   2.882   0.391  16.696 -0.2064 -1.7090 -0.4510
13485TIP3   OH261869   6.331   0.330  12.658 -0.6478  0.0030 -0.2326
13485TIP3    H161870   6.381   0.252  12.631  0.3164  0.2183  0.8579
13485TIP3    H261871   6.346   0.393  12.588 -0.6975 -0.4798 -0.6878
13486TIP3   OH261872   2.145   1.210   1.327  0.3306  0.0316  0.2449
13486TIP3    H161873   2.133   1.304   1.334  0.5057  0.0623  0.1625
13486TIP3    H261874   2.240   1.198   1.324  0.3083 -0.1366  0.1343
13487TIP3   OH261875   0.212   1.636  11.102 -0.2208 -0.4780  0.1279
13487TIP3    H161876   0.232   1.609  11.013  0.7625  0.5539  0.0050
13487TIP3    H261877   0.295   1.625  11.150 -0.4997 -0.1911  0.6942
13488TIP3   OH261878   6.305   6.140  15.761 -0.1176 -0.0555  0.0534
13488TIP3    H161879   6.307   6.078  15.688  0.4226  1.0477 -0.9047
13488TIP3    H261880   6.212   6.146  15.785 -0.6482  1.3489 -2.1370
13489TIP3   OH261881   6.670   6.284   2.549  0.6521 -1.3297 -1.1411
13489TIP3    H161882   6.744   6.343   2.559 -0.3995 -0.3331  1.6975
13489TIP3    H261883   6.604   6.336   2.503  0.0594 -0.5655  0.5336
13490TIP3   OH261884   1.837   3.625   0.116  0.1326  0.3795 -0.0609
13490TIP3    H161885   1.933   3.627   0.117  0.1582  2.8302 -1.0773
13490TIP3    H261886   1.810   3.702   0.165 -1.3746 -0.6587  0.8277
13491TIP3   OH261887   2.659   4.875   3.778  0.3320 -0.3760 -0.1465
13491TIP3    H161888   2.608   4.898   3.856 -1.9500  1.2526 -1.9654
13491TIP3    H261889   2.714   4.952   3.762 -0.4086 -0.0198 -1.0293
13492TIP3   OH261890   5.720   6.687   5.577 -0.2371  0.7716 -0.3844
13492TIP3    H161891   5.757   6.638   5.651 -0.6029  1.1387  0.0439
13492TIP3    H261892   5.753   6.641   5.500  1.0908  1.0634 -0.0243
13493TIP3   OH261893   0.740   3.997  13.838  0.1795  0.1424 -0.3188
13493TIP3    H161894   0.822   3.964  13.874  1.2080  1.4584 -1.3158
13493TIP3    H261895   0.687   4.020  13.914  0.6900 -0.8416  0.3426
13494TIP3   OH261896   4.895   2.069   3.755 -0.4089  0.4523  0.7149
13494TIP3    H161897   4.872   2.102   3.668  0.8544 -0.3287  0.0509
13494TIP3    H261898   4.815   2.077   3.806 -1.3381  0.3979 -0.6911
13495TIP3   OH261899   3.426   1.229  15.438 -0.0416  0.1645  0.2386
13495TIP3    H161900   3.344   1.192  15.403  0.4216 -0.3184 -0.3649
13495TIP3    H261901   3.449   1.172  15.511  0.5157 -0.5869 -0.5070
13496TIP3   OH261902   5.040   1.155   3.648 -0.3074 -0.7863  0.6963
13496TIP3    H161903   5.084   1.218   3.591  1.0594  0.1776  2.7078
13496TIP3    H261904   5.014   1.084   3.590  2.0662 -0.4199 -0.9291
13497TIP3   OH261905   2.041   6.287   2.912  0.2729 -0.2738  0.3967
13497TIP3    H161906   2.032   6.239   2.994  0.1610 -0.9063  0.0190
13497TIP3    H261907   2.044   6.219   2.845  2.6664  0.1230  0.0434
13498TIP3   OH261908   0.506   2.457   1.941  0.2879 -0.3895 -0.1004
13498TIP3    H161909   0.564   2.507   1.998  0.4972  1.9291 -2.1799
13498TIP3    H261910   0.442   2.418   2.000  2.2252 -0.6118  1.9686
13499TIP3   OH261911   3.817   3.564  13.214 -0.1293  0.4258  0.9783
13499TIP3    H161912   3.822   3.515  13.296  0.1485 -1.0580  0.1273
13499TIP3    H261913   3.776   3.503  13.152 -1.0011  1.7622  0.1857
13500TIP3   OH261914   2.604   6.060  15.935 -0.0930 -0.1768 -0.4839
13500TIP3    H161915   2.541   5.998  15.974  0.9416  0.3470  2.2856
13500TIP3    H261916   2.690   6.025  15.960  0.5295  2.1559  0.9641
13501TIP3   OH261917   6.161   2.922   5.429  0.3741  0.9126 -0.0060
13501TIP3    H161918   6.172   2.996   5.489  1.8805  1.1996 -0.5680
13501TIP3    H261919   6.194   2.954   5.345 -0.5598  0.1351 -0.6952
13502TIP3   OH261920   0.112   1.683  14.777 -0.2675  0.0699 -0.1984
13502TIP3    H161921   0.053   1.756  14.798  0.1448 -0.0533  1.5494
13502TIP3    H261922   0.166   1.716  14.705 -0.7441  1.1279 -0.0940
13503TIP3   OH261923   3.802   3.052  16.999 -0.5785  0.2470  0.2459
13503TIP3    H161924   3.843   3.012  17.075 -1.4555 -0.2649  0.4665
13503TIP3    H261925   3.713   3.074  17.028 -0.6429  0.8525 -0.3703
13504TIP3   OH261926   5.387   5.389   4.951  0.3598  0.1056 -0.1436
13504TIP3    H161927   5.401   5.477   4.985  1.2701 -0.5701  1.3187
13504TIP3    H261928   5.384   5.333   5.028  0.5685 -1.2586 -1.0859
13505TIP3   OH261929   0.766   0.572  12.536 -0.0281  0.4231  0.0562
13505TIP3    H161930   0.679   0.550  12.572  0.4660 -1.2914  0.3221
13505TIP3    H261931   0.751   0.580  12.442 -0.2092 -1.8157 -0.1818
13506TIP3   OH261932   2.176   5.651   5.168 -0.1845  0.3413  0.3885
13506TIP3    H161933   2.134   5.570   5.141  0.7025 -0.7841  2.1905
13506TIP3    H261934   2.241   5.669   5.100 -1.5512  0.5139 -0.9052
13507TIP3   OH261935   0.586   4.096  10.734 -0.3493  0.6774 -0.1183
13507TIP3    H161936   0.609   4.188  10.745  1.0067  0.7705 -2.8926
13507TIP3    H261937   0.492   4.097  10.713 -0.0955  1.5866 -1.3332
13508TIP3   OH261938   2.253   4.982   5.257  0.2320 -0.5995  0.7127
13508TIP3    H161939   2.285   5.072   5.263  0.4866 -0.7803  4.0868
13508TIP3    H261940   2.332   4.930   5.242  0.7479 -0.5156  2.7968
13509TIP3   OH261941   4.976   5.423  14.172  0.3674  0.7047  0.0597
13509TIP3    H161942   4.890   5.422  14.214 -0.3092  0.4103 -1.2567
13509TIP3    H261943   4.974   5.348  14.112  2.3831 -0.6116  1.5407
13510TIP3   OH261944   1.083   3.324   5.628  0.6358  0.5341 -0.4065
13510TIP3    H161945   1.098   3.238   5.668 -0.6129  0.8321  0.7553
13510TIP3    H261946   1.076   3.306   5.534  0.6802 -0.5895 -0.2053
13511TIP3   OH261947   5.285   3.864  16.588  0.1519 -0.5732 -0.4920
13511TIP3    H161948   5.194   3.892  16.603  0.7153  0.1547  2.1890
13511TIP3    H261949   5.280   3.768  16.595 -0.4983 -0.5952 -1.0836
13512TIP3   OH261950   4.607   6.025  15.969  0.2295 -0.2321 -0.4759
13512TIP3    H161951   4.697   5.995  15.967 -0.1522 -1.5265 -3.2387
13512TIP3    H261952   4.564   5.971  16.035  1.5668  0.9140  1.4097
13513TIP3   OH261953   4.214   4.246   0.870  0.1761  0.3780 -0.6309
13513TIP3    H161954   4.224   4.168   0.924  0.3267  0.7865 -0.0559
13513TIP3    H261955   4.281   4.306   0.903 -0.9601  1.3411  0.0060
13514TIP3   OH261956   6.111   1.064  16.702  0.0300 -0.5473 -0.6308
13514TIP3    H161957   6.026   1.023  16.684 -0.1816 -0.2323 -0.3612
13514TIP3    H261958   6.133   1.111  16.621 -1.2818  1.5067  0.1349
13515TIP3   OH261959   5.948   1.261  13.087  0.3520 -0.0672 -0.8362
13515TIP3    H161960   5.938   1.223  13.174  0.0647 -1.6293 -1.5246
13515TIP3    H261961   6.015   1.329  13.098  2.4733 -2.1675  0.0711
13516TIP3   OH261962   6.736   2.930   0.143 -0.5137 -0.1883  0.2793
13516TIP3    H161963   6.816   2.883   0.166 -1.0600 -1.5427 -0.4420
13516TIP3    H261964   6.729   2.921   0.048 -0.3240  1.9419  0.0211
13517TIP3   OH261965   5.783   5.981   3.344  0.4701 -0.7152  0.2468
13517TIP3    H161966   5.843   6.049   3.313  0.2823 -1.2293 -1.3446
13517TIP3    H261967   5.726   6.026   3.407  1.3084  0.2249  0.3626
13518TIP3   OH261968   3.470   6.164  10.797  0.4618 -0.6369 -0.3742
13518TIP3    H161969   3.394   6.186  10.743  0.6191  1.9492  0.3247
13518TIP3    H261970   3.436   6.157  10.886  0.9470  0.0623 -0.1250
13519TIP3   OH261971   4.559   5.458  12.862 -0.4267  0.2339 -0.5120
13519TIP3    H161972   4.480   5.407  12.883  0.2464 -0.0232  1.7686
13519TIP3    H261973   4.604   5.405  12.797 -0.8032 -1.0636  0.2235
13520TIP3   OH261974   2.553   6.033   0.370  0.5005 -0.2221  0.5257
13520TIP3    H161975   2.576   6.102   0.433  2.2648  0.6678 -1.0129
13520TIP3    H261976   2.634   5.986   0.355 -0.9004 -3.5728  2.4685
13521TIP3   OH261977   6.718   4.505   0.695 -0.2131  0.1231  0.2643
13521TIP3    H161978   6.761   4.527   0.778 -0.0138 -0.1686  0.2405
13521TIP3    H261979   6.786   4.461   0.644 -0.5185 -0.2692  0.1946
13522TIP3   OH261980   2.149   3.464  13.220  0.0775 -0.0914  0.2797
13522TIP3    H161981   2.173   3.371  13.214 -0.8124 -0.4665  1.9997
13522TIP3    H261982   2.233   3.510  13.220  0.5054 -0.7910 -1.5621
13523TIP3   OH261983   6.044   6.426   1.594  0.0383  0.2303  0.1163
13523TIP3    H161984   6.104   6.459   1.661  1.5533  3.5003 -2.5718
13523TIP3    H261985   6.098   6.370   1.539 -0.4500 -0.0931 -0.0382
13524TIP3   OH261986   0.800   6.659   2.544  0.0337  0.3291  0.4813
13524TIP3    H161987   0.826   6.566   2.546  1.4814  0.6474 -1.2084
13524TIP3    H261988   0.706   6.657   2.559  0.0462 -1.4143  0.6311
13525TIP3   OH261989   2.806   3.754   0.201  0.1408  0.3560  0.0322
13525TIP3    H161990   2.818   3.806   0.281  0.7910  0.3430 -0.0447
13525TIP3    H261991   2.841   3.809   0.131 -2.2580  1.2024 -0.5657
13526TIP3   OH261992   0.957   3.949  16.942 -0.0253 -0.6602 -0.3552
13526TIP3    H161993   0.933   3.866  16.985  0.0727 -0.3848  0.2385
13526TIP3    H261994   1.007   3.996  17.008  2.1964 -1.2230 -1.5560
13527TIP3   OH261995   0.807   2.445  15.203  0.1089  0.3600 -0.1646
13527TIP3    H161996   0.871   2.377  15.224  1.2620  1.2242 -0.7126
13527TIP3    H261997   0.742   2.441  15.273  0.8127 -0.5034  0.4496
13528TIP3   OH261998   4.756   6.222   5.902  0.1239 -0.2151 -0.4191
13528TIP3    H161999   4.747   6.128   5.915  1.5959 -0.6177 -1.9603
13528TIP3    H262000   4.802   6.253   5.980  0.5227 -0.9356 -0.3597
13529TIP3   OH262001   3.733   0.711  16.133 -0.0681  0.4546 -0.1953
13529TIP3    H162002   3.671   0.639  16.148 -0.6731  0.8521 -0.6957
13529TIP3    H262003   3.798   0.675  16.073 -1.8477  1.0562 -2.6310
13530TIP3   OH262004   4.445   0.540  15.092 -0.1859 -0.5915  0.0772
13530TIP3    H162005   4.357   0.546  15.055  0.2390 -0.3302 -0.9366
13530TIP3    H262006   4.438   0.474  15.160 -1.4314  0.2563  0.8162
13531TIP3   OH262007   6.777   2.918   1.104  0.0776 -0.4664  0.2986
13531TIP3    H162008   6.704   2.933   1.044  1.7112 -1.1763 -2.0149
13531TIP3    H262009   6.799   3.005   1.137 -0.2362  0.1289 -0.9824
13532TIP3   OH262010   5.939   6.259   5.802  0.0259  0.2644 -0.3291
13532TIP3    H162011   5.853   6.300   5.814  0.5710  1.1321  0.6888
13532TIP3    H262012   5.918   6.173   5.765 -1.3022  0.3475  0.1507
13533TIP3   OH262013   1.871   1.548  16.817 -0.1311  0.0200  0.1477
13533TIP3    H162014   1.821   1.494  16.878  1.2045  0.7310  1.9817
13533TIP3    H262015   1.805   1.600  16.771 -1.4149 -2.8795 -1.4942
13534TIP3   OH262016   0.306   5.244   6.189 -0.1056  0.4746 -0.3517
13534TIP3    H162017   0.278   5.198   6.110 -1.2122  0.7760 -0.1523
13534TIP3    H262018   0.389   5.202   6.213 -1.5679 -2.2588  0.4386
13535TIP3   OH262019   0.811   3.076  13.838  0.2932 -0.1816 -0.0894
13535TIP3    H162020   0.882   3.084  13.902  0.0225 -0.9087  0.3100
13535TIP3    H262021   0.788   2.983  13.839 -2.1027  0.3413  1.3540
13536TIP3   OH262022   5.680   5.539   4.287 -0.3626  0.5640  0.1289
13536TIP3    H162023   5.616   5.495   4.230 -0.0504  0.1968  0.0587
13536TIP3    H262024   5.686   5.482   4.364 -0.5103  0.8709  0.3699
13537TIP3   OH262025   1.284   4.175   5.894  0.1055 -0.3178  0.3050
13537TIP3    H162026   1.193   4.154   5.910 -0.2670  0.2261 -1.0020
13537TIP3    H262027   1.330   4.144   5.972 -1.6039  2.3881  2.5992
13538TIP3   OH262028   6.421   6.111   3.780  0.0018  0.4987 -0.2309
13538TIP3    H162029   6.406   6.056   3.702 -0.8273  1.2846 -0.6391
13538TIP3    H262030   6.352   6.086   3.840  0.2270  0.3941 -0.0128
13539TIP3   OH262031   4.798   4.987  12.350  0.3620 -0.8668  0.4714
13539TIP3    H162032   4.780   4.935  12.428  0.0803 -2.5360 -0.6761
13539TIP3    H262033   4.722   4.973  12.294  0.7827 -0.0620 -0.3163
13540TIP3   OH262034   4.208   2.252   2.583 -0.0456 -0.1346 -0.6680
13540TIP3    H162035   4.289   2.297   2.561  0.7666 -2.1107 -1.9947
13540TIP3    H262036   4.145   2.283   2.518 -0.6805  2.0580  0.8837
13541TIP3   OH262037   0.323   6.084  14.607 -0.0914  0.0379  0.4094
13541TIP3    H162038   0.285   6.151  14.663  1.1278  2.8759 -1.9146
13541TIP3    H262039   0.305   6.113  14.517  1.1273 -2.3830 -0.7339
13542TIP3   OH262040   1.625   0.596  14.255  0.0020 -0.0033  0.6145
13542TIP3    H162041   1.558   0.558  14.311 -0.9718  1.7156  0.6765
13542TIP3    H262042   1.622   0.544  14.175 -1.5765  0.1739  0.5303
13543TIP3   OH262043   3.505   1.203  11.823  0.0892  0.2574  0.5052
13543TIP3    H162044   3.596   1.174  11.829 -0.4356 -1.1474  2.6775
13543TIP3    H262045   3.455   1.123  11.804 -0.5776  1.3581 -3.4586
13544TIP3   OH262046   1.225   6.376  11.705 -0.3475  0.3045  0.6507
13544TIP3    H162047   1.295   6.439  11.721  2.0625 -1.4586 -1.9212
13544TIP3    H262048   1.175   6.413  11.633  0.4725 -0.2207 -0.2093
13545TIP3   OH262049   0.420   4.358  13.780 -0.7077 -0.0096  0.3265
13545TIP3    H162050   0.444   4.445  13.812 -1.0585  0.2601 -0.1224
13545TIP3    H262051   0.465   4.351  13.696  0.4416 -0.8234  0.9825
13546TIP3   OH262052   4.275   2.207  12.842  0.3914  0.2481  0.6505
13546TIP3    H162053   4.343   2.141  12.833  0.5967  0.3748  1.1996
13546TIP3    H262054   4.202   2.174  12.792  0.8191  0.0534  0.1510
13547TIP3   OH262055   6.367   4.158  13.579 -0.4415 -0.2637 -0.4284
13547TIP3    H162056   6.378   4.220  13.507  0.4141 -0.3642 -0.3938
13547TIP3    H262057   6.442   4.099  13.572 -0.1163 -0.0214  0.7849
13548TIP3   OH262058   2.137   4.887  11.601 -0.6438  0.4316 -1.0204
13548TIP3    H162059   2.230   4.912  11.599 -1.0125  2.0597  0.1636
13548TIP3    H262060   2.090   4.970  11.606 -2.1043 -0.4103 -0.1171
13549TIP3   OH262061   2.243   4.470   6.899  0.1110 -0.7558 -0.0195
13549TIP3    H162062   2.228   4.434   6.811  0.4367 -0.7436 -0.0812
13549TIP3    H262063   2.307   4.411   6.939  3.7057  1.7710 -1.5073
13550TIP3   OH262064   5.331   0.019  16.588 -0.7645 -0.0424  0.2042
13550TIP3    H162065   5.341  -0.013  16.677  1.0547  1.2423  0.5272
13550TIP3    H262066   5.287  -0.052  16.541 -0.2789 -1.4132  1.7361
13551TIP3   OH262067   3.311   1.559   2.834  0.0982 -0.0768 -0.0777
13551TIP3    H162068   3.359   1.517   2.905 -1.3013 -2.4498 -0.4144
13551TIP3    H262069   3.364   1.542   2.756  1.6139  2.4932  0.2832
13552TIP3   OH262070   0.516   6.317   0.927  0.1201 -0.9157  0.1145
13552TIP3    H162071   0.435   6.336   0.879  1.1137  0.1953 -1.2065
13552TIP3    H262072   0.585   6.322   0.861  1.1931 -2.9072  1.0005
13553TIP3   OH262073   5.612   2.174  13.040  0.2719 -0.2334  0.0710
13553TIP3    H162074   5.685   2.210  13.092  2.1454 -1.0135 -1.8774
13553TIP3    H262075   5.591   2.243  12.978 -0.0185 -0.3738  0.0152
13554TIP3   OH262076   1.837   6.208  16.515  0.3764  0.1024 -0.0298
13554TIP3    H162077   1.898   6.137  16.532  2.2107  1.6416  0.1708
13554TIP3    H262078   1.858   6.237  16.426 -0.4535  0.2944 -0.1718
13555TIP3   OH262079   6.195   6.305   4.735  0.2124  0.2105  0.0136
13555TIP3    H162080   6.276   6.264   4.765  1.1129  0.7315 -1.5453
13555TIP3    H262081   6.160   6.244   4.670 -0.7986 -0.1284  0.8539
13556TIP3   OH262082   6.538   5.042   1.052 -0.6132  0.1201 -0.3331
13556TIP3    H162083   6.455   5.048   1.098 -0.3936  2.6268 -0.1576
13556TIP3    H262084   6.578   5.128   1.062  2.4061 -1.2218  0.2647
13557TIP3   OH262085   6.686   3.655  15.894 -0.3422  0.3254 -0.0024
13557TIP3    H162086   6.599   3.645  15.856 -0.1588 -0.2809 -0.2723
13557TIP3    H262087   6.695   3.749  15.911 -1.6829  0.2125  1.5341
13558TIP3   OH262088   4.474   3.531  11.365 -0.6122 -0.0264 -0.6459
13558TIP3    H162089   4.461   3.449  11.316  0.1539 -0.7335  0.2938
13558TIP3    H262090   4.407   3.529  11.433  1.8638 -1.9509  1.9739
13559TIP3   OH262091   0.746   3.916   4.898  0.5549  0.2901 -0.3243
13559TIP3    H162092   0.793   3.972   4.959  0.1924 -0.1307  0.3439
13559TIP3    H262093   0.790   3.831   4.902 -0.5017 -0.2315  0.6233
13560TIP3   OH262094   1.223   4.547  15.232 -0.1925 -0.4375 -0.1590
13560TIP3    H162095   1.192   4.457  15.227 -0.4748 -0.3204 -0.6662
13560TIP3    H262096   1.281   4.549  15.308 -0.4008 -0.9780  0.0182
13561TIP3   OH262097   1.046   0.288   5.601  0.1845  0.0158  0.4044
13561TIP3    H162098   1.045   0.377   5.636 -0.5543  0.8612 -1.6086
13561TIP3    H262099   0.966   0.282   5.547  0.6889 -1.5413 -0.2519
13562TIP3   OH262100   3.352   1.964   5.436 -0.3910 -0.0705 -0.2047
13562TIP3    H162101   3.356   1.977   5.342  1.3756  0.7689 -0.0719
13562TIP3    H262102   3.259   1.967   5.458 -0.9992 -2.2648 -2.1312
13563TIP3   OH262103   3.103   4.028  12.662  0.1534  0.2561 -0.5160
13563TIP3    H162104   3.162   3.970  12.710  0.5267 -0.3901 -1.7117
13563TIP3    H262105   3.130   4.019  12.571  0.2288  2.3352 -0.7385
13564TIP3   OH262106   0.528   2.837  16.290  0.0721  0.0196  0.1646
13564TIP3    H162107   0.472   2.872  16.220 -2.0804 -0.7483  1.4117
13564TIP3    H262108   0.608   2.889  16.285 -0.4876  0.7937 -2.0780
13565TIP3   OH262109   4.870   5.463  11.119  0.6745  0.4219 -0.0697
13565TIP3    H162110   4.853   5.555  11.142  0.7121  0.5126 -0.3997
13565TIP3    H262111   4.798   5.439  11.061  1.7107  0.8562 -1.5912
13566TIP3   OH262112   2.706   5.731   1.448 -0.0343  1.0998  0.8096
13566TIP3    H162113   2.773   5.665   1.428  0.8845  1.5361  2.3194
13566TIP3    H262114   2.707   5.790   1.372  0.0901  0.1661  0.0610
13567TIP3   OH262115   0.806   6.674   3.843 -0.1088 -0.3168 -0.0062
13567TIP3    H162116   0.711   6.683   3.841 -0.1319 -0.1045  1.1916
13567TIP3    H262117   0.821   6.589   3.883  0.1983  0.3444  1.3406
13568TIP3   OH262118   2.562   3.884   2.823  0.0757  0.3604  0.2287
13568TIP3    H162119   2.646   3.921   2.851  1.0363 -1.2220 -0.4043
13568TIP3    H262120   2.585   3.797   2.788 -1.6207  0.5040 -1.3831
13569TIP3   OH262121   0.860   0.542   3.361  0.0842  0.2970  0.1642
13569TIP3    H162122   0.796   0.477   3.331  0.0378  0.2060  0.4565
13569TIP3    H262123   0.905   0.499   3.434 -0.9784  1.1407  1.3452
13570TIP3   OH262124   4.880   6.782   4.355 -0.1337  0.0456  0.0590
13570TIP3    H162125   4.792   6.748   4.369  0.0064 -0.3843 -0.0711
13570TIP3    H262126   4.892   6.849   4.423 -0.5852  0.1597  0.0266
13571TIP3   OH262127   1.852   1.943   5.366  0.5603 -1.1183  0.1652
13571TIP3    H162128   1.915   1.895   5.420 -0.8155 -1.4641  1.5215
13571TIP3    H262129   1.900   2.021   5.338  1.9184 -1.8694  0.2727
13572TIP3   OH262130   5.446   3.769   1.335 -0.1709 -0.5958 -0.0652
13572TIP3    H162131   5.392   3.746   1.411  0.5808 -0.4218  0.5340
13572TIP3    H262132   5.383   3.800   1.270 -0.9718 -2.1115 -0.0510
13573TIP3   OH262133   1.256   4.560  16.607 -0.3451 -0.6714  0.1811
13573TIP3    H162134   1.243   4.543  16.700 -0.4358 -0.9774  0.1140
13573TIP3    H262135   1.224   4.480  16.563  1.4324 -1.3289 -0.0071
13574TIP3   OH262136   0.908   2.146   4.006  0.0781 -0.0674  0.1020
13574TIP3    H162137   0.955   2.064   4.021  0.4339  0.3667  1.6200
13574TIP3    H262138   0.950   2.185   3.929  0.8761 -0.6337  0.2387
13575TIP3   OH262139   3.923   1.169  16.555 -0.4354  0.1694  0.0016
13575TIP3    H162140   3.969   1.240  16.511 -0.1065  0.5102  0.8788
13575TIP3    H262141   3.830   1.190  16.543 -0.3469  0.3918 -0.3118
13576TIP3   OH262142   0.405   2.235  16.140  0.0591  0.0853 -0.8280
13576TIP3    H162143   0.400   2.280  16.055 -3.3366  2.0219  0.2329
13576TIP3    H262144   0.375   2.146  16.121  0.9487 -0.0059 -1.9124
13577TIP3   OH262145   2.564   5.371   1.368  0.0932  0.0962 -0.0362
13577TIP3    H162146   2.478   5.331   1.381  0.1246 -0.0060 -0.1419
13577TIP3    H262147   2.599   5.328   1.290  0.0334  0.4907 -0.2862
13578TIP3   OH262148   5.941   0.872  12.626 -0.5497  0.0576 -0.6203
13578TIP3    H162149   5.863   0.925  12.610 -1.8752 -2.3852 -3.0042
13578TIP3    H262150   5.910   0.799  12.678  0.4617 -0.2561 -0.4356
13579TIP3   OH262151   4.302   4.630  12.941 -0.0868 -0.0892  0.1424
13579TIP3    H162152   4.388   4.641  12.899  0.3309  1.0834  1.2196
13579TIP3    H262153   4.304   4.541  12.977  2.0531  0.9133  2.9299
13580TIP3   OH262154   6.700   3.846   4.173 -0.4593  0.1362 -0.2949
13580TIP3    H162155   6.723   3.835   4.081 -0.5497 -2.1955 -0.1059
13580TIP3    H262156   6.783   3.865   4.216 -0.6665  3.0975 -1.0281
13581TIP3   OH262157   3.689   2.371   4.526  0.8897  0.3883 -0.2628
13581TIP3    H162158   3.642   2.435   4.580  1.1774  0.2679  0.1335
13581TIP3    H262159   3.771   2.414   4.504  1.1052  0.1376  0.0468
13582TIP3   OH262160   6.724   2.187  16.369 -0.1339  0.7101 -0.0193
13582TIP3    H162161   6.762   2.104  16.340 -0.8464  0.2753  0.2302
13582TIP3    H262162   6.719   2.241  16.291  1.0453  0.8121 -0.0395
13583TIP3   OH262163   1.930   3.756  15.896  0.2386 -0.1481  0.2489
13583TIP3    H162164   1.964   3.817  15.962  0.9840  1.3357 -1.4146
13583TIP3    H262165   2.007   3.727  15.848 -0.1510 -2.1900  0.7688
13584TIP3   OH262166   6.755   2.015  14.484  0.3144 -0.6269  0.3280
13584TIP3    H162167   6.847   2.033  14.469  0.2596 -1.0241 -0.5329
13584TIP3    H262168   6.738   2.050  14.572  1.4675 -1.2930  0.8357
13585TIP3   OH262169   0.830   3.997   3.050 -0.1903 -0.7834  0.1310
13585TIP3    H162170   0.755   4.048   3.081  0.4782  1.3858 -1.5775
13585TIP3    H262171   0.799   3.955   2.969 -0.2313 -1.7476  0.6385
13586TIP3   OH262172   0.544   1.968   1.743 -0.3120  0.2529  0.2016
13586TIP3    H162173   0.519   2.054   1.778 -1.6285 -0.0375  0.0154
13586TIP3    H262174   0.472   1.911   1.767  1.5249 -1.3536  2.2852
13587TIP3   OH262175   2.877   3.212   4.135  0.5698  0.8178 -0.2409
13587TIP3    H162176   2.782   3.224   4.135  0.5380  0.9283 -2.3474
13587TIP3    H262177   2.909   3.274   4.201 -0.7081  1.8868 -0.5867
13588TIP3   OH262178   3.216   1.203   3.395 -0.3696 -0.1166  0.1189
13588TIP3    H162179   3.283   1.167   3.336 -0.9772 -0.4710 -0.3737
13588TIP3    H262180   3.180   1.127   3.439  0.5516  0.2124  1.4816
13589TIP3   OH262181   4.336   5.318  13.664 -0.5451  0.2564 -0.5261
13589TIP3    H162182   4.262   5.298  13.607 -0.7985  1.7214 -0.7403
13589TIP3    H262183   4.301   5.379  13.729  0.0119 -0.5276  0.5552
13590TIP3   OH262184   1.801   4.668   4.461  0.0121 -0.0849  0.6035
13590TIP3    H162185   1.741   4.600   4.492 -1.1208 -0.3774 -2.0023
13590TIP3    H262186   1.748   4.747   4.458  0.3384  0.1201  0.2092
13591TIP3   OH262187   4.028   2.694  15.610  0.7325  0.0056  0.5921
13591TIP3    H162188   4.004   2.773  15.560  1.0547  0.6276  1.3929
13591TIP3    H262189   4.118   2.676  15.584  0.2526 -0.8757 -0.5568
13592TIP3   OH262190   1.266   4.974   1.425  0.0144 -0.1286  0.2238
13592TIP3    H162191   1.173   4.968   1.405 -0.3116  0.7531  1.3723
13592TIP3    H262192   1.309   4.923   1.356 -1.2981 -0.4268 -0.3992
13593TIP3   OH262193   3.321   2.094   2.821 -0.3291  0.2268  0.3881
13593TIP3    H162194   3.396   2.153   2.822  0.7331 -1.0763  0.3404
13593TIP3    H262195   3.301   2.083   2.728 -0.0632 -0.0348  0.3584
13594TIP3   OH262196   0.546   6.380  11.324  0.5038 -0.4316 -0.0409
13594TIP3    H162197   0.507   6.350  11.241  0.9382  1.9199 -1.1642
13594TIP3    H262198   0.589   6.302  11.359 -1.5267 -2.0451 -0.9026
13595TIP3   OH262199   5.414   5.244   5.614  0.3554 -0.1611  0.1973
13595TIP3    H162200   5.370   5.298   5.678 -1.6724 -1.0807 -0.3449
13595TIP3    H262201   5.387   5.155   5.634  3.1798 -1.0086  0.7356
13596TIP3   OH262202   0.382   6.485  15.338 -0.1281  0.6409 -0.1593
13596TIP3    H162203   0.307   6.493  15.396 -1.1196  0.7155 -1.4035
13596TIP3    H262204   0.429   6.408  15.369  0.0096  1.3244  1.4173
13597TIP3   OH262205   4.313   5.562   0.721 -0.1228 -1.0950  0.6516
13597TIP3    H162206   4.364   5.509   0.659  1.3894 -0.2524  1.1337
13597TIP3    H262207   4.252   5.500   0.761  1.1817 -2.3573  0.7556
13598TIP3   OH262208   5.128   6.172  15.121  0.3270  0.2578  0.0990
13598TIP3    H162209   5.077   6.225  15.182 -1.1056 -2.8493  1.8508
13598TIP3    H262210   5.066   6.149  15.052  0.5214 -0.1875  0.0668
13599TIP3   OH262211   4.774   4.425  13.537  0.6109 -0.1840  0.0860
13599TIP3    H162212   4.694   4.470  13.564 -0.1263 -1.4121  0.0132
13599TIP3    H262213   4.845   4.474  13.580 -0.2188  0.5443  0.6534
13600TIP3   OH262214   4.640   6.083  14.046  0.0269 -0.1041 -0.2428
13600TIP3    H162215   4.579   6.155  14.034  0.9421  1.1465  2.0527
13600TIP3    H262216   4.623   6.025  13.972 -1.1964  2.1096 -1.8175
13601TIP3   OH262217   3.344   6.063  14.967  0.1162  0.0255  0.0064
13601TIP3    H162218   3.287   6.053  14.891 -0.3834 -1.0553  0.4978
13601TIP3    H262219   3.343   6.156  14.986 -1.3082  0.0632 -0.1503
13602TIP3   OH262220   2.308   1.235   3.205  0.0592 -0.0198  0.4348
13602TIP3    H162221   2.239   1.168   3.208 -0.4172  0.4125 -0.5465
13602TIP3    H262222   2.261   1.318   3.196  0.6931  0.3011 -0.0120
13603TIP3   OH262223   0.267   2.049   5.627 -0.7101 -0.5323 -0.3069
13603TIP3    H162224   0.325   1.992   5.677  0.3779  0.3444 -0.5203
13603TIP3    H262225   0.319   2.075   5.551 -2.2584 -1.6684 -1.8150
13604TIP3   OH262226   2.851   2.761  14.530 -0.0295  0.1773 -0.0753
13604TIP3    H162227   2.910   2.797  14.464  0.1096 -2.0451 -1.2594
13604TIP3    H262228   2.899   2.768  14.612  1.1452  0.0343 -0.7345
13605TIP3   OH262229   4.036   3.884   2.221  0.4056  0.2256  0.5768
13605TIP3    H162230   3.974   3.941   2.175  1.2349  0.8007  0.1345
13605TIP3    H262231   3.998   3.796   2.215 -0.9038  0.7048  1.2736
13606TIP3   OH262232   4.222   5.717  16.944 -0.0934  0.0483 -0.1593
13606TIP3    H162233   4.239   5.765  16.863 -1.7729  0.4944 -0.2885
13606TIP3    H262234   4.305   5.673  16.964  0.5406  0.4427 -1.7624
13607TIP3   OH262235   3.239   2.748  16.458  0.0245  0.1674  0.3647
13607TIP3    H162236   3.143   2.754  16.449 -0.0113 -0.4046  0.3106
13607TIP3    H262237   3.253   2.666  16.506  0.6759 -2.2097 -3.4952
13608TIP3   OH262238   6.285   6.446  13.982  0.4581  0.3377 -0.1863
13608TIP3    H162239   6.333   6.434  13.900  0.4281  1.6376 -0.4161
13608TIP3    H262240   6.351   6.476  14.045  0.5646 -1.0682  0.4019
13609TIP3   OH262241   1.911   4.785  16.434  0.6460 -0.7089  0.5002
13609TIP3    H162242   1.899   4.775  16.339 -1.1299 -0.3597  0.6480
13609TIP3    H262243   1.951   4.872  16.444 -1.1164  0.1879  0.1445
13610TIP3   OH262244   5.628   6.006   1.176  0.3146  0.0088 -0.2308
13610TIP3    H162245   5.637   5.982   1.268  0.1017  0.3508 -0.1205
13610TIP3    H262246   5.535   6.029   1.166  1.0237  3.7886  0.3879
13611TIP3   OH262247   3.632   3.845   4.986 -0.3830 -0.2941 -0.1692
13611TIP3    H162248   3.599   3.932   5.009 -1.0042 -0.8728  1.2789
13611TIP3    H262249   3.681   3.816   5.063  0.7824 -0.7886 -1.0608
13612TIP3   OH262250   6.252   2.619   4.814 -0.4077  0.1448 -0.5576
13612TIP3    H162251   6.200   2.687   4.770 -1.4258 -0.3897 -0.2032
13612TIP3    H262252   6.262   2.651   4.904  0.6441  0.6595 -0.8377
13613TIP3   OH262253   6.749   0.500   5.330  0.1654  0.7108  0.3893
13613TIP3    H162254   6.822   0.448   5.297  0.9507  2.3684 -0.6500
13613TIP3    H262255   6.679   0.437   5.347  1.5281 -0.8081  0.5299
13614TIP3   OH262256   6.397   4.114  14.937 -0.7194  0.3829 -0.7759
13614TIP3    H162257   6.405   4.173  14.862 -2.6363  0.9539 -0.6051
13614TIP3    H262258   6.485   4.107  14.973 -0.2008  2.0036 -1.6563
13615TIP3   OH262259   5.892   2.271   3.313  0.0775 -0.3095 -0.7175
13615TIP3    H162260   5.831   2.225   3.256  1.2959 -1.6267 -1.0169
13615TIP3    H262261   5.974   2.221   3.307  0.4766 -0.0691  1.5801
13616TIP3   OH262262   0.211   0.417   3.231 -0.1551  0.2953  0.3373
13616TIP3    H162263   0.181   0.490   3.177  0.5589 -0.8088 -1.6429
13616TIP3    H262264   0.132   0.383   3.273 -1.2813 -0.6096 -2.3377
13617TIP3   OH262265   3.096   5.885   5.681 -0.2198  0.2545 -0.0527
13617TIP3    H162266   3.120   5.963   5.631  1.2098  1.4381  2.3302
13617TIP3    H262267   3.149   5.815   5.641  0.9472  1.1765 -0.1612
13618TIP3   OH262268   5.488   4.762   4.309 -0.2891  0.2946  0.3096
13618TIP3    H162269   5.456   4.672   4.317 -0.9937  0.3829 -1.0246
13618TIP3    H262270   5.531   4.764   4.223 -0.4023  1.2524  0.2625
13619TIP3   OH262271   3.945   2.508  13.532  0.3255  0.3051 -0.3833
13619TIP3    H162272   3.985   2.570  13.594 -0.5628  0.8635 -0.3454
13619TIP3    H262273   4.019   2.470  13.485  1.2302 -1.6781  2.3904
13620TIP3   OH262274   2.142   3.267   5.114  0.0649  0.4496 -0.2165
13620TIP3    H162275   2.153   3.180   5.153  0.2038  1.4172  2.0768
13620TIP3    H262276   2.229   3.292   5.085  0.9571  1.3977  2.8728
13621TIP3   OH262277   5.155   5.411   4.787 -0.1488 -1.3583  0.3217
13621TIP3    H162278   5.235   5.393   4.837 -1.1360 -0.7865  2.1911
13621TIP3    H262279   5.167   5.499   4.752 -0.3950 -0.7978  1.5787
13622TIP3   OH262280   4.476   5.068   3.334 -0.1811  0.1326 -0.3006
13622TIP3    H162281   4.477   4.973   3.339  2.1954  0.1054 -0.2939
13622TIP3    H262282   4.422   5.095   3.408 -0.5140 -1.1952 -0.0372
13623TIP3   OH262283   5.693   3.701   2.208 -0.0087 -0.0455  0.5624
13623TIP3    H162284   5.683   3.622   2.155 -0.8940 -0.2484  1.0138
13623TIP3    H262285   5.672   3.773   2.149  0.8204 -0.1362  0.1440
13624TIP3   OH262286   2.932   5.324  16.057  0.0638 -0.2586 -0.3870
13624TIP3    H162287   2.905   5.297  16.145  0.5960 -0.6422 -0.3385
13624TIP3    H262288   3.026   5.342  16.065  0.7129 -2.7516 -1.4115
13625TIP3   OH262289   3.166   0.196  13.743 -0.8205 -0.3827 -0.3719
13625TIP3    H162290   3.099   0.224  13.681 -0.4743  0.0047 -0.5713
13625TIP3    H262291   3.236   0.160  13.689 -0.2634  0.4851 -0.2521
13626TIP3   OH262292   2.708   2.309   1.813 -0.0916  0.3583  0.5527
13626TIP3    H162293   2.633   2.269   1.857  1.4621 -1.6132  1.5419
13626TIP3    H262294   2.765   2.338   1.885  1.6628 -1.3022 -0.1016
13627TIP3   OH262295   3.563   4.952  14.084  0.1615  0.1966 -0.1639
13627TIP3    H162296   3.637   5.004  14.115  0.6640 -0.6493  0.1125
13627TIP3    H262297   3.516   4.927  14.164  0.6114 -0.7489 -0.1732
13628TIP3   OH262298   3.707   6.339   1.922  0.2910 -0.4081  0.2703
13628TIP3    H162299   3.764   6.415   1.931  1.6959 -1.4441  0.4677
13628TIP3    H262300   3.618   6.373   1.933  0.8305  1.3233 -0.4816
13629TIP3   OH262301   4.434   0.201   5.047  0.3979 -0.4506  0.2726
13629TIP3    H162302   4.420   0.294   5.063  0.4374 -0.6227  1.3730
13629TIP3    H262303   4.401   0.187   4.959  1.5248  0.8400 -0.3930
13630TIP3   OH262304   4.833   1.073   2.136  0.1304 -0.0779 -0.1546
13630TIP3    H162305   4.810   1.162   2.109 -0.1973  0.0618  0.5681
13630TIP3    H262306   4.750   1.034   2.163  0.2044 -0.7503 -0.8550
13631TIP3   OH262307   0.890   6.095   1.156  0.3223 -0.0982 -0.5087
13631TIP3    H162308   0.810   6.127   1.197  1.0045 -0.1906  0.9675
13631TIP3    H262309   0.956   6.102   1.224  1.8069  0.8605 -1.9834
13632TIP3   OH262310   4.746   1.985  13.464 -0.9130 -0.0887  0.5857
13632TIP3    H162311   4.695   2.026  13.394 -0.1827 -1.3947 -0.7827
13632TIP3    H262312   4.682   1.964  13.531 -1.4833  2.1295  0.8216
13633TIP3   OH262313   6.163   2.347  10.572 -0.0399 -0.0126 -0.0616
13633TIP3    H162314   6.206   2.325  10.489 -0.6886  0.3059 -0.4923
13633TIP3    H262315   6.078   2.304  10.567  0.5855 -1.4696  1.2149
13634TIP3   OH262316   6.179   3.203   4.231  0.7522  0.0185  0.1072
13634TIP3    H162317   6.152   3.285   4.273 -1.9490 -0.3970 -0.6000
13634TIP3    H262318   6.097   3.156   4.216  2.1723 -2.6704  0.1181
13635TIP3   OH262319   4.068   6.019   0.186  0.7908  0.0418 -0.1462
13635TIP3    H162320   4.120   6.047   0.261  0.4914  1.8655 -0.5815
13635TIP3    H262321   4.122   5.952   0.144  1.8895  0.4748  0.5322
13636TIP3   OH262322   5.605   5.693  16.911  0.7307 -0.3493 -0.5419
13636TIP3    H162323   5.553   5.773  16.926 -0.0926 -1.1132  0.8657
13636TIP3    H262324   5.544   5.634  16.866  0.9763 -0.5809 -0.5686
13637TIP3   OH262325   5.421   5.097   2.052 -0.5352 -0.4264  0.5362
13637TIP3    H162326   5.373   5.143   1.983 -0.5153 -0.2038  0.6705
13637TIP3    H262327   5.491   5.157   2.076  1.4174 -1.7574 -1.4530
13638TIP3   OH262328   5.230   5.653   5.133  0.1199  0.3632 -0.2746
13638TIP3    H162329   5.157   5.703   5.169  0.4993  0.6804  0.0614
13638TIP3    H262330   5.245   5.691   5.047 -0.5797 -0.1839 -0.6511
13639TIP3   OH262331   4.011   0.005  12.137  0.1221 -0.3638  0.2462
13639TIP3    H162332   3.925  -0.012  12.098  0.5704 -0.9424 -0.5301
13639TIP3    H262333   4.064  -0.070  12.110  1.4300  0.9450 -0.9813
13640TIP3   OH262334   5.191   4.279   3.430  0.0943 -0.0558 -0.2021
13640TIP3    H162335   5.154   4.198   3.466  0.2221 -0.3482 -0.7220
13640TIP3    H262336   5.185   4.268   3.335  2.4133 -0.5348 -0.3357
13641TIP3   OH262337   3.242   1.087  11.983  0.4332  0.1342 -0.3085
13641TIP3    H162338   3.328   1.050  11.963  0.2876  0.3189 -1.3271
13641TIP3    H262339   3.260   1.175  12.015  0.6533 -0.0561  0.1027
13642TIP3   OH262340   2.639   2.549   1.404  0.0081  0.2637 -0.1504
13642TIP3    H162341   2.704   2.531   1.472 -0.8855 -2.1541  0.1791
13642TIP3    H262342   2.690   2.554   1.323  0.9028  1.5626  0.4532
13643TIP3   OH262343   2.974   6.591   1.681 -0.4677  0.1895 -0.1189
13643TIP3    H162344   2.889   6.591   1.726 -0.0877 -0.1259  0.6109
13643TIP3    H262345   2.953   6.613   1.590 -1.2432  0.9316  0.2242
13644TIP3   OH262346   2.663   4.875   4.495  0.2267  0.2059  0.0203
13644TIP3    H162347   2.611   4.798   4.518  1.4685 -0.1600  1.7792
13644TIP3    H262348   2.716   4.848   4.420 -0.1179 -0.2900 -0.0474
13645TIP3   OH262349   1.595   1.557   4.813  0.1563  0.1772 -0.2428
13645TIP3    H162350   1.514   1.596   4.779  1.2792  0.2403 -3.1411
13645TIP3    H262351   1.576   1.464   4.820 -0.3581  0.2797 -0.2357
13646TIP3   OH262352   1.194   0.597  17.012  0.8786 -0.5422 -0.9522
13646TIP3    H162353   1.186   0.687  16.979  0.0048 -0.2419 -0.0036
13646TIP3    H262354   1.275   0.564  16.974  1.4531  0.8077 -0.9673
13647TIP3   OH262355   0.193   5.578   4.731  1.1454 -0.0227 -0.0468
13647TIP3    H162356   0.145   5.612   4.656 -0.1538 -0.4656  0.5668
13647TIP3    H262357   0.249   5.509   4.695 -1.5510 -2.2541 -0.2533
13648TIP3   OH262358   2.129   5.071  12.559 -0.3587 -0.0384 -0.0388
13648TIP3    H162359   2.048   5.021  12.551 -0.2722 -0.2359  0.3055
13648TIP3    H262360   2.197   5.011  12.528 -0.4799  0.5648 -1.5785
13649TIP3   OH262361   3.384   4.084   1.034  0.3641  0.5503  0.5342
13649TIP3    H162362   3.325   4.070   0.961  1.3384  1.1807 -0.4052
13649TIP3    H262363   3.418   4.173   1.021  0.9468  0.4765  1.4508
13650TIP3   OH262364   4.652   5.949   2.811  0.0056  0.2878 -0.2104
13650TIP3    H162365   4.714   5.951   2.738 -0.0520  2.5329 -0.2697
13650TIP3    H262366   4.568   5.972   2.771 -0.3744 -0.1900  0.2986
13651TIP3   OH262367   6.281   1.562  15.724 -0.1926 -0.2151 -0.0381
13651TIP3    H162368   6.232   1.557  15.641 -0.5982 -1.3008  0.2583
13651TIP3    H262369   6.364   1.602  15.700 -0.9166  0.9790 -0.6900
13652TIP3   OH262370   3.492   2.935  13.286 -0.5260  0.1629  0.4801
13652TIP3    H162371   3.571   2.906  13.241 -2.1384 -1.9761 -1.1651
13652TIP3    H262372   3.491   3.030  13.274  1.5579  0.1968  0.2220
13653TIP3   OH262373   5.227   2.255  14.135 -0.1656 -0.4549  0.0948
13653TIP3    H162374   5.267   2.218  14.213 -0.8202 -0.1585  0.5819
13653TIP3    H262375   5.288   2.234  14.064  0.9185  0.1075  0.8242
13654TIP3   OH262376   0.287   2.613  10.789  0.6925 -0.3080 -0.0442
13654TIP3    H162377   0.371   2.652  10.764  1.1003 -1.6362 -0.8567
13654TIP3    H262378   0.276   2.539  10.729 -0.7449 -0.5568  0.4844
13655TIP3   OH262379   0.756   3.210  15.183  0.3377  0.4178 -0.1790
13655TIP3    H162380   0.730   3.302  15.184  0.5056  0.4608  0.4412
13655TIP3    H262381   0.852   3.213  15.178  0.2928  0.2643 -1.6093
13656TIP3   OH262382   6.054   0.245  16.947 -0.0250  0.3262  0.0338
13656TIP3    H162383   6.133   0.297  16.964  0.0873  0.6676 -1.3990
13656TIP3    H262384   5.982   0.301  16.974  0.1989  0.2161  0.8717
13657TIP3   OH262385   3.214   2.090  11.392  0.1584  0.8496 -0.3742
13657TIP3    H162386   3.209   2.063  11.484  0.5606  2.0890  0.0368
13657TIP3    H262387   3.235   2.010  11.344  0.0216  0.2040  0.6189
13658TIP3   OH262388   3.202   3.610  12.317  0.1118 -0.3702 -0.1592
13658TIP3    H162389   3.278   3.552  12.327 -0.2973 -0.6759  1.4941
13658TIP3    H262390   3.127   3.550  12.310  0.0146 -0.0736 -1.9296
13659TIP3   OH262391   2.328   1.364  12.257  0.4543 -0.1929 -0.7915
13659TIP3    H162392   2.319   1.273  12.286 -0.8395 -0.0085 -0.5931
13659TIP3    H262393   2.363   1.357  12.168 -0.0784 -0.8956 -0.9546
13660TIP3   OH262394   0.476   0.483   3.900  0.1770 -0.1510 -0.4207
13660TIP3    H162395   0.520   0.416   3.848  0.3450 -0.6768  0.3674
13660TIP3    H262396   0.398   0.440   3.934 -0.7329  0.6385 -1.4297
13661TIP3   OH262397   1.250   3.034  11.671  0.2762 -0.1787  0.1223
13661TIP3    H162398   1.198   3.027  11.591 -1.4455  0.2169  1.1475
13661TIP3    H262399   1.318   2.968  11.661  0.6418  0.4452 -2.0279
13662TIP3   OH262400   4.007   0.659  16.860  0.4513  0.5283 -0.0956
13662TIP3    H162401   3.942   0.672  16.929  0.8368  0.9610  0.1860
13662TIP3    H262402   4.079   0.613  16.903  0.7358  0.8901 -0.1773
13663TIP3   OH262403   2.861   4.352   0.659 -0.2467  0.0786  0.7096
13663TIP3    H162404   2.943   4.356   0.611  0.6170  1.3890  2.2010
13663TIP3    H262405   2.809   4.425   0.625 -0.5810 -0.3958  0.1788
13664TIP3   OH262406   5.684   6.015   0.849  0.4095  0.9662  0.1029
13664TIP3    H162407   5.773   5.989   0.826  1.1740  0.0399  3.4341
13664TIP3    H262408   5.696   6.092   0.905 -0.8834  0.8325  0.6001
13665TIP3   OH262409   3.432   0.917  11.892  0.9441 -0.2640 -0.0617
13665TIP3    H162410   3.368   0.847  11.881  1.0219 -0.3309 -0.0915
13665TIP3    H262411   3.504   0.876  11.941  0.5215  0.0812  0.8657
13666TIP3   OH262412   2.833   0.852  14.197 -0.3267  0.1414 -0.5389
13666TIP3    H162413   2.759   0.814  14.149 -0.4935  2.1160 -1.9879
13666TIP3    H262414   2.894   0.779  14.207 -1.0250 -0.7713 -2.3332
13667TIP3   OH262415   3.314   4.297  14.204 -0.0272  0.6682 -0.2922
13667TIP3    H162416   3.249   4.310  14.273  0.0963  1.0656 -0.2499
13667TIP3    H262417   3.327   4.202  14.201  0.1285  0.6611  0.3863
13668TIP3   OH262418   5.142   2.675  11.713 -0.0775 -0.2767  0.9017
13668TIP3    H162419   5.107   2.707  11.630  1.0803 -0.0145  0.4924
13668TIP3    H262420   5.227   2.637  11.690  0.3208 -0.0806  1.9796
13669TIP3   OH262421   4.031   6.556   4.459  0.1901 -0.1615 -0.2157
13669TIP3    H162422   3.969   6.594   4.397  0.2753  0.1063 -0.1402
13669TIP3    H262423   4.013   6.602   4.542  1.6706  1.2036 -0.6061
13670TIP3   OH262424   2.748   4.868   2.190 -0.1941  0.2616 -0.5939
13670TIP3    H162425   2.678   4.816   2.152 -2.0914  0.8063  1.9290
13670TIP3    H262426   2.823   4.809   2.194 -1.4967 -1.4364 -0.2869
13671TIP3   OH262427   1.721   5.933   0.442 -0.6089  0.0902 -0.4091
13671TIP3    H162428   1.626   5.928   0.435 -0.4637 -0.2306 -3.8701
13671TIP3    H262429   1.746   6.004   0.384  1.2914  0.3515  0.6336
13672TIP3   OH262430   0.113   2.818  15.780  0.6202  0.8561 -0.0115
13672TIP3    H162431   0.116   2.881  15.708 -2.6093  0.8707 -0.2538
13672TIP3    H262432   0.072   2.865  15.852 -0.7918 -0.5932  0.1802
13673TIP3   OH262433   4.005   5.285  15.515 -0.0345  0.4225  0.1065
13673TIP3    H162434   3.953   5.233  15.575 -0.8961  0.2794 -0.7560
13673TIP3    H262435   4.070   5.224  15.479  1.8190  0.9222  2.3261
13674TIP3   OH262436   3.069   4.044   0.568  0.0585 -0.0548  0.2821
13674TIP3    H162437   3.130   3.994   0.515 -0.8688  0.7855 -1.6651
13674TIP3    H262438   3.089   4.136   0.549 -0.8913  0.2570  0.6957
13675TIP3   OH262439   3.475   4.506   4.594  0.5912 -0.6248  0.0823
13675TIP3    H162440   3.402   4.558   4.628  1.1613  0.9697 -1.0088
13675TIP3    H262441   3.488   4.438   4.659  0.4185  1.1572  2.0935
13676TIP3   OH262442   4.283   1.832  14.661 -0.1521 -0.2647 -0.4060
13676TIP3    H162443   4.315   1.799  14.744  0.6249 -0.2427 -0.6891
13676TIP3    H262444   4.192   1.855  14.678 -0.2221 -0.9829  0.2291
13677TIP3   OH262445   5.349   2.390  11.005 -0.4308 -0.0202 -0.2253
13677TIP3    H162446   5.403   2.469  11.010 -2.3927  1.3478  0.7440
13677TIP3    H262447   5.395   2.332  10.944  0.0036  2.7448 -2.7255
13678TIP3   OH262448   4.692   0.273  11.414 -0.6488 -0.3648 -0.0540
13678TIP3    H162449   4.722   0.337  11.350 -0.6449 -0.1800  0.1333
13678TIP3    H262450   4.744   0.194  11.396 -0.1112 -0.0750  0.2198
13679TIP3   OH262451   2.018   2.990  13.767 -0.1735 -0.3362 -0.4898
13679TIP3    H162452   2.045   3.001  13.858 -0.8625  0.7177 -0.3953
13679TIP3    H262453   1.933   2.946  13.771 -0.5847  0.4319 -0.5749
13680TIP3   OH262454   5.917   0.786   5.230 -0.2831  0.0014  0.1253
13680TIP3    H162455   5.830   0.773   5.268  0.0962  1.2470  1.5421
13680TIP3    H262456   5.974   0.729   5.281  0.1020  1.0695  0.9269
13681TIP3   OH262457   5.649   4.154  15.799 -0.1884 -0.2175  0.1615
13681TIP3    H162458   5.555   4.160  15.779 -0.3330  0.7961  1.0414
13681TIP3    H262459   5.692   4.191  15.722 -0.4232 -1.7843 -0.7737
13682TIP3   OH262460   5.605   1.879   3.920 -0.2165 -0.2340  0.3008
13682TIP3    H162461   5.673   1.881   3.853  0.4197  0.0828  0.9363
13682TIP3    H262462   5.561   1.964   3.911  0.5832  0.2710  0.9837
13683TIP3   OH262463   2.806   6.275  12.093 -0.3877 -0.4692  0.0852
13683TIP3    H162464   2.889   6.294  12.049  0.3213 -1.9442  0.6978
13683TIP3    H262465   2.771   6.200  12.045  0.1396 -1.7676  1.6472
13684TIP3   OH262466   3.140   1.904   3.973  0.8549 -0.0176 -0.4612
13684TIP3    H162467   3.157   1.810   3.981  0.2345 -0.1571 -0.7257
13684TIP3    H262468   3.058   1.917   4.020  0.9624  0.3998 -0.3909
13685TIP3   OH262469   4.275   2.949   4.579  0.1145  0.2289 -0.2824
13685TIP3    H162470   4.320   3.025   4.542 -0.4480 -0.1333 -1.7789
13685TIP3    H262471   4.183   2.961   4.556 -0.3751  0.2380  1.5003
13686TIP3   OH262472   3.415   1.160   1.915 -0.2798  0.5139 -0.1030
13686TIP3    H162473   3.358   1.148   1.991  2.1889 -0.1212  1.7828
13686TIP3    H262474   3.413   1.254   1.898 -1.7015  0.5332  0.0166
13687TIP3   OH262475   5.404   4.649   1.034  0.1133 -0.0500  0.0932
13687TIP3    H162476   5.328   4.594   1.053 -0.2494  0.2071 -0.5554
13687TIP3    H262477   5.366   4.733   1.008  0.2663 -1.0910 -4.5241
13688TIP3   OH262478   1.086   2.522   5.087 -0.1667  0.0532  0.1364
13688TIP3    H162479   1.019   2.530   5.156  0.2367 -2.4051  0.9395
13688TIP3    H262480   1.134   2.605   5.090 -2.7563  1.6581 -0.0657
13689TIP3   OH262481   0.819   4.376  14.020  0.4697  0.7458  0.0709
13689TIP3    H162482   0.737   4.404  14.059 -1.1033  0.7249 -2.9024
13689TIP3    H262483   0.848   4.302  14.073 -2.7906 -0.8845 -0.2060
13690TIP3   OH262484   4.902   2.592   6.295  0.0988 -0.2402 -0.2683
13690TIP3    H162485   4.890   2.535   6.370  2.8596  1.1467  1.3838
13690TIP3    H262486   4.963   2.545   6.238 -0.3860 -0.4197 -0.6438
13691TIP3   OH262487   0.525   0.787  15.574  0.1873 -0.2207 -0.1334
13691TIP3    H162488   0.619   0.797  15.557  0.0059  0.6623 -0.6769
13691TIP3    H262489   0.510   0.836  15.655  0.3731 -1.2597  0.5496
13692TIP3   OH262490   1.100   3.448   6.764 -0.1414 -0.4592  0.2734
13692TIP3    H162491   1.058   3.533   6.774  0.0058 -0.3243 -0.2447
13692TIP3    H262492   1.059   3.410   6.687  2.6315  0.8646 -2.0387
13693TIP3   OH262493   2.694   3.954  11.239 -0.0573 -0.5905  0.6205
13693TIP3    H162494   2.787   3.952  11.261 -0.4604 -0.3201  2.6052
13693TIP3    H262495   2.680   3.876  11.185  1.3372 -0.5260  0.1200
13694TIP3   OH262496   5.519   5.255  12.470  0.2465 -0.0320 -0.0923
13694TIP3    H162497   5.475   5.337  12.447  0.1958  0.9384  2.9630
13694TIP3    H262498   5.451   5.188  12.465 -0.6733  0.7937  0.9227
13695TIP3   OH262499   2.875   3.214   3.349  0.0679 -0.6012  0.6405
13695TIP3    H162500   2.823   3.226   3.270 -0.5564 -1.0611  0.9715
13695TIP3    H262501   2.953   3.267   3.335 -0.6400  0.3728  0.2691
13696TIP3   OH262502   5.839   4.263  12.701 -0.6717  0.2133 -0.0798
13696TIP3    H162503   5.806   4.197  12.762 -0.1475  0.4247  0.4425
13696TIP3    H262504   5.770   4.329  12.697 -1.0288 -0.1653 -0.2986
13697TIP3   OH262505   3.933   4.012   3.774  0.1120  0.2825  0.2756
13697TIP3    H162506   3.959   4.078   3.710 -0.3756 -0.6921 -0.9897
13697TIP3    H262507   3.838   4.003   3.763  0.2859 -1.2796 -0.2989
13698TIP3   OH262508   0.772   0.124   6.181  0.4492  0.2676  0.8447
13698TIP3    H162509   0.788   0.192   6.246  0.3072  0.6756  0.4634
13698TIP3    H262510   0.853   0.073   6.179  1.1424  1.3430  0.0599
13699TIP3   OH262511   4.776   3.296   0.418 -0.0583  0.6666 -0.3800
13699TIP3    H162512   4.748   3.339   0.498 -0.1562 -1.0095  0.5381
13699TIP3    H262513   4.781   3.366   0.353 -2.3939  1.6873  0.4487
13700TIP3   OH262514   3.262   6.705   1.431 -0.0670 -0.0872  0.1887
13700TIP3    H162515   3.274   6.768   1.502 -0.5983  1.8295 -1.3226
13700TIP3    H262516   3.351   6.678   1.408  0.2049  0.3836  0.6470
13701TIP3   OH262517   1.477   1.968   0.521  0.4310 -0.5474 -0.0392
13701TIP3    H162518   1.404   2.030   0.520  0.6841 -0.1805  1.4863
13701TIP3    H262519   1.440   1.886   0.552  0.7423 -0.2094  1.2933
13702TIP3   OH262520   5.482   4.031  12.075  0.2005 -0.2677  0.1412
13702TIP3    H162521   5.401   3.987  12.099 -0.2627  1.0684  1.1597
13702TIP3    H262522   5.550   3.964  12.086 -0.5570 -0.9225  0.9804
13703TIP3   OH262523   1.320   6.705   0.918  0.1444  0.0948  0.1076
13703TIP3    H162524   1.304   6.655   0.837 -0.6447  0.6075 -0.0655
13703TIP3    H262525   1.379   6.649   0.969  0.8286 -0.1469 -0.9077
13704TIP3   OH262526   5.258   4.845  14.772  0.2179 -0.0868  0.3338
13704TIP3    H162527   5.333   4.795  14.740 -0.5943 -0.9786 -0.2095
13704TIP3    H262528   5.297   4.914  14.826  1.4314 -0.4701 -0.0209
13705TIP3   OH262529   6.677   2.772  16.119  0.0414 -0.6077 -0.3356
13705TIP3    H162530   6.754   2.719  16.140  0.6026  0.1323 -0.4808
13705TIP3    H262531   6.642   2.797  16.205  0.1501 -0.6802 -0.2694
13706TIP3   OH262532   6.368   2.429   3.766 -0.0532  0.1084 -0.2804
13706TIP3    H162533   6.386   2.369   3.694 -2.1570 -1.8555  0.6923
13706TIP3    H262534   6.299   2.486   3.733  0.4822  0.6506 -0.4939
13707TIP3   OH262535   4.360   2.022  14.081  0.3499  0.1827  0.7357
13707TIP3    H162536   4.342   2.116  14.078  1.7615  0.4513 -2.0931
13707TIP3    H262537   4.406   2.009  14.164  0.5670  2.0642  0.9470
13708TIP3   OH262538   5.566   0.311   0.319 -0.2885 -0.0681  0.0198
13708TIP3    H162539   5.615   0.329   0.399 -0.8179  0.5491  0.2068
13708TIP3    H262540   5.475   0.330   0.341 -0.2389  1.9741 -1.2637
13709TIP3   OH262541   5.661   0.682  11.004  1.0932  0.3511  0.4936
13709TIP3    H162542   5.673   0.776  11.014 -0.1631  0.3811  2.2372
13709TIP3    H262543   5.744   0.644  11.033  1.3346  0.8956  0.5281
13710TIP3   OH262544   0.909   1.976  12.171 -0.0757 -0.2275  0.3792
13710TIP3    H162545   0.894   1.973  12.077  0.1915 -0.2599  0.3375
13710TIP3    H262546   0.964   1.900  12.189 -0.9346 -0.7861  0.7116
13711TIP3   OH262547   1.325   2.567   1.930  0.0387 -0.6900  0.2164
13711TIP3    H162548   1.286   2.652   1.909  2.4281  0.3103 -0.4918
13711TIP3    H262549   1.316   2.559   2.025  2.2846  1.7857  0.7616
13712TIP3   OH262550   3.658   1.361  16.746  0.0890  0.2625  0.4346
13712TIP3    H162551   3.702   1.428  16.693 -2.4831  1.4386 -0.4016
13712TIP3    H262552   3.723   1.291  16.755  1.5551  1.1722 -2.0274
13713TIP3   OH262553   0.783   5.694  16.467  0.1316 -0.1457 -0.3184
13713TIP3    H162554   0.808   5.628  16.532  1.4160  0.3011 -0.3281
13713TIP3    H262555   0.866   5.730  16.436 -0.2778 -1.4736 -3.4112
13714TIP3   OH262556   2.126   0.495   0.875  0.1468  0.2432 -0.3439
13714TIP3    H162557   2.139   0.518   0.967 -0.9195  0.2533 -0.1844
13714TIP3    H262558   2.165   0.409   0.866  2.5049  1.2457 -0.4968
13715TIP3   OH262559   2.709   2.015  13.278 -0.7955  0.2180 -0.3399
13715TIP3    H162560   2.629   1.993  13.231 -0.7050 -0.5241 -0.1627
13715TIP3    H262561   2.730   1.936  13.328  0.4421  0.1346 -0.9507
13716TIP3   OH262562   1.351   4.547   1.725 -0.0600  0.2309 -0.1351
13716TIP3    H162563   1.266   4.565   1.686 -0.1453 -2.0323 -1.1615
13716TIP3    H262564   1.377   4.630   1.765 -3.8742  0.3769  2.5258
13717TIP3   OH262565   0.978   5.446   3.417  0.4198  0.0249  0.5025
13717TIP3    H162566   1.067   5.475   3.433  0.2518  0.2143  1.1261
13717TIP3    H262567   0.924   5.499   3.476  0.0482 -1.1619  1.2602
13718TIP3   OH262568   0.772   5.885   0.946  0.2172 -0.0641 -0.0434
13718TIP3    H162569   0.691   5.918   0.908  0.8839  0.6972 -0.8222
13718TIP3    H262570   0.800   5.953   1.007  2.5309  1.8343 -2.9325
13719TIP3   OH262571   2.509   4.164   2.214 -0.1500  0.2817 -0.0974
13719TIP3    H162572   2.503   4.177   2.309  0.7364  0.8980 -0.1164
13719TIP3    H262573   2.588   4.212   2.188  0.4358 -1.0803 -0.9323
13720TIP3   OH262574   6.328   0.746  16.551 -0.0623 -0.1079  0.7157
13720TIP3    H162575   6.394   0.815  16.540 -0.3896  0.1939  0.6348
13720TIP3    H262576   6.358   0.675  16.494 -0.3078  0.3965 -0.0546
13721TIP3   OH262577   3.511   0.555  12.189 -0.1825 -0.5711  0.6792
13721TIP3    H162578   3.517   0.459  12.187  0.8314 -0.5625  2.0841
13721TIP3    H262579   3.602   0.584  12.186 -0.4964  0.4663 -1.8509
13722TIP3   OH262580   2.594   1.091  12.852 -0.9287 -0.2940 -0.2497
13722TIP3    H162581   2.562   1.045  12.930 -2.8687  0.6569 -0.4343
13722TIP3    H262582   2.561   1.180  12.862  1.3024  0.6495 -0.7442
13723TIP3   OH262583   5.762   4.271   4.638 -0.1925  0.3934  0.6101
13723TIP3    H162584   5.685   4.229   4.599 -0.4913  0.7072  0.8536
13723TIP3    H262585   5.725   4.339   4.694  0.3309  2.7619 -1.7608
13724TIP3   OH262586   5.040   1.214  15.853 -0.1402 -0.5137 -0.0961
13724TIP3    H162587   5.003   1.165  15.780  1.2081 -1.0292 -0.4620
13724TIP3    H262588   4.993   1.181  15.930 -2.5785  1.0304 -0.7964
13725TIP3   OH262589   4.726   0.599   5.720 -0.6301 -0.3069 -0.4170
13725TIP3    H162590   4.734   0.517   5.672  1.2162  0.2470 -1.1591
13725TIP3    H262591   4.765   0.583   5.805 -0.9934 -0.3978 -0.2633
13726TIP3   OH262592   5.641   2.031  14.814  0.1867  0.4032  0.1295
13726TIP3    H162593   5.577   2.019  14.743 -0.3810  0.7697  0.5739
13726TIP3    H262594   5.714   2.078  14.773 -0.4701  1.2912 -0.0381
13727TIP3   OH262595   1.496   1.030  13.315  0.3293 -0.3926  0.1235
13727TIP3    H162596   1.516   0.963  13.379 -1.8207 -1.5702 -0.3744
13727TIP3    H262597   1.492   1.111  13.365  0.7921 -0.9573  1.0908
13728TIP3   OH262598   1.789   0.135   2.289  0.8669  0.4658  0.1560
13728TIP3    H162599   1.714   0.127   2.230  0.1866 -0.1813  1.0766
13728TIP3    H262600   1.838   0.054   2.277  1.6666  1.0731 -0.7572
13729TIP3   OH262601   6.424   5.415  15.301 -0.0287 -0.3879  0.6200
13729TIP3    H162602   6.408   5.337  15.249  0.5578  0.0694 -0.2570
13729TIP3    H262603   6.514   5.407  15.331 -0.0736 -0.2016  0.8161
13730TIP3   OH262604   3.228   2.715  15.457 -0.4048  0.0216 -0.3048
13730TIP3    H162605   3.200   2.635  15.413 -1.7088  0.1044  0.3057
13730TIP3    H262606   3.147   2.765  15.470  0.3853  1.4704 -0.7019
13731TIP3   OH262607   2.211   1.925  14.327 -0.2550  0.3316  0.1695
13731TIP3    H162608   2.197   1.956  14.416 -0.0273 -0.0942  0.3572
13731TIP3    H262609   2.271   1.850  14.336  1.1705  1.3396 -0.5004
13732TIP3   OH262610   6.569   4.334  12.790 -0.1745 -0.5361 -0.3798
13732TIP3    H162611   6.552   4.302  12.702 -0.9129 -0.9380 -0.1027
13732TIP3    H262612   6.649   4.387  12.782 -1.0216  0.6176 -1.5583
13733TIP3   OH262613   0.110   3.373   2.241  0.2888 -0.0083 -0.2266
13733TIP3    H162614   0.015   3.370   2.250  0.2696  2.0398  0.8311
13733TIP3    H262615   0.129   3.462   2.212  1.9140 -0.2270  0.0514
13734TIP3   OH262616   0.408   2.122   5.409 -0.2143 -0.3744 -0.1960
13734TIP3    H162617   0.422   2.083   5.322  0.8288  1.3021 -0.8159
13734TIP3    H262618   0.332   2.179   5.397 -0.9607 -1.2021  0.4003
13735TIP3   OH262619   4.361   4.469  11.620 -0.1040 -0.2431  0.4450
13735TIP3    H162620   4.454   4.495  11.622 -0.3615  0.7354  2.5922
13735TIP3    H262621   4.361   4.381  11.658  0.1639 -1.3273 -1.8894
13736TIP3   OH262622   2.253   3.353  15.188 -0.1565 -0.0127 -0.4347
13736TIP3    H162623   2.285   3.438  15.156 -0.2180 -0.2631 -1.1800
13736TIP3    H262624   2.192   3.324  15.120 -0.5895 -0.3787  0.1088
13737TIP3   OH262625   1.607   5.639   1.249  0.3304 -0.8716  0.2160
13737TIP3    H162626   1.584   5.583   1.323 -0.7962 -1.9341 -0.8971
13737TIP3    H262627   1.636   5.579   1.181  1.9258  0.1289 -0.0551
13738TIP3   OH262628   0.890   5.022   5.719  0.4290 -0.6173 -0.1312
13738TIP3    H162629   0.875   4.930   5.695 -0.0468 -0.8711  1.0739
13738TIP3    H262630   0.845   5.033   5.803  1.7738  0.2921  0.5166
13739TIP3   OH262631   0.537   0.404   2.593 -0.3919 -0.0540 -0.3921
13739TIP3    H162632   0.461   0.407   2.651 -0.8350 -0.0486 -0.9640
13739TIP3    H262633   0.537   0.314   2.558 -0.3819  0.0693 -0.7138
13740TIP3   OH262634   4.054   4.368  10.849 -0.3859  0.1521  0.1207
13740TIP3    H162635   3.991   4.300  10.873 -0.2188 -0.7210 -1.6987
13740TIP3    H262636   4.031   4.390  10.758  0.1444  1.8905  0.3744
13741TIP3   OH262637   5.517   0.361  12.863  0.4188  0.0795  0.4638
13741TIP3    H162638   5.595   0.416  12.860  0.4051  0.0745 -0.1443
13741TIP3    H262639   5.551   0.273  12.884  0.4790  0.2401  1.0610
13742TIP3   OH262640   4.434   2.449  13.771 -0.0640  0.6000 -0.1316
13742TIP3    H162641   4.429   2.407  13.685  0.2962 -0.6828  0.4422
13742TIP3    H262642   4.514   2.502  13.767  1.1078 -1.0495  0.0461
13743TIP3   OH262643   0.115   1.716   3.480  0.6103 -0.1360 -0.7404
13743TIP3    H162644   0.117   1.811   3.481  1.2141 -0.1259  1.4928
13743TIP3    H262645   0.022   1.694   3.493  0.4126  0.1287 -1.6590
13744TIP3   OH262646   4.905   3.011  11.454 -0.5174  0.2584  0.2012
13744TIP3    H162647   4.838   3.064  11.411  0.5734  0.5981 -1.1372
13744TIP3    H262648   4.927   2.943  11.390  0.3557  0.1018  0.6520
13745TIP3   OH262649   6.690   6.694   3.081  0.1161  0.2956 -0.1540
13745TIP3    H162650   6.606   6.705   3.127 -0.8068 -0.2456 -1.6307
13745TIP3    H262651   6.720   6.784   3.066  0.7918  0.5024  2.0185
13746TIP3   OH262652   5.768   1.138   0.298  0.4057  0.0553 -0.2773
13746TIP3    H162653   5.840   1.192   0.268  0.6995  0.6625  1.3964
13746TIP3    H262654   5.734   1.184   0.375 -0.9091 -0.9007 -0.2452
13747TIP3   OH262655   1.775   5.065  13.746 -0.0054 -0.2580 -0.2256
13747TIP3    H162656   1.800   5.156  13.729  4.2419 -1.2300 -0.3988
13747TIP3    H262657   1.763   5.061  13.841 -0.2783  0.5123 -0.2223
13748TIP3   OH262658   5.006   0.896  15.462  0.8731  0.2037 -0.2982
13748TIP3    H162659   4.914   0.907  15.435 -0.2884 -3.6602  1.3230
13748TIP3    H262660   5.055   0.902  15.380 -1.1900 -0.2940 -1.6767
13749TIP3   OH262661   0.193   1.244  14.983 -0.3091  0.2529  0.2949
13749TIP3    H162662   0.127   1.210  14.923 -0.6921  0.2849  0.6986
13749TIP3    H262663   0.237   1.165  15.017 -1.1618  0.1518  1.1902
13750TIP3   OH262664   6.484   4.617   4.516 -0.7987  0.5076  0.1105
13750TIP3    H162665   6.397   4.580   4.506 -0.0314 -1.4045  0.0890
13750TIP3    H262666   6.522   4.615   4.428 -0.6289  1.1062  0.1630
13751TIP3   OH262667   4.210   3.497  12.927 -0.2478  0.2085  0.3585
13751TIP3    H162668   4.181   3.523  13.014 -1.5016 -0.4998  0.1729
13751TIP3    H262669   4.248   3.576  12.889 -1.2200  0.9544  0.9190
13752TIP3   OH262670   2.023   5.768   2.471 -0.1184 -0.2643  0.4885
13752TIP3    H162671   2.048   5.740   2.383  0.1688 -1.1520  0.8457
13752TIP3    H262672   2.103   5.762   2.523 -0.8261 -2.2722  1.4262
13753TIP3   OH262673   5.311   6.528   2.660  0.1229  0.5944 -0.5718
13753TIP3    H162674   5.311   6.459   2.727 -0.6625  0.2027 -0.9673
13753TIP3    H262675   5.324   6.609   2.710 -0.1830  0.2815  0.0324
13754TIP3   OH262676   3.955   3.555   3.843  0.3781 -0.4479  0.5197
13754TIP3    H162677   3.884   3.564   3.779  1.0283  1.2326 -0.0111
13754TIP3    H262678   3.915   3.509   3.917 -0.1205 -3.4567 -1.4437
13755TIP3   OH262679   4.021   4.940  12.018  0.5251  0.6102  0.3067
13755TIP3    H162680   4.088   4.926  11.951  0.0286 -0.2160 -0.0356
13755TIP3    H262681   3.961   5.004  11.979 -0.6999 -1.1142 -0.7781
13756TIP3   OH262682   1.743   4.117  12.467 -0.2430 -0.1393 -0.3016
13756TIP3    H162683   1.751   4.204  12.507 -1.2921 -0.5189  0.7821
13756TIP3    H262684   1.683   4.130  12.394 -2.6078 -0.4079  1.4816
13757TIP3   OH262685   4.759   6.545   3.738 -0.2915 -0.1860 -0.5801
13757TIP3    H162686   4.777   6.606   3.666 -1.0576 -1.7659 -2.1929
13757TIP3    H262687   4.835   6.486   3.739  1.3392  1.6991  2.1510
13758TIP3   OH262688   3.884   1.144   5.888 -0.0013 -0.2803 -0.1937
13758TIP3    H162689   3.803   1.162   5.841 -0.2815 -0.2326  0.3069
13758TIP3    H262690   3.912   1.229   5.921  0.8744 -0.0959 -1.3393
13759TIP3   OH262691   3.016   4.818  16.079 -0.0404 -0.0220  0.0189
13759TIP3    H162692   2.983   4.729  16.097  1.9895 -0.5462  1.5307
13759TIP3    H262693   3.018   4.860  16.165  2.1086  0.3379 -0.1645
13760TIP3   OH262694   0.861   2.677   4.649 -0.2428  0.7954 -0.7811
13760TIP3    H162695   0.887   2.746   4.710 -0.2242  1.7342 -1.8337
13760TIP3    H262696   0.771   2.699   4.625 -0.3671  0.2363 -0.8412
13761TIP3   OH262697   4.417   5.977  15.553 -0.5559 -0.2265 -0.1828
13761TIP3    H162698   4.353   6.042  15.582 -0.3371  0.0148 -0.2377
13761TIP3    H262699   4.501   6.023  15.558 -0.4413 -0.3952 -0.5615
13762TIP3   OH262700   6.477   2.310   0.958  0.2200  0.0374 -0.5626
13762TIP3    H162701   6.397   2.286   0.912  0.8423  0.1598 -1.7459
13762TIP3    H262702   6.466   2.402   0.979 -1.4629 -0.7141  2.5245
13763TIP3   OH262703   1.999   3.692  12.127 -0.4337  0.6641  0.3358
13763TIP3    H162704   1.917   3.740  12.116 -0.4517  0.9544  1.5246
13763TIP3    H262705   2.056   3.726  12.058 -0.8696  1.4651  0.3510
13764TIP3   OH262706   0.668   2.870   3.478  0.1251  0.4541 -0.4227
13764TIP3    H162707   0.763   2.866   3.491 -0.1227 -0.7153  1.3521
13764TIP3    H262708   0.634   2.905   3.561 -1.1908 -2.2040  0.2498
13765TIP3   OH262709   2.263   2.288  10.586 -0.1609  0.8330 -0.0795
13765TIP3    H162710   2.313   2.218  10.543 -0.9827  0.5731 -0.6365
13765TIP3    H262711   2.324   2.326  10.649  0.4407 -0.0957 -0.0831
13766TIP3   OH262712   5.054   2.821   4.104  0.1063 -0.6684  0.6663
13766TIP3    H162713   4.965   2.846   4.082  0.5335  0.7726  0.4402
13766TIP3    H262714   5.102   2.904   4.106  1.2959 -1.3455  1.4334
13767TIP3   OH262715   3.808   4.454   3.160 -0.5030 -0.0096 -0.2644
13767TIP3    H162716   3.883   4.461   3.220  0.6421 -1.0720 -1.4986
13767TIP3    H262717   3.828   4.515   3.090 -1.2555  0.3589 -0.1660
13768TIP3   OH262718   0.893   2.192  13.718 -0.4662 -0.0294  0.2068
13768TIP3    H162719   0.903   2.098  13.733 -2.6525 -0.0035  2.5321
13768TIP3    H262720   0.799   2.203  13.700 -0.0436  1.6154 -1.2919
13769TIP3   OH262721   5.865   4.150   4.143  0.4517 -0.8865 -0.4583
13769TIP3    H162722   5.781   4.184   4.113  0.9311 -0.6388 -1.6061
13769TIP3    H262723   5.917   4.144   4.063  1.5629 -0.9272  0.2529
13770TIP3   OH262724   3.235   3.769   0.707 -0.1501 -0.3327 -0.0135
13770TIP3    H162725   3.243   3.837   0.640  2.4455  0.2592  0.7474
13770TIP3    H262726   3.236   3.687   0.659 -1.3459  0.1034 -0.8367
13771TIP3   OH262727   4.988   4.490  15.673  0.0474 -0.3191 -0.0791
13771TIP3    H162728   4.912   4.520  15.624 -0.4665  0.5023  1.1609
13771TIP3    H262729   5.048   4.457  15.607 -0.9760 -0.0710 -1.1660
13772TIP3   OH262730   1.438   5.765   0.906 -0.0622  0.0826  0.1838
13772TIP3    H162731   1.463   5.705   0.836 -0.6216  0.6034 -0.4801
13772TIP3    H262732   1.380   5.713   0.962 -0.1178 -0.1611 -0.0949
13773TIP3   OH262733   4.703   0.734   1.390  0.1830  0.3126  0.4675
13773TIP3    H162734   4.752   0.676   1.447 -0.1498  1.0262  1.5184
13773TIP3    H262735   4.624   0.755   1.439  1.0547  2.9905  0.9002
13774TIP3   OH262736   2.315   4.786  16.008  0.3953  0.1268  0.0133
13774TIP3    H162737   2.405   4.777  15.978  0.2809 -1.1509  0.0118
13774TIP3    H262738   2.271   4.833  15.938  0.8202 -0.1889 -0.4764
13775TIP3   OH262739   6.211   3.195   5.481  0.2595  0.5472 -0.1071
13775TIP3    H162740   6.227   3.285   5.454 -2.5049  0.3113 -3.1130
13775TIP3    H262741   6.116   3.188   5.486  0.4326 -1.8527  1.6149
13776TIP3   OH262742   2.569   6.519  12.831  0.2212 -0.2549  0.4894
13776TIP3    H162743   2.519   6.582  12.883  1.4330  2.7416 -1.6516
13776TIP3    H262744   2.509   6.490  12.762  0.9222  2.6362 -1.5339
13777TIP3   OH262745   1.583   4.638  15.916  0.4124 -0.0499  0.3090
13777TIP3    H162746   1.565   4.612  16.007  1.6529 -2.6229 -0.0622
13777TIP3    H262747   1.675   4.613  15.902  0.5134  1.1009 -1.4132
13778TIP3   OH262748   6.197   0.919   0.791 -0.0756 -0.2770 -0.2094
13778TIP3    H162749   6.163   0.843   0.837 -1.9858 -0.4609 -1.7755
13778TIP3    H262750   6.119   0.965   0.760  1.0740  1.0916 -1.2028
13779TIP3   OH262751   4.037   5.992  13.102  0.4631 -0.0738 -0.1698
13779TIP3    H162752   4.004   6.032  13.182 -1.9654 -0.4527 -0.9033
13779TIP3    H262753   4.038   5.898  13.121  0.0234 -0.1519 -0.5315
13780TIP3   OH262754   5.226   1.426  14.306 -0.2172  0.2916 -0.6473
13780TIP3    H162755   5.298   1.488  14.321 -1.6053  2.3092 -1.9019
13780TIP3    H262756   5.150   1.481  14.290 -2.5706 -1.7247  2.3934
13781TIP3   OH262757   2.473   6.151  13.918 -0.2936  0.1760  0.3328
13781TIP3    H162758   2.387   6.193  13.906  0.6327  1.8822 -0.8778
13781TIP3    H262759   2.516   6.204  13.986  0.7622  1.0700 -0.9660
13782TIP3   OH262760   1.171   5.057  15.121  0.4571  0.3630 -0.2995
13782TIP3    H162761   1.228   5.090  15.190  0.2144 -0.3979  0.2837
13782TIP3    H262762   1.116   4.992  15.165 -1.3439  1.5693 -0.6723
13783TIP3   OH262763   2.201   0.696  11.033  0.0282  0.4630  0.2306
13783TIP3    H162764   2.182   0.613  10.990 -0.8094  0.1649  1.1486
13783TIP3    H262765   2.199   0.761  10.962  0.3379 -0.2385 -0.4327
13784TIP3   OH262766   2.881   4.789   6.014 -0.2390 -0.0923 -0.0344
13784TIP3    H162767   2.851   4.850   5.947 -0.7501  0.5882  0.7844
13784TIP3    H262768   2.808   4.784   6.076  0.9493  0.8140  1.4979
13785TIP3   OH262769   2.331   5.119  16.756 -0.5403  0.1088 -0.2677
13785TIP3    H162770   2.422   5.101  16.730 -0.4531  0.4635 -0.2028
13785TIP3    H262771   2.338   5.174  16.833 -0.8022 -0.8845  0.4897
13786TIP3   OH262772   5.627   2.624   3.944 -0.2608  0.2923 -0.0130
13786TIP3    H162773   5.676   2.655   4.020  0.7605  0.1529 -0.5874
13786TIP3    H262774   5.677   2.657   3.869 -1.4054  0.6807 -0.6311
13787TIP3   OH262775   4.631   4.497  12.476 -0.2506 -0.5705  0.0236
13787TIP3    H162776   4.601   4.577  12.520 -0.0157 -0.2530 -0.3805
13787TIP3    H262777   4.726   4.500  12.484 -0.1495 -0.1503 -1.0786
13788TIP3   OH262778   6.625   4.508  13.668  0.2161 -0.6524 -0.3158
13788TIP3    H162779   6.609   4.574  13.601  1.4038  0.2071  0.1901
13788TIP3    H262780   6.539   4.483  13.699 -0.4272  3.5292  2.1731
13789TIP3   OH262781   5.666   5.593   3.508  0.0767 -0.1716 -0.0521
13789TIP3    H162782   5.755   5.567   3.486 -0.3768 -2.3864  0.4254
13789TIP3    H262783   5.648   5.547   3.591 -1.2275  0.8844  0.2790
13790TIP3   OH262784   6.080   2.978   2.706 -0.4317 -0.4483 -0.2656
13790TIP3    H162785   6.112   3.064   2.734  0.7015 -1.5641  2.2408
13790TIP3    H262786   6.093   2.977   2.611  1.7576  1.3065 -0.0673
13791TIP3   OH262787   1.924   6.198   5.170  0.4721  0.1241 -0.0948
13791TIP3    H162788   1.890   6.202   5.259 -0.3701  2.1532 -0.4533
13791TIP3    H262789   1.854   6.157   5.119  0.3769  0.2486 -0.0647
13792TIP3   OH262790   1.095   1.946  15.284 -0.3900  0.1079 -0.7064
13792TIP3    H162791   1.150   1.879  15.324 -0.6947 -1.6167 -2.9852
13792TIP3    H262792   1.062   1.906  15.204 -1.8106  2.4817 -1.4204
13793TIP3   OH262793   4.375   0.539   0.202 -0.7653  0.1471 -0.4753
13793TIP3    H162794   4.332   0.625   0.199 -3.4117 -0.9809  1.3091
13793TIP3    H262795   4.383   0.513   0.110  1.4850  2.8344 -1.1774
13794TIP3   OH262796   6.116   3.162   4.841 -0.4793 -0.5990 -0.8504
13794TIP3    H162797   6.024   3.143   4.827 -1.3743  0.8321  2.3015
13794TIP3    H262798   6.128   3.162   4.936  2.5674  0.1384 -1.0939
13795TIP3   OH262799   2.156   6.112  12.868 -0.0171  0.1466 -0.1608
13795TIP3    H162800   2.073   6.141  12.832  0.3031 -1.0120 -1.9680
13795TIP3    H262801   2.133   6.044  12.931 -0.5296  1.5195  1.2093
13796TIP3   OH262802   1.961   3.613   2.037  0.5958  0.1034  0.1255
13796TIP3    H162803   1.983   3.525   2.067  2.2127  0.5332  0.2633
13796TIP3    H262804   2.037   3.666   2.060  1.4943  0.7154 -3.6069
13797TIP3   OH262805   1.533   0.968  10.291  0.0895 -0.0620 -0.2743
13797TIP3    H162806   1.498   0.919  10.365 -0.4920  0.9126  0.1220
13797TIP3    H262807   1.621   0.933  10.278  0.2565 -0.1609  0.9730
13798TIP3   OH262808   2.009   6.294   4.349  0.0592  0.2749  0.1396
13798TIP3    H162809   2.012   6.237   4.272 -0.3122 -0.4676  0.6586
13798TIP3    H262810   1.941   6.255   4.404  0.0393  1.0338  0.6590
13799TIP3   OH262811   3.006   4.371   3.990  0.4544  0.3514 -0.1460
13799TIP3    H162812   2.999   4.425   3.912  1.5987  0.0745 -0.4456
13799TIP3    H262813   2.967   4.287   3.965  0.7263  0.2972 -0.3800
13800TIP3   OH262814   2.486   1.398  12.029 -0.0230 -0.2963 -0.8339
13800TIP3    H162815   2.499   1.348  11.948 -0.0431  0.4895 -1.3381
13800TIP3    H262816   2.529   1.482  12.013  0.3203 -0.2763  0.1324
13801TIP3   OH262817   6.082   3.138  15.786  0.2394  0.4871  0.0621
13801TIP3    H162818   6.102   3.211  15.726  1.6160  0.9803  1.0567
13801TIP3    H262819   6.044   3.180  15.862  0.4172  0.1012  0.3680
13802TIP3   OH262820   2.129   3.925  16.054  0.0079  0.5050 -0.2395
13802TIP3    H162821   2.159   4.002  16.006 -1.3753  1.0449 -0.3067
13802TIP3    H262822   2.166   3.935  16.142  0.9613  0.5226 -0.6401
13803TIP3   OH262823   2.002   1.066   5.736  0.5435 -0.0701 -0.3347
13803TIP3    H162824   2.027   1.056   5.644 -1.4477  0.6390 -1.0049
13803TIP3    H262825   1.946   0.990   5.754  1.8922 -0.8577  0.6864
13804TIP3   OH262826   2.251   5.910   6.124 -0.3019 -0.1842 -0.2584
13804TIP3    H162827   2.245   5.996   6.164  1.7497 -1.0582  2.2058
13804TIP3    H262828   2.344   5.897   6.107 -0.7388 -1.2767 -2.2437
13805TIP3   OH262829   6.050   5.096   2.997  0.4852 -0.3779 -0.0746
13805TIP3    H162830   6.031   5.008   3.031 -1.7563 -0.1551 -0.5953
13805TIP3    H262831   6.047   5.153   3.074  2.2161 -0.7618  0.3065
13806TIP3   OH262832   5.188   6.627  16.446 -0.0807 -0.2037 -0.2423
13806TIP3    H162833   5.183   6.531  16.444 -1.3679 -0.2081  0.9038
13806TIP3    H262834   5.097   6.655  16.454  0.3064  1.1049 -0.1676
13807TIP3   OH262835   5.661   3.168   1.699  0.3495  0.5667  0.0793
13807TIP3    H162836   5.665   3.263   1.697  1.2827  0.5912  1.7414
13807TIP3    H262837   5.685   3.144   1.788 -0.2961 -1.2188 -0.1702
13808TIP3   OH262838   0.466   0.624  16.145 -0.4283 -0.3167 -0.0202
13808TIP3    H162839   0.432   0.550  16.196  1.3017 -0.4186  1.0461
13808TIP3    H262840   0.396   0.643  16.082 -2.8628  0.0520  2.5994
13809TIP3   OH262841   2.385   1.015   4.949 -0.4565 -0.2359  0.2533
13809TIP3    H162842   2.409   0.969   5.030  0.0585  3.6414  2.5249
13809TIP3    H262843   2.363   1.104   4.977  1.8007  1.9777 -4.0490
13810TIP3   OH262844   6.315   1.460  17.080 -0.3157  0.4015 -0.4757
13810TIP3    H162845   6.222   1.458  17.058 -0.0898 -1.4569 -1.3979
13810TIP3    H262846   6.332   1.553  17.099 -2.6037  0.6187  0.9591
13811TIP3   OH262847   2.858   1.659   6.036 -0.2760  0.5517 -0.7004
13811TIP3    H162848   2.819   1.571   6.039 -1.1636  0.9347 -0.7866
13811TIP3    H262849   2.792   1.715   6.075  0.4245  1.1424 -0.3479
13812TIP3   OH262850   0.815   6.446  11.831 -0.5748  0.7824  0.7990
13812TIP3    H162851   0.903   6.454  11.793 -0.0898 -3.2664  0.6093
13812TIP3    H262852   0.829   6.462  11.924  0.2972  0.6575  0.7065
13813TIP3   OH262853   4.976   4.875   1.265  0.4021 -0.2010 -0.0901
13813TIP3    H162854   4.959   4.816   1.191  0.8195  0.5638 -0.8162
13813TIP3    H262855   4.984   4.962   1.225  0.3025  0.2777  0.9001
13814TIP3   OH262856   1.628   5.775   4.616 -0.0554 -0.1855 -0.0876
13814TIP3    H162857   1.551   5.801   4.564 -0.0568  0.7784  0.3708
13814TIP3    H262858   1.595   5.706   4.673 -0.1057 -1.1118 -1.2092
13815TIP3   OH262859   2.384   5.388  16.596 -0.6722  0.2066  0.0097
13815TIP3    H162860   2.357   5.391  16.688 -1.4840 -0.3445 -0.1942
13815TIP3    H262861   2.474   5.420  16.596  0.1023 -1.7481  1.2976
13816TIP3   OH262862   3.276   1.600  12.585  0.5922 -0.3120 -0.0875
13816TIP3    H162863   3.289   1.597  12.490 -0.9890  0.3860 -0.3563
13816TIP3    H262864   3.308   1.515  12.616  2.3026 -0.0748 -1.0599
13817TIP3   OH262865   0.308   3.169   2.622  0.3455  0.3156  0.0438
13817TIP3    H162866   0.304   3.114   2.701  0.4608 -1.2216 -0.9751
13817TIP3    H262867   0.351   3.250   2.651  3.2353 -1.3961  0.9310
13818TIP3   OH262868   3.242   1.606   2.361 -0.1794  0.0225 -0.7423
13818TIP3    H162869   3.255   1.526   2.411  0.6532 -0.8957 -2.3484
13818TIP3    H262870   3.247   1.676   2.426 -0.5036 -1.1887  0.6293
13819TIP3   OH262871   3.716   1.594  15.976 -0.4280  0.6047 -0.4734
13819TIP3    H162872   3.636   1.543  15.993 -0.3395  0.6669  0.1248
13819TIP3    H262873   3.729   1.585  15.881 -1.2103  0.6892 -0.5999
13820TIP3   OH262874   0.798   1.585  12.234  0.1873 -0.5387 -0.4747
13820TIP3    H162875   0.726   1.647  12.222 -0.3702 -1.1103 -0.1423
13820TIP3    H262876   0.796   1.530  12.156  1.0068  0.1629 -1.0151
13821TIP3   OH262877   5.718   4.799   3.868  0.0619  0.5603  0.3969
13821TIP3    H162878   5.647   4.771   3.926 -1.7493  2.3198 -0.8424
13821TIP3    H262879   5.679   4.800   3.781  1.6492  1.4807 -0.3462
13822TIP3   OH262880   1.366   2.146  13.378 -0.0534 -0.2850 -0.1207
13822TIP3    H162881   1.341   2.119  13.289 -1.4423  1.8077 -0.4289
13822TIP3    H262882   1.283   2.164  13.422  0.5075 -2.5440  2.1091
13823TIP3   OH262883   0.763   2.528  12.341  0.1610 -0.3072 -0.2008
13823TIP3    H162884   0.697   2.476  12.388  0.9249 -0.0626  1.1973
13823TIP3    H262885   0.846   2.500  12.379  1.0567 -1.7356 -3.0020
13824TIP3   OH262886   2.444   0.696  13.958  0.4994  0.1271 -0.0042
13824TIP3    H162887   2.423   0.780  13.918  0.4775  0.1632  0.0827
13824TIP3    H262888   2.361   0.648  13.957  0.3937  0.2987  0.4090
13825TIP3   OH262889   2.525   3.333  12.805  0.3590 -0.3095 -0.0354
13825TIP3    H162890   2.602   3.356  12.754  1.2551 -0.7617  1.0748
13825TIP3    H262891   2.495   3.250  12.767 -0.6714  0.7268 -1.6164
13826TIP3   OH262892   3.210   0.688   4.555  0.5101  0.5198 -0.3355
13826TIP3    H162893   3.248   0.673   4.468 -0.3234  1.0269 -0.8027
13826TIP3    H262894   3.258   0.763   4.589  1.6050 -0.3638  0.1241
13827TIP3   OH262895   1.100   5.918  12.161 -0.5969  0.0415  0.0193
13827TIP3    H162896   1.125   5.922  12.253  0.4128  1.5017 -0.2827
13827TIP3    H262897   1.007   5.942  12.161 -0.1464  2.0299  0.5305
13828TIP3   OH262898   3.456   1.052  16.829  0.4962  0.0699 -0.0666
13828TIP3    H162899   3.492   1.059  16.917  1.5761  1.1232 -0.5546
13828TIP3    H262900   3.405   1.132  16.818  1.2088  0.4482 -0.7359
13829TIP3   OH262901   2.807   3.937   5.779  0.3311 -0.0816  0.2385
13829TIP3    H162902   2.726   3.918   5.826  0.7629 -0.1704  0.9718
13829TIP3    H262903   2.786   3.920   5.687 -0.4537 -0.1815  0.4275
13830TIP3   OH262904   6.200   1.390  13.150  0.3740  0.1259 -0.2191
13830TIP3    H162905   6.247   1.339  13.217  0.8534 -0.7214 -1.1739
13830TIP3    H262906   6.212   1.481  13.177  0.3775 -0.2054  0.9631
13831TIP3   OH262907   0.888   1.668   0.709 -0.2643  0.1152 -0.1226
13831TIP3    H162908   0.797   1.689   0.731  0.1365  1.7319  0.1333
13831TIP3    H262909   0.937   1.748   0.730  0.7876  0.3334 -2.9477
13832TIP3   OH262910   1.242   3.398  16.230 -0.2157  0.3291  0.1160
13832TIP3    H162911   1.293   3.379  16.152 -1.7965 -0.1529 -0.8590
13832TIP3    H262912   1.245   3.494  16.238  0.7014  0.3170  0.0111
13833TIP3   OH262913   1.902   2.626  13.167  0.2472  0.3480 -0.1376
13833TIP3    H162914   1.829   2.608  13.108  0.0586  2.6732 -0.7455
13833TIP3    H262915   1.924   2.718  13.150  2.4937  0.0858  0.9399
13834TIP3   OH262916   3.081   0.110  15.732  0.0364 -0.3815 -0.2853
13834TIP3    H162917   3.159   0.064  15.763  0.2801 -0.8086 -1.5148
13834TIP3    H262918   3.020   0.041  15.706 -0.6675 -0.0464  0.4187
13835TIP3   OH262919   3.806   5.799  16.813 -0.3444 -0.4187  0.2609
13835TIP3    H162920   3.861   5.837  16.882  1.6479  0.9730 -1.9450
13835TIP3    H262921   3.740   5.867  16.795 -1.1672 -0.9779  1.0437
13836TIP3   OH262922   1.259   0.039   1.977  0.5764  0.5141 -0.0358
13836TIP3    H162923   1.349   0.012   1.988  0.7466  1.1422  0.1926
13836TIP3    H262924   1.208  -0.024   2.028  0.7523 -0.6248 -1.2255
13837TIP3   OH262925   3.369   2.680  16.988  0.1848 -0.0149  0.7916
13837TIP3    H162926   3.301   2.691  17.054  3.0979  0.9160  3.9196
13837TIP3    H262927   3.382   2.769  16.954  0.7038  0.0559  1.1694
13838TIP3   OH262928   1.031   2.751  12.203  0.1345 -0.5207  0.0534
13838TIP3    H162929   0.947   2.721  12.169 -0.2104  0.5422 -0.0683
13838TIP3    H262930   1.074   2.672  12.236 -1.2433 -0.9792  0.8222
13839TIP3   OH262931   2.511   4.020  11.427  0.0484  0.3129  0.2999
13839TIP3    H162932   2.579   4.008  11.360 -0.6935 -0.7928 -0.2853
13839TIP3    H262933   2.434   4.049  11.377 -1.8428 -4.5555 -0.1195
13840TIP3   OH262934   4.368   2.730   2.297  0.2091  0.1650 -1.1591
13840TIP3    H162935   4.376   2.753   2.205  0.0956  0.3124 -1.1331
13840TIP3    H262936   4.315   2.650   2.297 -0.2774  0.4825 -1.1895
13841TIP3   OH262937   2.681   4.801   1.594  0.8092 -0.1617 -0.6426
13841TIP3    H162938   2.697   4.828   1.684 -1.7601  0.8845 -0.4039
13841TIP3    H262939   2.619   4.728   1.602  0.0258  0.3838 -1.5638
13842TIP3   OH262940   4.126   0.083  16.601  0.6087  0.0380  0.3468
13842TIP3    H162941   4.149   0.040  16.519  0.5948  1.6197 -0.5150
13842TIP3    H262942   4.135   0.176  16.583  0.2810  0.4341  2.0540
13843TIP3   OH262943   1.308   2.674  13.592  0.1601  0.1084 -0.4477
13843TIP3    H162944   1.382   2.648  13.537 -0.7013 -1.2617 -0.9943
13843TIP3    H262945   1.300   2.605  13.658 -0.2880  0.5275 -0.0498
13844TIP3   OH262946   1.852   1.906  11.742  0.8107  0.2943  0.0982
13844TIP3    H162947   1.895   1.858  11.672  0.5108 -2.5625  1.7367
13844TIP3    H262948   1.780   1.952  11.700 -1.1218 -3.5678 -1.2079
13845TIP3   OH262949   0.534   2.289  15.877  0.3744  0.2086  0.8805
13845TIP3    H162950   0.551   2.368  15.828  2.2233 -0.5043  0.3156
13845TIP3    H262951   0.537   2.218  15.812  0.0731 -0.4724  1.5829
13846TIP3   OH262952   5.941   6.017  13.254  0.2122  0.0623 -0.1024
13846TIP3    H162953   6.026   6.044  13.219 -0.7645  2.0848 -1.0499
13846TIP3    H262954   5.952   6.022  13.349  0.3093  3.4835 -0.1773
13847TIP3   OH262955   0.228   1.337   5.692 -0.0644  0.5527  0.2388
13847TIP3    H162956   0.144   1.383   5.685  0.3136  1.1975 -0.0806
13847TIP3    H262957   0.229   1.277   5.617 -1.2908 -1.2348  1.5563
13848TIP3   OH262958   0.218   5.307   6.441  0.2224  0.0396  0.4349
13848TIP3    H162959   0.224   5.225   6.490  0.5688 -0.8155 -0.9634
13848TIP3    H262960   0.237   5.282   6.351  2.4305  2.0014  0.2691
13849TIP3   OH262961   0.482   5.578  12.758  0.4334  0.2132 -0.1304
13849TIP3    H162962   0.521   5.491  12.750 -0.9524 -0.2470 -3.1287
13849TIP3    H262963   0.552   5.638  12.732  0.0855 -0.4158 -2.7941
13850TIP3   OH262964   3.305   0.596   3.982  0.3609 -0.2465  0.5135
13850TIP3    H162965   3.375   0.641   3.935  0.2738  0.2357  0.8319
13850TIP3    H262966   3.338   0.508   3.998 -0.8871 -1.6390 -3.4539
13851TIP3   OH262967   6.422   0.790  15.553 -0.1351 -0.5452 -0.0092
13851TIP3    H162968   6.375   0.788  15.469 -0.6749 -0.8788  0.2950
13851TIP3    H262969   6.498   0.845  15.536 -0.8261  0.3250 -0.4171
13852TIP3   OH262970   1.067   1.510   4.854 -0.0100  0.5867 -0.1861
13852TIP3    H162971   1.032   1.552   4.932 -1.6211 -1.1653  0.0877
13852TIP3    H262972   1.033   1.421   4.856  2.2801 -0.4199 -1.3928
13853TIP3   OH262973   2.111   0.231   1.249  0.0356 -0.2674  0.5210
13853TIP3    H162974   2.140   0.146   1.217  0.6338  0.0068  0.3210
13853TIP3    H262975   2.053   0.264   1.180  0.2676 -0.2580  0.3292
13854TIP3   OH262976   0.905   3.042   5.342 -0.1171 -0.0450  0.4409
13854TIP3    H162977   0.861   2.976   5.396  0.4684 -2.8532 -2.2468
13854TIP3    H262978   0.990   3.003   5.322  0.3933  1.6937 -0.9757
13855TIP3   OH262979   3.714   6.212  15.243 -0.2219 -0.1345 -0.8471
13855TIP3    H162980   3.715   6.302  15.212 -1.6892  0.1802 -0.0385
13855TIP3    H262981   3.783   6.208  15.309  0.3304  0.1854 -1.3923
13856TIP3   OH262982   2.919   0.845  13.774  0.3265  0.0577  0.0479
13856TIP3    H162983   2.824   0.836  13.767  0.0054  3.1267 -1.0301
13856TIP3    H262984   2.949   0.758  13.797 -2.8207 -0.8125  1.4428
13857TIP3   OH262985   4.576   3.930  11.185  0.0155  0.3930  0.8722
13857TIP3    H162986   4.552   3.844  11.152 -1.9644  1.1229  0.2182
13857TIP3    H262987   4.598   3.915  11.277 -1.7268 -0.6522  1.1774
13858TIP3   OH262988   4.000   6.053   6.040 -0.1687  0.2512 -0.8578
13858TIP3    H162989   3.999   5.964   6.005  1.2580 -0.8653  1.6304
13858TIP3    H262990   3.924   6.056   6.099  0.8891 -0.0697  0.5812
13859TIP3   OH262991   5.410   2.773   0.118 -0.8990 -0.0680 -0.2541
13859TIP3    H162992   5.353   2.819   0.057  0.7140  1.5016 -0.6772
13859TIP3    H262993   5.490   2.756   0.068  0.3424  0.9908  1.2773
13860TIP3   OH262994   3.802   3.091  13.217 -0.0518  0.2183  0.1442
13860TIP3    H162995   3.834   3.000  13.221 -1.1600 -0.1895  0.0167
13860TIP3    H262996   3.869   3.137  13.166  0.0198 -0.7644 -0.6836
13861TIP3   OH262997   3.087   0.699   1.596 -0.3516  0.2488 -0.4283
13861TIP3    H162998   3.006   0.648   1.597  0.7962 -1.6791  0.3361
13861TIP3    H262999   3.060   0.787   1.623 -2.0872 -0.4999  0.4463
13862TIP3   OH263000   4.376   2.899  15.844  0.2972 -0.2593  0.1475
13862TIP3    H163001   4.452   2.910  15.901 -0.6436 -0.8267  1.5691
13862TIP3    H263002   4.387   2.812  15.805  1.5875  0.6272 -1.6002
13863TIP3   OH263003   0.619   5.204   0.772 -0.4147 -0.0727 -0.2438
13863TIP3    H163004   0.610   5.251   0.688  1.5703 -1.0139 -1.0581
13863TIP3    H263005   0.546   5.142   0.773 -1.7080  1.4074 -0.2409
13864TIP3   OH263006   3.446   2.157  14.407  0.8783 -0.5649 -0.0595
13864TIP3    H163007   3.508   2.230  14.403  1.0405 -0.7307 -0.6291
13864TIP3    H263008   3.362   2.196  14.381  0.7172 -0.3251  0.7794
13865TIP3   OH263009   0.122   2.677  12.681 -0.4912 -0.2656  0.3944
13865TIP3    H163010   0.199   2.634  12.645 -0.3197 -0.2940  0.7862
13865TIP3    H263011   0.144   2.691  12.774 -1.2015 -0.8408  0.6550
13866TIP3   OH263012   0.137   4.857   1.772 -0.0879  0.3298 -0.6193
13866TIP3    H163013   0.110   4.916   1.842  1.0079  0.9667 -0.7253
13866TIP3    H263014   0.056   4.840   1.723 -1.1005 -0.9210  1.3420
13867TIP3   OH263015   5.376   0.979  15.245 -0.2724  0.3112 -0.0910
13867TIP3    H163016   5.325   1.052  15.283  0.8900  0.1432  1.9676
13867TIP3    H263017   5.402   1.010  15.159 -0.9745  1.7706  0.1863
13868TIP3   OH263018   5.170   4.253   6.644 -0.6485  0.1314 -0.4854
13868TIP3    H163019   5.099   4.308   6.677  0.4063  0.4993  1.3264
13868TIP3    H263020   5.226   4.238   6.720  1.5519  0.3695 -1.9567
13869TIP3   OH263021   2.877   6.572   3.759  0.0089  0.5144  0.5268
13869TIP3    H163022   2.951   6.534   3.711 -0.1012  1.3218 -0.3123
13869TIP3    H263023   2.915   6.601   3.842  0.6650  1.0064  0.0660
13870TIP3   OH263024   6.400   3.814   5.152  0.2417  0.1327 -0.4522
13870TIP3    H163025   6.387   3.725   5.119  0.6095  0.3573 -1.2197
13870TIP3    H263026   6.312   3.852   5.153 -0.2468 -0.8801  1.8397
13871TIP3   OH263027   2.335   1.111  12.376  0.3875  0.3397  0.4995
13871TIP3    H163028   2.252   1.067  12.395  0.6305 -0.1060  0.5441
13871TIP3    H263029   2.395   1.082  12.445  1.4782 -1.8445 -1.2386
13872TIP3   OH263030   0.041   0.396   3.653 -0.0776 -0.0378 -0.5967
13872TIP3    H163031   0.133   0.419   3.655 -0.3679  1.3320  2.0731
13872TIP3    H263032   0.004   0.436   3.732 -3.3763  1.1609 -2.5179
13873TIP3   OH263033   5.719   2.799  16.507 -0.4661 -0.7532 -0.3792
13873TIP3    H163034   5.704   2.704  16.506  1.6367 -1.1272 -1.0514
13873TIP3    H263035   5.642   2.834  16.552 -1.4352 -2.7367 -0.3487
13874TIP3   OH263036   0.946   1.833  11.843 -0.4624  0.0211  0.0267
13874TIP3    H163037   1.017   1.782  11.881 -0.7206 -1.8175 -1.8091
13874TIP3    H263038   0.985   1.877  11.768 -0.0918  3.1634  1.8949
13875TIP3   OH263039   4.823   5.143   3.719 -0.1423 -0.5156  0.0627
13875TIP3    H163040   4.777   5.089   3.655  0.2960 -0.0450 -0.6625
13875TIP3    H263041   4.890   5.189   3.669 -0.2197  0.3724  0.7373
13876TIP3   OH263042   5.947   0.164  12.201  0.1077 -0.1332 -0.8614
13876TIP3    H163043   5.934   0.121  12.116  0.1939  1.6203 -1.8022
13876TIP3    H263044   5.866   0.212  12.216  0.2453 -0.1245 -0.1143
13877TIP3   OH263045   5.798   3.011  12.390  0.1360 -0.5303 -0.7845
13877TIP3    H163046   5.763   3.093  12.423  0.5383 -1.2329  1.5491
13877TIP3    H263047   5.861   3.037  12.322 -1.0937  0.9492 -1.4250
13878TIP3   OH263048   0.060   6.479  13.163 -0.0021 -0.5513 -0.1475
13878TIP3    H163049   0.125   6.504  13.229 -0.8431 -0.4875  0.6607
13878TIP3    H263050  -0.012   6.441  13.212 -2.2437  2.6882 -0.6332
13879TIP3   OH263051   4.442   6.036  16.984 -0.0429  0.0517  0.4040
13879TIP3    H163052   4.523   6.084  16.965  0.0210 -0.5379 -0.8573
13879TIP3    H263053   4.472   5.949  17.012 -0.2317 -0.5905 -1.2666
13880TIP3   OH263054   5.446   2.389   3.228  0.3890 -0.0949  0.1973
13880TIP3    H163055   5.410   2.437   3.154  1.1753 -0.9184 -0.7623
13880TIP3    H263056   5.521   2.440   3.257  1.4364 -0.8608 -1.0452
13881TIP3   OH263057   0.810   0.071  16.994  0.0073 -0.4770  0.3142
13881TIP3    H163058   0.849   0.070  16.907 -1.6252 -1.3219 -0.4424
13881TIP3    H263059   0.827  -0.017  17.029  0.4183 -0.2303  0.7386
13882TIP3   OH263060   5.870   4.523  11.479 -0.1192 -0.4685  0.0578
13882TIP3    H163061   5.938   4.580  11.443 -0.8750  0.6943  0.4268
13882TIP3    H263062   5.890   4.437  11.443  1.1065 -0.0022 -0.4369
13883TIP3   OH263063   2.483   0.406  17.154  0.3691 -0.0783  0.2036
13883TIP3    H163064   2.509   0.462  17.227 -1.1668  2.2462 -0.8933
13883TIP3    H263065   2.414   0.456  17.109  1.0645 -1.4857 -2.6966
13884TIP3   OH263066   3.893   2.061  12.955  0.5441  0.8497 -0.2860
13884TIP3    H163067   3.853   2.122  13.017  0.3913  0.3389  0.1289
13884TIP3    H263068   3.825   2.043  12.890  1.1082  2.3710 -1.3462
13885TIP3   OH263069   2.699   0.042   4.339  0.3104 -0.1610  0.2769
13885TIP3    H163070   2.713   0.087   4.256 -1.4790 -1.3469 -0.7186
13885TIP3    H263071   2.777  -0.012   4.351  1.3732  1.3228  0.2820
13886TIP3   OH263072   4.532   2.365   3.444 -0.4240 -0.1994  0.2823
13886TIP3    H163073   4.506   2.313   3.369 -1.4187  1.3558 -0.5185
13886TIP3    H263074   4.575   2.442   3.407  0.1259  0.0446  1.3664
13887TIP3   OH263075   3.430   5.735  13.463  0.3282 -0.2445 -0.1393
13887TIP3    H163076   3.508   5.755  13.410 -0.7616 -0.0439 -1.7644
13887TIP3    H263077   3.374   5.812  13.451 -0.5859 -0.8653  0.0674
13888TIP3   OH263078   1.405   3.415  11.695 -0.0162  0.2531  0.3953
13888TIP3    H163079   1.498   3.437  11.697 -0.0582  0.8111 -1.6064
13888TIP3    H263080   1.402   3.322  11.718  1.0739  0.1042 -0.0120
13889TIP3   OH263081   4.638   4.281   5.129 -0.4279 -0.4614 -0.1320
13889TIP3    H163082   4.671   4.310   5.044  2.1128 -0.6112  0.7044
13889TIP3    H263083   4.603   4.194   5.113 -2.2788  0.4447 -1.4361
13890TIP3   OH263084   5.151   5.948  10.751  0.0911 -0.1120 -0.6347
13890TIP3    H163085   5.148   5.927  10.657 -0.5138  1.8711 -1.1110
13890TIP3    H263086   5.127   6.041  10.755  0.0592 -0.1749  1.5037
13891TIP3   OH263087   3.882   4.623  15.029  0.0684 -0.9279  0.5243
13891TIP3    H163088   3.844   4.701  14.990 -0.5638 -0.4511  2.0256
13891TIP3    H263089   3.972   4.621  14.996 -0.0450  0.1724  0.1265
13892TIP3   OH263090   3.093   1.980  16.487  0.2025 -0.1771  0.3097
13892TIP3    H163091   3.087   2.029  16.405  0.9668  0.3187  0.5489
13892TIP3    H263092   3.049   2.035  16.552  0.6010 -0.0415  0.4681
13893TIP3   OH263093   6.703   4.186   5.247  0.4273  0.2420  0.4536
13893TIP3    H163094   6.769   4.236   5.296  0.8835  0.2666 -0.1808
13893TIP3    H263095   6.754   4.124   5.195 -0.1024 -0.3945  0.6887
13894TIP3   OH263096   4.463   4.103  16.818  0.9263 -0.0050  0.0693
13894TIP3    H163097   4.495   4.190  16.844 -1.8489  1.2402 -0.2568
13894TIP3    H263098   4.469   4.050  16.897 -2.2671  2.1141  1.9575
13895TIP3   OH263099   4.388   3.996  13.738  0.4788 -0.2464 -0.3233
13895TIP3    H163100   4.437   3.975  13.817  0.1378  1.7826  0.4869
13895TIP3    H263101   4.362   3.910  13.702 -0.1242 -1.2382  2.2351
13896TIP3   OH263102   3.551   0.696   3.809 -0.1332 -0.3389  0.3195
13896TIP3    H163103   3.556   0.792   3.807  1.2287 -0.3914 -0.7444
13896TIP3    H263104   3.627   0.668   3.758 -2.0098 -1.9377 -1.8119
13897TIP3   OH263105   4.831   4.696   1.761 -0.2843 -0.0728 -0.4851
13897TIP3    H163106   4.882   4.736   1.690 -0.2917 -0.4982 -0.7360
13897TIP3    H263107   4.851   4.603   1.755 -0.1088 -0.0875  0.2256
13898TIP3   OH263108   3.002   2.978  15.818  0.0777 -0.3128  0.0447
13898TIP3    H163109   3.035   3.016  15.899  1.5701 -1.6815  0.1178
13898TIP3    H263110   3.026   2.886  15.822  1.3443 -0.1905 -2.4960
13899TIP3   OH263111   6.716   0.270  13.521 -0.0353  0.1354  0.5625
13899TIP3    H163112   6.758   0.296  13.439  2.2701 -0.1290  1.5520
13899TIP3    H263113   6.713   0.174  13.517 -0.8733  0.1688  0.3616
13900TIP3   OH263114   4.583   0.263  16.222 -0.5027  0.0634  0.3396
13900TIP3    H163115   4.510   0.263  16.285 -1.2675  1.9791 -0.4684
13900TIP3    H263116   4.555   0.203  16.153 -1.3629  0.8303  0.0074
13901TIP3   OH263117   0.106   0.747  10.901  0.4436  0.3494  0.0503
13901TIP3    H163118   0.158   0.703  10.834  0.5554 -0.0038  0.3675
13901TIP3    H263119   0.094   0.836  10.868  0.6910  0.2413 -0.3305
13902TIP3   OH263120   3.636   5.613   4.289  0.1991  0.6620  0.2852
13902TIP3    H163121   3.730   5.607   4.270  0.0074  0.8168 -0.7426
13902TIP3    H263122   3.603   5.524   4.274  0.5474  0.0173  2.8546
13903TIP3   OH263123   0.278   2.038   3.673  0.1441 -0.6127  0.4210
13903TIP3    H163124   0.188   2.044   3.703  0.3818 -2.2752  1.5660
13903TIP3    H263125   0.306   1.949   3.695  1.4643 -0.7869 -1.6324
13904TIP3   OH263126   1.289   4.764   0.542  0.2544  0.0865  0.2995
13904TIP3    H163127   1.279   4.686   0.488 -0.0210  0.4812 -0.2258
13904TIP3    H263128   1.217   4.821   0.516  1.7664  1.5125 -1.0592
13905TIP3   OH263129   0.816   0.137  15.315  0.0543 -0.0763  0.0757
13905TIP3    H163130   0.842   0.213  15.369  1.5413 -0.1482 -0.4975
13905TIP3    H263131   0.872   0.066  15.346 -1.2964 -0.9635  0.5724
13906TIP3   OH263132   5.725   3.671  16.062 -0.3730  0.1166 -0.3857
13906TIP3    H163133   5.754   3.624  15.984  1.0495  0.1633  0.0982
13906TIP3    H263134   5.777   3.633  16.133 -0.7635  0.9370  0.3519
13907TIP3   OH263135   5.592   3.528   6.512  0.3691  0.2123  0.3878
13907TIP3    H163136   5.634   3.526   6.426 -0.9613  1.5255 -0.3536
13907TIP3    H263137   5.563   3.438   6.527 -0.3722  0.1769 -1.0828
13908TIP3   OH263138   6.177   3.212   2.777  1.1007  0.0983  0.0280
13908TIP3    H163139   6.250   3.224   2.837  0.6103  2.6997  0.2074
13908TIP3    H263140   6.114   3.280   2.802 -1.2895 -1.8509 -0.3020
13909TIP3   OH263141   5.882   4.612   2.959  0.2029 -0.6964 -0.0727
13909TIP3    H163142   5.887   4.539   2.898  2.2741 -0.3570 -0.4100
13909TIP3    H263143   5.940   4.678   2.921 -0.8534  0.7462  0.7156
13910TIP3   OH263144   6.461   3.154   4.210  0.0738 -0.3159  0.5250
13910TIP3    H163145   6.448   3.158   4.305 -2.3672 -1.5829  0.2915
13910TIP3    H263146   6.386   3.200   4.173  0.3357 -0.9232 -0.8313
13911TIP3   OH263147   3.748   3.040  14.177 -0.2588  0.0273  0.0350
13911TIP3    H163148   3.754   3.064  14.269  0.5296  2.1391 -0.5061
13911TIP3    H263149   3.685   3.102  14.140  0.5496  0.1932 -1.1247
13912TIP3   OH263150   1.515   0.008   0.286 -0.5802 -0.3677 -0.2176
13912TIP3    H163151   1.430   0.048   0.305 -0.5704 -1.0746  1.4929
13912TIP3    H263152   1.572   0.037   0.357 -0.0387 -1.7933 -0.0423
13913TIP3   OH263153   2.472   5.153  11.025 -0.3819  0.1486  0.3874
13913TIP3    H163154   2.449   5.200  10.944 -1.5268  0.0035  0.6089
13913TIP3    H263155   2.490   5.222  11.088  1.0876  0.2648 -0.1239
13914TIP3   OH263156   2.648   6.463  16.928  0.0792 -0.0956  0.0938
13914TIP3    H163157   2.667   6.370  16.938  1.7118  0.1673 -0.3294
13914TIP3    H263158   2.561   6.465  16.888 -0.5107 -1.3928  1.2215
13915TIP3   OH263159   1.609   3.254   3.353 -0.3753 -0.0810  0.1468
13915TIP3    H163160   1.686   3.270   3.406  0.2213 -0.1005 -0.6981
13915TIP3    H263161   1.636   3.186   3.291  0.1191  2.3136 -2.5134
13916TIP3   OH263162   6.316   1.841   2.580 -0.5893 -0.8178 -0.2116
13916TIP3    H163163   6.251   1.905   2.612 -0.1465 -1.2792  1.7625
13916TIP3    H263164   6.356   1.883   2.504 -1.4691  0.5402  0.0391
13917TIP3   OH263165   4.827   1.463   1.845 -0.0292 -0.5031 -0.3489
13917TIP3    H163166   4.762   1.528   1.819 -0.7702 -0.4090  1.5581
13917TIP3    H263167   4.863   1.430   1.763 -0.8142  1.1277 -1.3827
13918TIP3   OH263168   4.562   5.718  10.741  0.0122 -0.1606  0.0403
13918TIP3    H163169   4.504   5.650  10.706 -1.5125 -0.1042  2.2890
13918TIP3    H263170   4.613   5.746  10.665 -1.7252 -1.3946 -1.7001
13919TIP3   OH263171   3.931   0.948   1.888 -0.0616 -0.2310  0.0504
13919TIP3    H163172   4.003   1.011   1.884  0.1506 -0.5087 -0.5315
13919TIP3    H263173   3.853   1.003   1.895  0.2932  0.0568  2.9674
13920TIP3   OH263174   6.601   4.472  15.357 -0.7243  0.2921  0.0698
13920TIP3    H163175   6.690   4.448  15.383 -0.3199 -0.2402 -1.6856
13920TIP3    H263176   6.610   4.507  15.268 -2.3112 -0.2279 -0.3341
13921TIP3   OH263177   6.157   6.756  14.293 -0.8061 -0.7485 -0.3340
13921TIP3    H163178   6.062   6.746  14.283 -0.9139  0.6630 -1.0313
13921TIP3    H263179   6.167   6.832  14.350 -0.0685 -2.9267  2.6615
13922TIP3   OH263180   1.173   0.140   4.874 -0.2957 -0.3847  0.1794
13922TIP3    H163181   1.225   0.219   4.888 -1.1390 -0.0156  1.2762
13922TIP3    H263182   1.122   0.130   4.954 -1.0495 -1.4053 -0.4126
13923TIP3   OH263183   1.925   4.213  11.501 -0.4601  0.4048  0.4656
13923TIP3    H163184   1.989   4.264  11.549  0.3130 -0.8769  0.8528
13923TIP3    H263185   1.842   4.261  11.511 -0.2250  0.4115  2.6806
13924TIP3   OH263186   2.323   6.373   3.294 -0.1620 -0.1650  0.3399
13924TIP3    H163187   2.406   6.417   3.307 -0.2242 -0.3419  1.4497
13924TIP3    H263188   2.265   6.409   3.361 -0.7194 -0.6946  0.1595
13925TIP3   OH263189   4.285   4.193   0.458  0.0630 -0.2562 -0.2888
13925TIP3    H163190   4.315   4.228   0.542  0.7303  1.1137 -1.0533
13925TIP3    H263191   4.364   4.162   0.414 -0.2149 -0.5602 -0.5842
13926TIP3   OH263192   3.817   2.201   3.413 -0.9032 -0.0036  0.1839
13926TIP3    H163193   3.814   2.130   3.348 -0.0406  0.2184 -0.1125
13926TIP3    H263194   3.865   2.271   3.369  0.7911 -0.3008  1.4999
13927TIP3   OH263195   5.191   6.010  16.423 -0.0921 -0.8475  0.0822
13927TIP3    H163196   5.258   5.943  16.435  0.8899  0.2237  0.7495
13927TIP3    H263197   5.120   5.984  16.481  1.3455  0.0139  2.3712
13928TIP3   OH263198   1.814   3.854   0.599  0.4020  0.1980  0.4819
13928TIP3    H163199   1.719   3.848   0.612  0.2326  1.0971 -0.2639
13928TIP3    H263200   1.848   3.890   0.681 -0.0827  1.2544  0.2349
13929TIP3   OH263201   4.012   0.690   3.382 -0.3441  0.3910 -0.2077
13929TIP3    H163202   3.923   0.661   3.398 -0.2804  0.3749  0.1225
13929TIP3    H263203   4.067   0.622   3.422 -0.1067 -1.2998 -3.1373
13930TIP3   OH263204   1.582   0.173   2.086 -0.1088 -0.3188 -0.6555
13930TIP3    H163205   1.570   0.253   2.035  0.5391  0.3034  0.1382
13930TIP3    H263206   1.578   0.102   2.021  0.8325  0.4608 -1.6009
13931TIP3   OH263207   1.861   3.086  16.932 -0.8198 -0.2012 -0.2191
13931TIP3    H163208   1.948   3.086  16.893 -0.6806  0.1946  0.0786
13931TIP3    H263209   1.823   3.170  16.907  0.1930  1.1754  2.4451
13932TIP3   OH263210   2.135   1.301   2.772  0.1864 -0.4963 -0.1873
13932TIP3    H163211   2.213   1.356   2.780  0.0199 -0.2606 -0.1711
13932TIP3    H263212   2.076   1.351   2.715 -0.2931 -0.2785  0.4777
13933TIP3   OH263213   5.832   2.321  13.163 -0.0220  0.4183 -0.2314
13933TIP3    H163214   5.799   2.408  13.138 -1.2157 -0.2457 -1.0775
13933TIP3    H263215   5.920   2.317  13.125  0.3010  1.4914  0.3730
13934TIP3   OH263216   3.067   4.713  15.315  0.1330 -0.4264  0.1432
13934TIP3    H163217   3.073   4.665  15.397  0.0808 -0.3149  0.2121
13934TIP3    H263218   2.989   4.678  15.272  0.8837 -1.4288 -0.4651
13935TIP3   OH263219   4.501   5.024  16.401 -0.1475 -0.1596  0.1469
13935TIP3    H163220   4.427   5.008  16.460  0.9878  0.3800  1.7894
13935TIP3    H263221   4.463   5.018  16.313 -2.1886  0.4114  0.9306
13936TIP3   OH263222   4.345   4.496   3.066  0.6892  0.1258 -0.1808
13936TIP3    H163223   4.438   4.519   3.071  1.1843 -1.4495 -1.3369
13936TIP3    H263224   4.341   4.425   3.002 -1.0146 -1.3914  1.4672
13937TIP3   OH263225   4.237   2.480   3.777  0.7188  0.3046  0.2432
13937TIP3    H163226   4.322   2.458   3.740  0.8329 -1.6192  1.4843
13937TIP3    H263227   4.208   2.557   3.729  1.9529 -0.5899 -2.0772
13938TIP3   OH263228   3.088   3.780  11.100  0.1885 -0.3471 -0.1665
13938TIP3    H163229   3.170   3.762  11.054 -0.1466 -0.4528 -0.7433
13938TIP3    H263230   3.021   3.770  11.032 -0.4409 -1.8009  0.6320
13939TIP3   OH263231   5.731   5.529  13.256  0.0112 -0.2267  0.4529
13939TIP3    H163232   5.726   5.590  13.182  0.1141 -0.5514  0.1750
13939TIP3    H263233   5.650   5.478  13.250  0.3633 -0.7558  0.1182
13940TIP3   OH263234   1.171   4.100   3.305  0.3453 -0.1214  0.2289
13940TIP3    H163235   1.153   4.020   3.355 -0.1089 -1.2218 -1.6085
13940TIP3    H263236   1.265   4.115   3.317  0.7116 -1.7095 -0.4330
13941TIP3   OH263237   4.837   4.297   4.323  0.3732  0.3752 -0.2312
13941TIP3    H163238   4.870   4.362   4.261  3.2770  1.4699  2.2013
13941TIP3    H263239   4.910   4.281   4.382 -2.3270 -0.0728  3.3450
13942TIP3   OH263240   4.325   5.134   5.349 -0.6341 -0.4490  0.0205
13942TIP3    H163241   4.362   5.139   5.437 -1.8223  0.5621  0.4843
13942TIP3    H263242   4.232   5.149   5.361 -1.1054 -2.0799 -1.2254
13943TIP3   OH263243   2.775   3.123   1.274 -0.6691  0.3190 -0.2438
13943TIP3    H163244   2.785   3.112   1.179 -0.1790 -0.7258 -0.0882
13943TIP3    H263245   2.757   3.034   1.306 -0.2971  0.5759  0.6976
13944TIP3   OH263246   0.861   1.468   6.375 -0.3699  0.4051 -0.5516
13944TIP3    H163247   0.843   1.377   6.399  0.4926  0.3952  0.0946
13944TIP3    H263248   0.947   1.465   6.333 -0.5353  0.8611 -0.9282
13945TIP3   OH263249   1.379   3.564   5.187  0.3346 -0.3617 -0.1142
13945TIP3    H163250   1.436   3.627   5.231 -0.4071  0.4076 -0.2275
13945TIP3    H263251   1.379   3.590   5.095 -2.1265  1.2388  0.2384
13946TIP3   OH263252   2.834   0.612  14.562  0.1806  0.2464 -0.7122
13946TIP3    H163253   2.795   0.579  14.481 -0.2629 -1.5764  0.1981
13946TIP3    H263254   2.803   0.703  14.568 -1.5267 -0.2339 -1.5175
13947TIP3   OH263255   3.611   3.435  13.515 -0.6917 -0.0544 -0.0169
13947TIP3    H163256   3.560   3.513  13.492 -1.1788 -0.8247 -1.7211
13947TIP3    H263257   3.545   3.368  13.535 -0.2856 -0.2997  0.5539
13948TIP3   OH263258   3.963   1.581  14.218 -0.4721 -0.0878 -0.1956
13948TIP3    H163259   3.916   1.585  14.134 -0.2311  3.4883 -0.3390
13948TIP3    H263260   3.897   1.604  14.283  0.0561  0.4484  0.1577
13949TIP3   OH263261   6.276   5.180  11.673  0.0444  0.2038  0.3044
13949TIP3    H163262   6.289   5.131  11.753  1.1728  0.0846  0.0629
13949TIP3    H263263   6.310   5.268  11.692  0.2913  0.1847 -0.0234
13950TIP3   OH263264   6.037   1.488   5.629  0.2435  0.2363 -0.3741
13950TIP3    H163265   6.015   1.480   5.536  0.9526 -0.3684 -0.5083
13950TIP3    H263266   6.019   1.580   5.650  2.1537  0.9937 -1.7017
13951TIP3   OH263267   6.101   4.957   0.755 -0.1095 -0.3867 -0.2117
13951TIP3    H163268   6.108   5.027   0.689 -3.0504  0.5204  0.2960
13951TIP3    H263269   6.118   5.001   0.838 -1.2682 -0.3847  0.0411
13952TIP3   OH263270   3.098   5.501   0.990 -0.4864  0.1811  0.1397
13952TIP3    H163271   3.147   5.431   1.033 -1.5720  0.1027  1.3092
13952TIP3    H263272   3.007   5.473   0.993 -0.7552  0.8759 -0.9024
13953TIP3   OH263273   0.744   3.952  13.168  0.4088  0.2072 -0.1649
13953TIP3    H163274   0.753   3.933  13.261  1.3610  0.7662 -0.1349
13953TIP3    H263275   0.832   3.977  13.140  0.0334  0.4981 -1.1130
13954TIP3   OH263276   1.763   1.705   1.824 -0.0280  0.0116  0.5383
13954TIP3    H163277   1.703   1.633   1.806  1.0666 -0.5863 -0.9523
13954TIP3    H263278   1.726   1.779   1.776  0.4556 -0.3905 -0.4887
13955TIP3   OH263279   4.132   4.955  16.115 -0.0980  0.5191 -0.2168
13955TIP3    H163280   4.123   4.993  16.203  3.8435 -0.3054  0.7388
13955TIP3    H263281   4.184   5.019  16.067  0.4578 -0.4195 -0.8960
13956TIP3   OH263282   5.482   6.327  13.035  0.2644  0.0302 -0.0156
13956TIP3    H163283   5.404   6.284  13.068 -1.5439  2.6353 -0.5432
13956TIP3    H263284   5.499   6.398  13.098  0.1346  1.5764 -1.6286
13957TIP3   OH263285   3.210   6.458   4.906 -0.5538  0.6649  0.2434
13957TIP3    H163286   3.225   6.375   4.859 -3.1013 -0.4004  1.1795
13957TIP3    H263287   3.223   6.436   4.998 -1.1638  1.3277  0.4956
13958TIP3   OH263288   1.647   3.964  14.552 -0.2160  0.2182  0.3087
13958TIP3    H163289   1.678   3.876  14.529 -0.5018 -0.2321  1.5632
13958TIP3    H263290   1.563   3.949  14.595  1.0743  0.7975  3.2683
13959TIP3   OH263291   0.837   4.149  12.309 -0.3096 -0.5925 -0.3115
13959TIP3    H163292   0.810   4.197  12.231 -0.1937  0.1578  0.1035
13959TIP3    H263293   0.760   4.148  12.366  0.3639  1.2598  0.7277
13960TIP3   OH263294   3.174   0.635   4.232  0.3202 -0.1310  0.0224
13960TIP3    H163295   3.196   0.597   4.147  0.6409 -1.1065  0.5282
13960TIP3    H263296   3.203   0.726   4.225  0.4922 -0.2405 -0.8577
13961TIP3   OH263297   3.466   1.313   4.659 -0.5890 -0.5316  0.1206
13961TIP3    H163298   3.432   1.239   4.609 -0.5171 -1.0095  0.7650
13961TIP3    H263299   3.457   1.388   4.600  3.0019 -1.6173 -2.1367
13962TIP3   OH263300   6.300   1.121  11.713 -0.1696 -0.3995  0.3145
13962TIP3    H163301   6.238   1.050  11.732  0.0795 -0.5490  0.5773
13962TIP3    H263302   6.386   1.085  11.736  0.3056 -1.0000 -2.1327
13963TIP3   OH263303   4.501   5.103   0.221 -0.6511 -0.4958  0.1843
13963TIP3    H163304   4.408   5.092   0.237 -0.7009 -1.9812 -0.8883
13963TIP3    H263305   4.512   5.197   0.206 -1.5262  0.0841  2.7330
13964TIP3   OH263306   3.771   3.485   5.028  0.4435  0.4396 -0.1135
13964TIP3    H163307   3.820   3.522   4.955 -1.2803  0.6247 -1.2449
13964TIP3    H263308   3.682   3.476   4.995  0.0755 -1.6587  1.2081
13965TIP3   OH263309   6.790   0.914  11.649  0.4822 -0.3274  0.8825
13965TIP3    H163310   6.763   0.905  11.557 -2.0228  0.0732  1.5038
13965TIP3    H263311   6.780   0.826  11.685 -0.7399 -0.0611  1.2591
13966TIP3   OH263312   3.487   5.935   1.577 -0.7604  0.3319  0.0293
13966TIP3    H163313   3.536   6.006   1.617  0.4541 -0.7544  0.5050
13966TIP3    H263314   3.516   5.856   1.622 -0.1204 -0.8103 -2.2356
13967TIP3   OH263315   4.258   4.359  16.627  0.1962 -0.8691  0.4162
13967TIP3    H163316   4.310   4.402  16.559 -1.3878 -0.7914 -0.7899
13967TIP3    H263317   4.268   4.265  16.609 -1.4262 -0.8385 -0.9474
13968TIP3   OH263318   1.853   3.463  15.233 -0.0273 -0.3164 -0.4607
13968TIP3    H163319   1.831   3.553  15.258 -1.1710 -0.2268 -1.7092
13968TIP3    H263320   1.897   3.427  15.310 -2.5118  0.2457  1.3277
13969TIP3   OH263321   5.306   6.369  14.791 -0.0603 -0.1681  0.0238
13969TIP3    H163322   5.341   6.306  14.855 -0.3421  0.8354  1.1984
13969TIP3    H263323   5.382   6.422  14.766  0.3726 -1.5001 -1.6554
13970TIP3   OH263324   0.659   5.652   2.335  0.1780  0.5923  0.2932
13970TIP3    H163325   0.621   5.633   2.421  0.3044  2.0129  0.6873
13970TIP3    H263326   0.713   5.730   2.349  1.7565 -0.2534 -0.6607
13971TIP3   OH263327   3.793   0.638  12.320  0.7564 -0.2886 -0.3715
13971TIP3    H163328   3.850   0.701  12.276  0.6864  0.0902  0.0690
13971TIP3    H263329   3.738   0.692  12.377  1.3038 -0.8204  0.6829
13972TIP3   OH263330   1.620   6.624   0.727 -0.3581 -0.4815  0.1631
13972TIP3    H163331   1.590   6.711   0.752 -0.2055  0.1535 -1.6538
13972TIP3    H263332   1.668   6.592   0.803 -3.2498 -0.4159  2.1318
13973TIP3   OH263333   4.920   0.169   3.807  0.1549 -0.6139 -0.0910
13973TIP3    H163334   4.865   0.194   3.881  1.1875  1.5816 -0.0054
13973TIP3    H263335   4.915   0.243   3.747  1.4125 -1.2475 -1.0244
13974TIP3   OH263336   4.609   0.512   0.354  0.2609 -0.3828 -0.0312
13974TIP3    H163337   4.544   0.545   0.293  0.1230 -0.1888  0.2186
13974TIP3    H263338   4.611   0.576   0.425  1.2582  0.0126 -0.3956
13975TIP3   OH263339   4.542   4.068   1.263  0.0341  0.2695  0.2883
13975TIP3    H163340   4.594   4.142   1.294  2.1687 -0.1493 -1.9988
13975TIP3    H263341   4.544   4.005   1.336 -0.9419  1.9434  1.8619
13976TIP3   OH263342   5.965   6.233   0.834 -0.3294  0.3958  0.2497
13976TIP3    H163343   6.013   6.215   0.915  1.7443  2.7272 -0.3579
13976TIP3    H263344   5.923   6.317   0.849  0.4740  1.0980 -1.2089
13977TIP3   OH263345   0.201   6.533  16.038  0.3722 -0.3311  0.6044
13977TIP3    H163346   0.152   6.501  16.113  1.5226  0.3622  1.7048
13977TIP3    H263347   0.157   6.614  16.013  0.0101 -0.5423  0.5548
13978TIP3   OH263348   4.296   3.284   2.709 -0.1288 -0.6341  0.1653
13978TIP3    H163349   4.356   3.283   2.634  0.1807  1.2354  0.3351
13978TIP3    H263350   4.276   3.377   2.722 -1.9116 -1.1023  1.0389
13979TIP3   OH263351   3.707   5.661   1.483  0.5848 -0.0193 -1.2243
13979TIP3    H163352   3.712   5.566   1.468 -0.2882 -0.7618  2.3402
13979TIP3    H263353   3.641   5.691   1.420 -2.5815 -2.6787  0.5194
13980TIP3   OH263354   5.828   1.613  15.866  0.0807 -0.1467 -0.5968
13980TIP3    H163355   5.908   1.604  15.918  0.0764  0.1086 -0.5448
13980TIP3    H263356   5.841   1.556  15.791  0.7865  0.7472 -1.1742
13981TIP3   OH263357   2.965   1.336   6.431 -0.1555  0.4338 -0.4037
13981TIP3    H163358   2.992   1.391   6.358 -0.2042 -1.6475 -2.0976
13981TIP3    H263359   2.870   1.329   6.423 -0.1444  0.0540 -0.2502
13982TIP3   OH263360   6.576   5.457   1.493  0.4496  0.5490 -0.0450
13982TIP3    H163361   6.553   5.498   1.410  1.4631 -0.2455 -0.7539
13982TIP3    H263362   6.526   5.505   1.559 -3.6428 -1.3538 -1.4170
13983TIP3   OH263363   1.893   3.512   1.076 -0.1271 -0.1966 -0.0770
13983TIP3    H163364   1.886   3.586   1.015 -1.4869  0.4166  0.7716
13983TIP3    H263365   1.886   3.434   1.021 -0.0695  0.3240 -0.8326
13984TIP3   OH263366   0.602   5.712  15.844  0.2035  0.2085  0.5903
13984TIP3    H163367   0.654   5.632  15.844 -2.3360 -1.5572 -0.2688
13984TIP3    H263368   0.664   5.780  15.818  1.9299 -1.8605 -1.1194
13985TIP3   OH263369   6.226   2.360  16.714 -0.7036 -0.0763 -0.4740
13985TIP3    H163370   6.145   2.409  16.703  0.0634  1.3981  0.1748
13985TIP3    H263371   6.226   2.335  16.807 -1.0677 -1.3038 -0.7878
13986TIP3   OH263372   4.463   0.584   1.052  0.2125  1.0531 -0.1029
13986TIP3    H163373   4.558   0.597   1.047  0.0028  2.9679  0.2513
13986TIP3    H263374   4.432   0.601   0.963  0.3028 -0.9424 -0.5652
13987TIP3   OH263375   3.061   4.582   5.289 -0.1949 -0.0416 -0.1651
13987TIP3    H163376   3.063   4.601   5.383  0.5950  0.7582 -0.3286
13987TIP3    H263377   3.091   4.491   5.282  0.6169  0.1757  0.3029
13988TIP3   OH263378   5.103   4.979  14.569  0.2909  0.0497 -1.0043
13988TIP3    H163379   5.154   5.054  14.538 -0.5677  1.7834  1.4773
13988TIP3    H263380   5.141   4.958  14.654 -1.5451 -0.2078 -0.2036
13989TIP3   OH263381   3.937   6.519  12.380 -0.4522  0.0732 -0.1347
13989TIP3    H163382   3.972   6.601  12.344 -1.2171  1.8630  2.8560
13989TIP3    H263383   3.847   6.516  12.349 -0.5217  0.5383  0.0115
13990TIP3   OH263384   5.554   2.008  12.222  0.3792  0.1544  0.5429
13990TIP3    H163385   5.583   2.028  12.311 -1.6598  1.9187  0.9027
13990TIP3    H263386   5.465   2.043  12.218  0.1388 -0.5774 -1.9702
13991TIP3   OH263387   3.893   4.087   6.076  0.2345 -0.0114 -0.2267
13991TIP3    H163388   3.839   4.037   6.138  2.5146 -0.7615  1.2805
13991TIP3    H263389   3.947   4.143   6.131  0.4685  1.2956 -1.7191
13992TIP3   OH263390   0.459   3.426   0.316  0.0531 -0.0068 -0.6926
13992TIP3    H163391   0.509   3.345   0.301  2.6766  1.3336  0.1572
13992TIP3    H263392   0.427   3.417   0.405 -0.5959 -0.5512 -0.9727
13993TIP3   OH263393   3.861   2.655   1.113 -0.5963  0.0066  0.6131
13993TIP3    H163394   3.903   2.699   1.039  0.3108  0.6654  1.4907
13993TIP3    H263395   3.887   2.707   1.189  0.0849 -1.7515  1.6389
13994TIP3   OH263396   2.174   2.443  16.189 -0.1102 -0.3755 -0.4165
13994TIP3    H163397   2.137   2.383  16.253  0.4811 -1.9515 -1.4754
13994TIP3    H263398   2.109   2.512  16.178 -2.8027 -2.9679 -2.1576
13995TIP3   OH263399   2.380   0.555  11.214 -0.0507 -0.1210  0.0033
13995TIP3    H163400   2.428   0.592  11.288  0.9751 -0.1296 -0.6422
13995TIP3    H263401   2.355   0.630  11.161  2.7115 -0.2626 -1.7234
13996TIP3   OH263402   0.469   4.304   3.218  0.1741 -0.2175 -0.2035
13996TIP3    H163403   0.528   4.267   3.283 -1.9919 -0.5646  1.7031
13996TIP3    H263404   0.382   4.293   3.256 -1.1651  0.1445 -2.9159
13997TIP3   OH263405   5.906   6.058  15.909 -0.2946 -0.0802  0.5007
13997TIP3    H163406   5.934   6.009  15.986 -1.2768 -1.1532  0.1987
13997TIP3    H263407   5.888   6.146  15.943 -0.0602 -0.3522  1.3709
13998TIP3   OH263408   2.956   6.509   6.221 -0.0766  0.1893  0.2669
13998TIP3    H163409   2.932   6.426   6.181 -0.5697 -0.0187  0.9825
13998TIP3    H263410   3.051   6.516   6.206  0.0080 -0.6073  0.4036
13999TIP3   OH263411   1.013   5.924   3.178 -0.2935 -0.1008 -0.3241
13999TIP3    H163412   1.065   5.884   3.108  0.6699  0.3670  0.0970
13999TIP3    H263413   1.017   6.018   3.160  1.6930  0.2417  1.4186
14000TIP3   OH263414   3.405   5.122   3.916 -0.3692  0.5289 -0.1196
14000TIP3    H163415   3.334   5.083   3.864 -1.0387  1.9722 -0.3390
14000TIP3    H263416   3.363   5.146   3.998 -0.1555  1.4589 -0.2783
14001TIP3   OH263417   0.603   1.160   1.109  1.0007  0.7321  0.4456
14001TIP3    H163418   0.510   1.158   1.085  1.2616 -0.7726 -0.6217
14001TIP3    H263419   0.604   1.154   1.204  0.0015  1.5299  0.5195
14002TIP3   OH263420   2.451   2.223   5.192  0.0141 -0.1642 -0.2907
14002TIP3    H163421   2.496   2.186   5.268  0.0605 -2.3270 -1.3103
14002TIP3    H263422   2.482   2.171   5.118 -2.9677 -0.7101 -1.2704
14003TIP3   OH263423   5.847   4.356   1.199  0.2157  0.2488 -0.0546
14003TIP3    H163424   5.778   4.394   1.253  0.8329  0.2939  0.7139
14003TIP3    H263425   5.846   4.407   1.118  0.6433  1.5169  0.7283
14004TIP3   OH263426   4.810   3.163  13.912 -0.0201  0.0299 -0.2083
14004TIP3    H163427   4.882   3.169  13.975  0.4088 -0.1165 -0.6778
14004TIP3    H263428   4.827   3.082  13.864  0.4335  0.8533 -1.4487
14005TIP3   OH263429   0.914   3.787   2.529  0.5157  0.0672  0.1205
14005TIP3    H163430   0.944   3.837   2.453 -0.5892 -0.3552 -0.6244
14005TIP3    H263431   0.839   3.736   2.496  0.7567 -1.0295  1.1970
14006TIP3   OH263432   6.172   1.257  14.265 -0.1021  0.2783 -0.1567
14006TIP3    H163433   6.093   1.274  14.316 -0.5729 -0.9958 -0.4259
14006TIP3    H263434   6.178   1.162  14.261  2.2907  0.2910  1.1469
14007TIP3   OH263435   0.359   4.516   3.526 -0.2073  0.2078 -0.1347
14007TIP3    H163436   0.285   4.513   3.587 -0.9314  0.8447 -0.9540
14007TIP3    H263437   0.379   4.609   3.516 -0.2861  0.1393 -1.0708
14008TIP3   OH263438   2.712   0.569   3.155 -0.2339  0.5029 -0.0233
14008TIP3    H163439   2.641   0.603   3.101 -0.0584  2.8341  1.1140
14008TIP3    H263440   2.779   0.637   3.152  0.1003  0.3635  2.4639
14009TIP3   OH263441   5.677   5.016   1.895  0.0657  0.2734  0.1099
14009TIP3    H163442   5.617   4.945   1.916  0.6421 -0.1636  0.2996
14009TIP3    H263443   5.742   4.976   1.837  0.2063  0.7249 -0.0498
14010TIP3   OH263444   5.386   6.265  12.537 -0.1904 -0.5638 -0.4618
14010TIP3    H163445   5.427   6.312  12.611  1.6061  0.5688 -2.0736
14010TIP3    H263446   5.390   6.328  12.465  0.9184 -2.6663 -2.3301
14011TIP3   OH263447   6.244   1.412  14.550 -0.4264  0.3633  0.0437
14011TIP3    H163448   6.306   1.481  14.576  0.2973  0.1687 -1.1091
14011TIP3    H263449   6.276   1.382  14.465 -1.0267 -1.0563  0.3009
14012TIP3   OH263450   0.011   3.614   2.413 -0.9686 -0.2404 -0.2388
14012TIP3    H163451   0.068   3.551   2.459 -0.9511  0.0547  0.1472
14012TIP3    H263452  -0.067   3.562   2.390 -0.8183 -0.4850 -0.2054
14013TIP3   OH263453   3.775   4.521   4.376  0.2133 -0.5168 -0.6888
14013TIP3    H163454   3.802   4.529   4.468 -0.7106  1.2456 -0.5299
14013TIP3    H263455   3.849   4.477   4.333  2.3417  1.9084  0.1999
14014TIP3   OH263456   1.787   4.068  16.886 -0.4437  0.2007  0.1163
14014TIP3    H163457   1.725   4.123  16.934 -0.7066  0.0275 -0.0233
14014TIP3    H263458   1.738   3.990  16.864 -0.3273  0.2778 -0.4375
14015TIP3   OH263459   4.581   1.777  16.535 -0.3120  0.4959  0.4860
14015TIP3    H163460   4.566   1.853  16.591 -1.7936 -0.6300  1.7210
14015TIP3    H263461   4.498   1.729  16.538  0.7651 -1.4725  0.2385
14016TIP3   OH263462   1.033   6.513   3.151  0.6679 -0.2043 -0.4383
14016TIP3    H163463   0.987   6.483   3.072  4.1697 -1.6184 -2.1596
14016TIP3    H263464   1.043   6.434   3.204 -2.5563  0.8996  2.1795
14017TIP3   OH263465   5.447   0.697   2.736 -0.2980  0.0070 -0.6809
14017TIP3    H163466   5.362   0.674   2.697 -1.3712  0.1023  1.4647
14017TIP3    H263467   5.465   0.785   2.703 -1.0490  0.0049 -1.1331
14018TIP3   OH263468   1.172   4.670   6.818  0.3639 -0.4021 -0.5206
14018TIP3    H163469   1.219   4.627   6.747 -0.7753 -3.2310  0.2835
14018TIP3    H263470   1.176   4.608   6.891 -1.0944  1.0468  0.8869
14019TIP3   OH263471   0.971   4.067   1.410  0.5555 -0.4835 -0.5226
14019TIP3    H163472   1.034   4.035   1.474 -0.2603  1.4022  1.3401
14019TIP3    H263473   0.885   4.050   1.450 -0.0955 -1.2693 -2.1523
14020TIP3   OH263474   6.016   5.836   1.352 -0.0339  0.0637  0.1533
14020TIP3    H163475   5.964   5.808   1.428 -1.2806  2.3256  0.2136
14020TIP3    H263476   6.085   5.891   1.389 -0.6120  1.1292 -0.3125
14021TIP3   OH263477   1.378   4.795  13.688  0.1159  0.2267 -0.4062
14021TIP3    H163478   1.378   4.802  13.783 -0.1696 -0.4358 -0.3493
14021TIP3    H263479   1.433   4.867  13.658  1.3262 -0.3498  0.3400
14022TIP3   OH263480   6.045   2.583   4.063 -0.3726 -1.0249 -0.0486
14022TIP3    H163481   6.000   2.651   4.113  2.0871  1.4520 -0.9183
14022TIP3    H263482   6.138   2.595   4.085  0.3001 -3.1302 -1.4277
14023TIP3   OH263483   0.124   3.223  15.377 -0.2464 -0.1377  0.3016
14023TIP3    H163484   0.103   3.270  15.296  1.8848 -0.4081 -0.4603
14023TIP3    H263485   0.109   3.288  15.446 -1.0898  0.4292 -0.3897
14024TIP3   OH263486   3.262   6.467   5.684  0.2338  0.2651 -0.0183
14024TIP3    H163487   3.338   6.481   5.741 -0.9156  1.2469  1.3692
14024TIP3    H263488   3.207   6.405   5.731  0.2839 -0.6737 -1.1494
14025TIP3   OH263489   3.620   4.135   5.085  0.0795 -0.8404 -0.1056
14025TIP3    H163490   3.686   4.173   5.027  1.2195 -0.5661  1.3410
14025TIP3    H263491   3.554   4.203   5.093  0.1579 -0.6884 -0.6551
14026TIP3   OH263492   5.259   0.041  15.555 -0.1562  0.5778 -0.6765
14026TIP3    H163493   5.315   0.032  15.479 -0.2041 -1.7832 -0.4954
14026TIP3    H263494   5.171   0.021  15.523 -0.3646  0.8119 -0.2566
14027TIP3   OH263495   1.153   0.199   3.385  0.1787 -0.5128  0.0591
14027TIP3    H163496   1.161   0.112   3.425  0.4881 -0.3555  0.3486
14027TIP3    H263497   1.240   0.217   3.350  0.2564 -0.1060  0.4495
14028TIP3   OH263498   0.263   0.326   3.942  0.5538  0.5872 -0.2947
14028TIP3    H163499   0.299   0.284   4.020  1.7966 -0.3860 -1.3477
14028TIP3    H263500   0.171   0.301   3.941  0.3022  1.3155  1.2868
14029TIP3   OH263501   3.324   4.032  16.479  0.0984  0.4354 -0.6738
14029TIP3    H163502   3.270   3.982  16.540  0.3850  0.6478 -0.2485
14029TIP3    H263503   3.349   4.110  16.527  1.3880  0.0018 -0.6161
14030TIP3   OH263504   6.008   4.858   1.095 -0.2024  0.0716 -0.0547
14030TIP3    H163505   6.094   4.887   1.125  0.1440 -1.0242  0.0766
14030TIP3    H263506   5.945   4.904   1.149  0.2901  1.1618 -0.3948
14031TIP3   OH263507   1.557   6.155  13.805  0.0927 -0.4206 -0.0638
14031TIP3    H163508   1.500   6.194  13.738 -0.0919 -0.7764 -0.1161
14031TIP3    H263509   1.522   6.066  13.817 -0.2708 -0.1481  0.9717
14032TIP3   OH263510   3.344   1.507  13.216 -0.0848  0.0706  0.7262
14032TIP3    H163511   3.370   1.598  13.205  0.4375 -0.0476  0.9679
14032TIP3    H263512   3.409   1.470  13.276 -0.6403 -0.3056  1.1132
14033TIP3   OH263513   0.783   6.541   1.690  0.2361 -0.5876 -1.0772
14033TIP3    H163514   0.789   6.567   1.598 -2.3207 -2.6691 -1.9699
14033TIP3    H263515   0.769   6.446   1.687 -1.2458 -0.5282  1.3696
14034TIP3   OH263516   5.166   5.505   5.450  0.5470  0.5097  0.1165
14034TIP3    H163517   5.118   5.439   5.501 -0.4510  2.1950  1.5047
14034TIP3    H263518   5.117   5.512   5.368 -0.6548  1.0381  0.8497
14035TIP3   OH263519   1.696   5.470   3.527 -0.1873 -0.1724 -0.5077
14035TIP3    H163520   1.774   5.508   3.567 -0.8934 -0.4754  1.2330
14035TIP3    H263521   1.729   5.402   3.468  0.9013  0.5455 -0.7365
14036TIP3   OH263522   4.625   0.707   4.210  0.1596  0.6956  0.0541
14036TIP3    H163523   4.710   0.682   4.174 -1.0144 -1.2924 -1.5525
14036TIP3    H263524   4.639   0.795   4.244  2.0714  1.7306 -3.0134
14037TIP3   OH263525   0.173   4.371   1.130 -0.4673 -0.4891 -0.0038
14037TIP3    H163526   0.189   4.352   1.222 -0.5887  0.0075  0.1226
14037TIP3    H263527   0.259   4.360   1.088 -0.2601 -0.0230  0.2911
14038TIP3   OH263528   6.303   5.257  10.594  0.0582 -0.7737  0.0376
14038TIP3    H163529   6.259   5.299  10.668 -1.3246  1.4119 -1.9011
14038TIP3    H263530   6.388   5.302  10.589  0.1158 -0.8597  0.2193
14039TIP3   OH263531   6.466   4.674  13.507  0.2368 -0.0026 -0.3788
14039TIP3    H163532   6.381   4.676  13.550  0.6111  1.5133  0.3842
14039TIP3    H263533   6.481   4.765  13.480  2.0738  0.0028  0.5000
14040TIP3   OH263534   5.090   1.116  13.593 -0.2800  0.0176 -0.2154
14040TIP3    H163535   5.155   1.050  13.614 -2.6980 -1.9365  1.9089
14040TIP3    H263536   5.021   1.069  13.546 -0.9949  1.5727 -0.8193
14041TIP3   OH263537   0.429   1.799   5.711  0.0325  0.6604 -0.1654
14041TIP3    H163538   0.491   1.869   5.694 -0.1372  0.6195 -0.9736
14041TIP3    H263539   0.381   1.828   5.789  2.5570 -0.3189  1.9097
14042TIP3   OH263540   1.364   4.577   5.151 -0.0200  0.3905 -0.1607
14042TIP3    H163541   1.300   4.509   5.173  0.4161  0.1488  0.4033
14042TIP3    H263542   1.327   4.622   5.075 -0.7894  0.1659  0.0726
14043TIP3   OH263543   6.794   1.057   5.323  0.6023  0.9385  0.5904
14043TIP3    H163544   6.753   1.142   5.308  2.3880  1.6763 -0.4817
14043TIP3    H263545   6.879   1.077   5.363  2.5563  0.0527 -2.6341
14044TIP3   OH263546   5.600   0.399   1.869  0.0867  0.0275  0.2673
14044TIP3    H163547   5.631   0.362   1.951 -1.6734  0.5958  1.2379
14044TIP3    H263548   5.515   0.438   1.890  0.2025  1.3990 -1.5245
14045TIP3   OH263549   4.103   4.585   2.923 -0.6776  1.0454 -0.2181
14045TIP3    H163550   4.138   4.595   2.835 -0.3577  3.2964  0.1293
14045TIP3    H263551   4.178   4.560   2.976 -0.9870 -0.9670 -0.6279
14046TIP3   OH263552   6.628   5.810  14.991  0.3903  0.7190 -0.4612
14046TIP3    H163553   6.648   5.736  15.047 -1.6842  0.3370 -0.1473
14046TIP3    H263554   6.562   5.778  14.930  0.4878  1.9133 -1.2370
14047TIP3   OH263555   2.792   4.249   0.915  0.1645  0.1857 -0.2065
14047TIP3    H163556   2.772   4.283   0.828 -1.4317 -0.0974  0.0281
14047TIP3    H263557   2.801   4.327   0.970 -1.8890  0.3390 -0.0064
14048TIP3   OH263558   1.104   2.165  11.402  0.1336 -0.3729  0.3466
14048TIP3    H163559   1.023   2.207  11.371 -0.0157  0.0889  1.3442
14048TIP3    H263560   1.173   2.206  11.350 -0.1206  0.3616  0.5754
14049TIP3   OH263561   1.689   4.505   1.279  0.2338  0.6399  0.3042
14049TIP3    H163562   1.611   4.552   1.308  0.9078  0.8142  1.9483
14049TIP3    H263563   1.749   4.511   1.353  1.5343 -0.1185 -0.6535
14050TIP3   OH263564   0.879   5.872  13.011 -0.1370 -0.6322  0.1133
14050TIP3    H163565   0.915   5.938  13.071 -0.1554 -0.3885 -0.1421
14050TIP3    H263566   0.883   5.790  13.060  0.5793 -0.5728  0.1534
14051TIP3   OH263567   3.424   5.570  14.990 -0.1794  0.1501  0.0596
14051TIP3    H163568   3.474   5.502  15.035 -2.8703 -0.6555  2.0996
14051TIP3    H263569   3.421   5.643  15.052 -0.2690  0.7727 -0.6606
14052TIP3   OH263570   4.524   1.998  16.720 -0.5210  0.2986 -0.3519
14052TIP3    H163571   4.455   2.064  16.723  0.1049  0.9473 -0.0875
14052TIP3    H263572   4.534   1.969  16.811 -0.7649 -0.1389 -0.4600
14053TIP3   OH263573   4.167   5.133  13.455  0.0644  0.4910 -0.2298
14053TIP3    H163574   4.238   5.131  13.390  2.2191  0.3649  1.9801
14053TIP3    H263575   4.101   5.190  13.416  1.9469  1.6850 -1.8923
14054TIP3   OH263576   2.002   5.599  14.924  0.0679  0.4064  0.5569
14054TIP3    H163577   2.096   5.583  14.929  0.0832  0.4319  0.3755
14054TIP3    H263578   1.978   5.571  14.836  0.1451  1.6192  0.1245
14055TIP3   OH263579   1.292   2.679   1.409  0.1951 -0.2374  0.0491
14055TIP3    H163580   1.340   2.658   1.329  1.1947  0.5206  0.4405
14055TIP3    H263581   1.264   2.770   1.397  0.1022 -0.2138  0.4446
14056TIP3   OH263582   0.455   4.634  16.327  0.3087  0.1354  0.2119
14056TIP3    H163583   0.493   4.679  16.252 -1.2505  0.1716 -0.5908
14056TIP3    H263584   0.503   4.552  16.333  1.2225  0.6365 -0.1006
14057TIP3   OH263585   0.375   6.511  12.639  0.2416 -0.0557  0.3420
14057TIP3    H163586   0.469   6.513  12.621  0.0026 -2.3755 -1.6760
14057TIP3    H263587   0.338   6.580  12.584  0.7075  0.7982  1.0706
14058TIP3   OH263588   1.775   4.186   4.265 -0.4897  0.0956  0.1218
14058TIP3    H163589   1.818   4.241   4.331 -0.9811 -0.5436  1.0015
14058TIP3    H263590   1.847   4.138   4.223 -0.0909  1.1315 -0.4215
14059TIP3   OH263591   4.817   6.559  14.800 -0.0059 -0.1613 -0.3173
14059TIP3    H163592   4.842   6.587  14.888 -0.2572  0.6576 -0.5021
14059TIP3    H263593   4.731   6.519  14.812  0.5417 -1.2748  0.0155
14060TIP3   OH263594   0.889   3.832  15.485  0.1732  0.2080  0.0477
14060TIP3    H163595   0.835   3.769  15.533  0.8419 -0.6293 -0.2703
14060TIP3    H263596   0.827   3.900  15.457 -0.7847 -0.8721 -0.5746
14061TIP3   OH263597   5.342   2.178   5.516 -0.1359  0.2760 -0.0303
14061TIP3    H163598   5.327   2.222   5.600 -0.3349  0.4269 -0.1409
14061TIP3    H263599   5.361   2.087   5.539  0.8534  0.5437  0.2328
14062TIP3   OH263600   1.378   5.457   1.700 -0.2201 -0.0567 -0.2731
14062TIP3    H163601   1.372   5.362   1.709 -0.6424 -0.0405 -0.3609
14062TIP3    H263602   1.364   5.490   1.788  4.6451 -0.2273  0.8087
14063TIP3   OH263603   4.605   5.727  16.220 -0.5860  0.2416  0.3143
14063TIP3    H163604   4.662   5.748  16.294 -1.7513  2.0258  0.7755
14063TIP3    H263605   4.627   5.637  16.197 -0.4419 -0.5301  3.0869
14064TIP3   OH263606   3.816   0.140   1.702 -0.5586 -0.6795  0.3592
14064TIP3    H163607   3.807   0.209   1.635 -1.0934  0.9119  1.9913
14064TIP3    H263608   3.840   0.062   1.652  0.4762  0.7584 -1.5374
14065TIP3   OH263609   1.363   5.181   6.668 -0.2320  0.6002  0.4432
14065TIP3    H163610   1.450   5.141   6.660 -1.2499 -1.6808 -0.0108
14065TIP3    H263611   1.310   5.115   6.712 -2.2470  1.0502 -1.1527
14066TIP3   OH263612   4.368   6.003  14.271 -0.8231 -0.1635  0.3529
14066TIP3    H163613   4.300   5.986  14.206  0.6180  0.7087 -1.4885
14066TIP3    H263614   4.391   6.095  14.258 -0.0162 -0.1412  1.6761
14067TIP3   OH263615   2.595   5.111  16.833  0.2575 -0.1638  0.1903
14067TIP3    H163616   2.619   5.127  16.925  1.9099  3.0838 -0.6391
14067TIP3    H263617   2.638   5.029  16.811  0.1918 -0.7885  2.1840
14068TIP3   OH263618   1.723   5.066  11.087  0.1261  0.2495  0.5767
14068TIP3    H163619   1.631   5.045  11.070 -0.3623  2.3498  0.3551
14068TIP3    H263620   1.752   5.113  11.009  1.2594 -0.0184  0.8210
14069TIP3   OH263621   0.773   6.446  11.464 -0.2219  0.1732 -0.5797
14069TIP3    H163622   0.682   6.454  11.437 -0.9736  0.3357  1.7728
14069TIP3    H263623   0.824   6.474  11.387 -2.1322  0.4462 -1.8103
14070TIP3   OH263624   4.879   6.661  10.960 -0.4541  0.0533  0.2769
14070TIP3    H163625   4.928   6.671  10.878  0.9608 -0.3094  1.0362
14070TIP3    H263626   4.789   6.643  10.933  0.0241 -0.2217 -1.2008
14071TIP3   OH263627   0.508   3.557  16.410  0.3581 -0.1480  0.0180
14071TIP3    H163628   0.473   3.483  16.459 -1.0808 -0.6160 -1.6031
14071TIP3    H263629   0.431   3.604  16.378  1.2415  1.0899 -0.4043
14072TIP3   OH263630   5.560   3.884   3.624 -0.1069 -0.1357 -0.0009
14072TIP3    H163631   5.606   3.924   3.550  0.2651  1.4921  1.0641
14072TIP3    H263632   5.578   3.790   3.615 -1.8843 -0.3180 -3.1749
14073TIP3   OH263633   5.373   6.137  11.374  0.3234 -0.1539  0.4505
14073TIP3    H163634   5.421   6.082  11.312  1.9219  1.6336  0.0274
14073TIP3    H263635   5.441   6.174  11.430 -1.0103 -1.1746  2.9082
14074TIP3   OH263636   3.277   1.351  12.275 -0.5960  0.0586  0.2985
14074TIP3    H163637   3.211   1.345  12.207 -0.3015 -0.0825  0.0208
14074TIP3    H263638   3.312   1.440  12.267  0.5175 -0.4529 -0.7603
14075TIP3   OH263639   4.462   1.530  15.113  1.1323  0.3769  0.5013
14075TIP3    H163640   4.427   1.490  15.034 -0.1692  0.0069  1.2328
14075TIP3    H263641   4.529   1.591  15.082  0.7047  0.1746 -0.8715
14076TIP3   OH263642   3.912   4.662   0.553 -0.4466 -0.1893  0.0891
14076TIP3    H163643   3.960   4.742   0.574 -0.4829  0.2205 -1.2811
14076TIP3    H263644   3.980   4.595   0.547 -0.2005  0.1111 -0.5186
14077TIP3   OH263645   3.139   5.098   5.179  0.1857  0.3045 -0.0890
14077TIP3    H163646   3.222   5.117   5.223  0.2357  0.7561 -0.3788
14077TIP3    H263647   3.162   5.091   5.087  0.4902 -2.8545  0.1097
14078TIP3   OH263648   4.129   0.701   4.384 -0.0427 -0.3288  0.3120
14078TIP3    H163649   4.219   0.671   4.378  0.2676  0.0868  2.1629
14078TIP3    H263650   4.135   0.796   4.376 -0.3212 -0.3074  0.3340
14079TIP3   OH263651   2.463   1.667   5.962  0.0538 -0.2672  0.4157
14079TIP3    H163652   2.450   1.573   5.955 -0.4192 -0.1322 -0.6563
14079TIP3    H263653   2.376   1.704   5.944  0.6049  0.4384 -0.8797
14080TIP3   OH263654   5.547   6.712  14.189  0.3330 -0.2018 -1.0942
14080TIP3    H163655   5.620   6.767  14.161  2.5220 -1.2251  2.0979
14080TIP3    H263656   5.475   6.774  14.203  1.8582  1.4964 -0.3473
14081TIP3   OH263657   5.591   3.241  13.687 -0.2504  0.0590 -0.3985
14081TIP3    H163658   5.685   3.246  13.669 -0.0676 -2.2060 -0.3553
14081TIP3    H263659   5.550   3.283  13.611  0.7679 -0.4486 -1.2615
14082TIP3   OH263660   5.889   2.596  17.062 -0.5548 -0.2367  0.3095
14082TIP3    H163661   5.951   2.557  17.124  0.6054 -1.4307 -1.5055
14082TIP3    H263662   5.876   2.528  16.996 -0.8767  1.3586 -1.3314
14083TIP3   OH263663   6.409   1.518  12.833  0.0651 -0.6527  0.0573
14083TIP3    H163664   6.396   1.526  12.927 -0.1657 -1.5140  0.1059
14083TIP3    H263665   6.419   1.608  12.802  0.9172 -0.4012  1.0101
14084TIP3   OH263666   6.604   0.653  11.235 -0.2802  0.3308  0.3027
14084TIP3    H163667   6.589   0.593  11.308  0.2747 -1.0358 -0.6594
14084TIP3    H263668   6.672   0.610  11.183  0.6750  2.1555 -0.0473
14085TIP3   OH263669   1.144   2.934  14.867  0.1402 -0.6816 -0.7654
14085TIP3    H163670   1.139   2.930  14.963 -2.2372  0.7664 -0.7557
14085TIP3    H263671   1.148   3.027  14.847  0.5248 -0.9654 -2.1095
14086TIP3   OH263672   2.953   0.922  13.257  0.0517 -0.1405  0.2248
14086TIP3    H163673   3.008   0.850  13.287 -0.4763 -0.1813  1.1373
14086TIP3    H263674   2.906   0.950  13.335 -0.6675  0.3791 -0.3809
14087TIP3   OH263675   6.776   5.543   6.237 -0.1399  0.4305  0.1788
14087TIP3    H163676   6.871   5.537   6.247 -0.0628  0.3244 -0.5538
14087TIP3    H263677   6.744   5.562   6.325  0.5539  0.4052  0.4450
14088TIP3   OH263678   2.575   5.968  15.361 -0.5329  0.1855 -0.3226
14088TIP3    H163679   2.491   5.966  15.316  0.1055  2.0970 -1.7685
14088TIP3    H263680   2.639   5.976  15.290  1.0031 -2.3097  0.6696
14089TIP3   OH263681   2.327   4.202   1.031  0.7013 -0.8099  0.7885
14089TIP3    H163682   2.316   4.182   1.124  0.3394 -0.9179  0.7245
14089TIP3    H263683   2.418   4.229   1.023  1.0237 -1.7966  0.9889
14090TIP3   OH263684   1.937   0.699   3.087 -0.1350  0.7662  0.1092
14090TIP3    H163685   1.905   0.618   3.048  1.3680 -0.0469  0.4692
14090TIP3    H263686   1.860   0.755   3.092 -1.0702 -0.3634 -0.8152
14091TIP3   OH263687   3.673   4.964  12.325 -0.1477 -0.4670 -0.0031
14091TIP3    H163688   3.762   4.948  12.359  0.3239 -1.0341 -1.3984
14091TIP3    H263689   3.675   5.054  12.294 -0.7489  0.2387  1.8730
14092TIP3   OH263690   2.422   6.400  16.254  0.0829 -0.2057 -0.3906
14092TIP3    H163691   2.333   6.428  16.274 -0.5890 -1.4875 -1.4200
14092TIP3    H263692   2.478   6.453  16.311 -1.5449 -2.3273  3.5154
14093TIP3   OH263693   1.190   0.196  16.230  0.4704  0.3972  0.1547
14093TIP3    H163694   1.249   0.197  16.154  1.7562 -0.0167  1.0963
14093TIP3    H263695   1.247   0.218  16.304 -1.4185  4.9895  0.6279
14094TIP3   OH263696   2.198   2.480   5.821 -0.1044 -0.1698 -0.5018
14094TIP3    H163697   2.283   2.508   5.854  0.2978  0.4332 -1.9482
14094TIP3    H263698   2.153   2.442   5.897  0.7697  1.0928  0.6977
14095TIP3   OH263699   6.293   6.216   1.724  0.3031 -0.3596  0.0658
14095TIP3    H163700   6.252   6.245   1.642  0.1777 -0.1658  0.1971
14095TIP3    H263701   6.373   6.172   1.696  0.9916  0.9378 -0.0905
14096TIP3   OH263702   3.650   2.168   4.979 -0.5475 -0.0873 -0.5065
14096TIP3    H163703   3.607   2.173   5.064  0.1418  0.3516 -0.1757
14096TIP3    H263704   3.605   2.233   4.926  0.2737  1.0037  0.1037
14097TIP3   OH263705   1.331   2.407  12.992 -0.1755  0.4373  0.1688
14097TIP3    H163706   1.350   2.436  13.081  0.7993  0.9223 -0.1874
14097TIP3    H263707   1.379   2.468  12.936  0.7453 -0.9889 -0.6466
14098TIP3   OH263708   4.732   2.440  14.192  0.2707  0.1438 -0.3405
14098TIP3    H163709   4.817   2.407  14.161  0.4906  2.0088 -1.8913
14098TIP3    H263710   4.668   2.401  14.132  0.5776  2.7162 -2.5191
14099TIP3   OH263711   3.348   3.382   2.741 -0.0866 -0.2269  0.0009
14099TIP3    H163712   3.378   3.303   2.696 -1.7925 -1.2962  0.6349
14099TIP3    H263713   3.425   3.414   2.787  0.9199 -0.8680 -1.1732
14100TIP3   OH263714   2.204   3.318   0.721 -0.5903  0.0115 -0.5389
14100TIP3    H163715   2.199   3.375   0.797 -2.1105 -0.6260 -0.1373
14100TIP3    H263716   2.295   3.286   0.721 -0.4372  0.3931  0.7123
14101TIP3   OH263717   1.325   5.420  13.790 -0.1265 -0.0757 -0.0201
14101TIP3    H163718   1.327   5.513  13.815 -0.2213 -0.0746 -0.0144
14101TIP3    H263719   1.317   5.421  13.695 -0.4288 -0.0763  0.0041
14102TIP3   OH263720   5.849   5.217   4.281  0.1167 -0.2205  0.4803
14102TIP3    H163721   5.830   5.123   4.281 -1.0581 -0.0044 -0.0833
14102TIP3    H263722   5.805   5.250   4.360  2.7446 -0.5150  2.1787
14103TIP3   OH263723   5.278   1.909  17.160 -0.1552  0.1260 -0.1974
14103TIP3    H163724   5.193   1.898  17.204 -0.8689 -1.2265 -1.8261
14103TIP3    H263725   5.341   1.866  17.218 -1.0407 -1.4125 -0.3234
14104TIP3   OH263726   2.211   5.692  16.664 -0.3612 -0.2150 -0.2524
14104TIP3    H163727   2.201   5.635  16.588  1.7663 -0.1974 -0.6134
14104TIP3    H263728   2.213   5.780  16.627 -0.1280 -0.1476 -0.0770
14105TIP3   OH263729   5.177   5.191   2.695 -0.6690  0.3955 -0.1249
14105TIP3    H163730   5.111   5.239   2.746  0.6196  0.5538  1.4910
14105TIP3    H263731   5.189   5.109   2.743 -1.7043 -0.9089 -1.9879
14106TIP3   OH263732   1.697   2.078  16.499  0.4408  0.2426 -0.5029
14106TIP3    H163733   1.788   2.051  16.505  0.0641 -1.2583 -1.1166
14106TIP3    H263734   1.680   2.086  16.405 -0.2894 -0.3969 -0.4416
14107TIP3   OH263735   1.010   6.328   4.681  0.5077 -0.0516 -0.0266
14107TIP3    H163736   0.951   6.388   4.635  0.9085 -0.2764 -0.8370
14107TIP3    H263737   1.052   6.382   4.748  0.4591  0.4396 -0.3917
14108TIP3   OH263738   1.390   1.536   0.626 -0.3653 -0.1694 -0.0376
14108TIP3    H163739   1.467   1.591   0.634  0.7780 -1.5115 -1.1910
14108TIP3    H263740   1.323   1.595   0.591  0.2593  0.9041  0.5075
14109TIP3   OH263741   2.762   1.857  13.515 -0.1360  0.2755  0.0943
14109TIP3    H163742   2.666   1.863  13.515 -0.1096  0.9738 -1.1207
14109TIP3    H263743   2.780   1.776  13.564 -1.4413 -1.0006 -1.3953
14110TIP3   OH263744   1.289   3.289  12.567  0.6825 -0.0323 -0.2252
14110TIP3    H163745   1.251   3.325  12.647  0.1331  1.3280 -1.0595
14110TIP3    H263746   1.342   3.360  12.531 -0.1473 -0.1393 -1.7452
14111TIP3   OH263747   0.742   0.758   0.016 -0.4226 -0.3879  0.0210
14111TIP3    H163748   0.649   0.777   0.008 -0.5796 -0.9154  0.4842
14111TIP3    H263749   0.783   0.802  -0.059 -1.2649 -1.6687 -1.2339
14112TIP3   OH263750   4.806   3.968   3.081 -0.3869  0.5110  0.6621
14112TIP3    H163751   4.864   4.001   3.012 -0.0872  1.1377  1.2063
14112TIP3    H263752   4.724   4.017   3.068 -0.6951 -0.1344  0.1018
14113TIP3   OH263753   5.578   0.763   5.472 -0.2905  0.2409  0.3167
14113TIP3    H163754   5.491   0.794   5.445 -0.5373  0.4643  1.3361
14113TIP3    H263755   5.585   0.787   5.564  1.3777  1.3760 -0.0679
14114TIP3   OH263756   5.953   5.089   0.299  0.5520 -0.2940  0.1287
14114TIP3    H163757   5.902   5.041   0.364 -1.0896  0.8212 -0.2735
14114TIP3    H263758   5.920   5.179   0.304  0.9059 -0.0176 -1.7099
14115TIP3   OH263759   6.605   6.263  12.384 -0.2940  0.2497 -0.4389
14115TIP3    H163760   6.567   6.306  12.307 -0.0879  0.2214 -0.5560
14115TIP3    H263761   6.549   6.292  12.457  0.7177  1.9232 -0.2849
14116TIP3   OH263762   4.824   0.935  15.941  0.4521 -0.1166 -0.1779
14116TIP3    H163763   4.752   0.889  15.897  0.5028 -0.0238 -0.3554
14116TIP3    H263764   4.799   1.028  15.937 -0.6784 -0.2632  1.9778
14117TIP3   OH263765   6.094   1.888   4.837 -0.4347 -0.0431  0.0007
14117TIP3    H163766   6.139   1.957   4.885  0.2036 -1.1658  1.0518
14117TIP3    H263767   6.164   1.830   4.807 -1.0751 -1.1812  0.6527
14118TIP3   OH263768   3.638   5.705   1.731 -0.2419  0.9110  0.2617
14118TIP3    H163769   3.717   5.717   1.784  0.7076 -3.4596  0.2197
14118TIP3    H263770   3.670   5.696   1.642 -0.5152 -1.8609  0.3538
14119TIP3   OH263771   1.030   3.379  15.873  0.0139 -0.2947 -0.4024
14119TIP3    H163772   0.946   3.348  15.839  0.0319 -0.8380  0.0308
14119TIP3    H263773   1.051   3.455  15.820 -0.3048 -0.7050 -1.1306
14120TIP3   OH263774   3.473   5.950   3.743 -0.1300  0.3183  0.1741
14120TIP3    H163775   3.492   5.922   3.654  1.9220  0.7010  0.4372
14120TIP3    H263776   3.387   5.913   3.763  0.3819 -1.7326 -1.1360
14121TIP3   OH263777   2.747   1.416   5.347  0.3449 -0.1990  0.7846
14121TIP3    H163778   2.757   1.327   5.382 -0.1820 -1.3997 -1.7983
14121TIP3    H263779   2.774   1.407   5.255 -1.5241  1.9004 -0.0414
14122TIP3   OH263780   0.354   5.111  12.023 -0.0568 -0.6109 -0.7250
14122TIP3    H163781   0.320   5.168  12.092 -1.1966 -0.2756 -1.5408
14122TIP3    H263782   0.281   5.054  12.001  0.8927 -2.0065 -0.3475
14123TIP3   OH263783   6.008   2.501  15.851  0.0995 -0.0642 -0.5634
14123TIP3    H163784   6.056   2.563  15.796  0.3571  0.7002  0.4764
14123TIP3    H263785   6.076   2.455  15.899 -0.1559  0.7090  0.5896
14124TIP3   OH263786   6.111   3.102  12.624 -0.0617  0.2062 -0.2826
14124TIP3    H163787   6.177   3.077  12.560  0.3832  1.1247 -0.1924
14124TIP3    H263788   6.087   3.191  12.601  0.0807  0.5411  0.8087
14125TIP3   OH263789   3.015   5.793  17.061 -0.3276  0.7254 -0.1355
14125TIP3    H163790   3.053   5.791  16.973  0.2884  2.9783  0.0198
14125TIP3    H263791   3.090   5.782  17.119 -0.8506 -1.8057  0.1769
14126TIP3   OH263792   4.894   3.304   3.587 -0.2803  0.1159  0.0119
14126TIP3    H163793   4.989   3.315   3.579 -0.3418  0.3081 -0.4622
14126TIP3    H263794   4.871   3.246   3.515 -0.1487 -2.1293  1.6848
14127TIP3   OH263795   2.171   1.207  15.342 -0.0864 -0.2566  0.2462
14127TIP3    H163796   2.103   1.267  15.370  1.2161  1.5848 -0.3174
14127TIP3    H263797   2.144   1.179  15.255 -0.9841 -0.9606  0.7379
14128TIP3   OH263798   2.523   4.176  14.951 -0.0030  0.0375  0.2233
14128TIP3    H163799   2.504   4.240  14.882  0.2397 -0.6418 -0.4991
14128TIP3    H263800   2.450   4.115  14.948  1.1187 -1.3172 -1.0481
14129TIP3   OH263801   0.367   3.236  12.664  0.2240 -0.2269 -0.0356
14129TIP3    H163802   0.381   3.205  12.575 -0.6013 -1.6844  0.3178
14129TIP3    H263803   0.306   3.309  12.655 -1.4950 -1.6439 -0.5447
14130TIP3   OH263804   4.368   2.839   3.666 -0.3759 -0.0074 -0.3670
14130TIP3    H163805   4.301   2.783   3.704  0.3271 -0.7074 -0.1476
14130TIP3    H263806   4.444   2.783   3.655 -0.7805 -0.1488 -3.7329
14131TIP3   OH263807   3.678   1.363   0.775  0.2431 -0.2927  0.0641
14131TIP3    H163808   3.663   1.439   0.719 -1.2860 -1.1632 -0.7591
14131TIP3    H263809   3.739   1.308   0.726 -1.1833 -1.1093 -0.8657
14132TIP3   OH263810   3.143   4.596  15.562 -0.0516  0.6996 -0.5059
14132TIP3    H163811   3.187   4.511  15.561 -0.4953  0.4667 -0.6703
14132TIP3    H263812   3.084   4.592  15.638 -1.3571  0.1801 -1.5097
14133TIP3   OH263813   2.101   0.328   0.199 -0.0184 -0.6278  0.0350
14133TIP3    H163814   2.180   0.274   0.193  0.9894  0.6268  1.0559
14133TIP3    H263815   2.131   0.407   0.246 -1.3588  0.8848 -1.5292
14134TIP3   OH263816   6.558   4.530  10.288  0.3149 -0.1408 -0.1536
14134TIP3    H163817   6.496   4.556  10.356 -1.0220 -1.5695 -0.7630
14134TIP3    H263818   6.536   4.585  10.213 -0.1665 -0.5695 -0.3334
14135TIP3   OH263819   0.417   2.776  14.529  0.1525 -0.4271  0.1931
14135TIP3    H163820   0.439   2.868  14.512 -1.0019  0.1801  1.7798
14135TIP3    H263821   0.464   2.754  14.609  0.8777 -1.4186 -0.4857
14136TIP3   OH263822   6.451   5.676   4.048  0.4122  0.4176 -0.2943
14136TIP3    H163823   6.546   5.670   4.042  0.4409  1.6564 -1.5420
14136TIP3    H263824   6.423   5.705   3.961 -1.2155 -1.0004 -0.2880
14137TIP3   OH263825   4.602   4.891   4.969  0.5533  0.3954 -0.5262
14137TIP3    H163826   4.580   4.895   5.062  2.0518  2.7453 -0.1678
14137TIP3    H263827   4.519   4.873   4.925  0.2072 -3.5102  1.3193
14138TIP3   OH263828   5.378   2.013  13.707 -0.0993  0.6120 -0.0641
14138TIP3    H163829   5.431   1.941  13.741 -0.4714  1.1665  1.7885
14138TIP3    H263830   5.296   1.972  13.680 -1.1082  0.4986  2.8136
14139TIP3   OH263831   2.620   3.190  13.873  0.0801 -0.2018 -0.9085
14139TIP3    H163832   2.597   3.117  13.816 -0.6741  0.2518 -1.2007
14139TIP3    H263833   2.588   3.268  13.827 -1.0205  0.1318  0.3414
14140TIP3   OH263834   6.092   3.677   5.278 -0.2767 -0.0411  0.4951
14140TIP3    H163835   6.120   3.768   5.286  2.5932 -0.5661 -1.7913
14140TIP3    H263836   6.028   3.677   5.207 -0.6118  0.2397  0.7966
14141TIP3   OH263837   6.560   1.429   0.050  0.0523 -0.4340  0.3435
14141TIP3    H163838   6.599   1.344   0.027  0.5025 -0.0014 -0.5843
14141TIP3    H263839   6.471   1.425   0.016  1.1000  0.6858 -2.9409
14142TIP3   OH263840   6.050   2.505   3.403 -0.4838 -0.7637  0.4735
14142TIP3    H163841   6.006   2.427   3.367 -1.0190 -0.2795  0.0717
14142TIP3    H263842   5.989   2.577   3.385 -0.3267 -0.3670  1.5068
14143TIP3   OH263843   4.068   1.942  12.508 -0.0244  0.1980 -0.3728
14143TIP3    H163844   3.987   1.917  12.463  0.3591  0.6516 -1.3505
14143TIP3    H263845   4.134   1.945  12.439  0.8425 -0.1920  0.4125
14144TIP3   OH263846   6.503   4.218  15.322 -0.5523  0.4771 -0.3053
14144TIP3    H163847   6.556   4.187  15.249  0.1914  0.4631  0.2294
14144TIP3    H263848   6.529   4.309  15.334 -1.0775  0.6429 -0.4126
14145TIP3   OH263849   2.193   5.634  14.737  0.5701  0.3096 -0.0468
14145TIP3    H163850   2.225   5.699  14.675 -0.2383 -2.2130 -3.4435
14145TIP3    H263851   2.103   5.616  14.708  0.8685 -2.4695  0.4708
14146TIP3   OH263852   5.351   5.582   1.381  0.1512 -0.8141 -0.3357
14146TIP3    H163853   5.267   5.566   1.424 -1.0802  1.5354 -1.6602
14146TIP3    H263854   5.381   5.665   1.417  1.8050 -1.4709 -0.1177
14147TIP3   OH263855   4.247   4.114   3.803  0.2291 -0.4819  0.1186
14147TIP3    H163856   4.220   4.050   3.736  1.6970 -1.4119  0.3842
14147TIP3    H263857   4.272   4.061   3.878  0.4024  0.4790  0.7533
14148TIP3   OH263858   3.477   5.203  14.686  0.4849 -0.3736  0.7797
14148TIP3    H163859   3.544   5.146  14.647  0.6982 -0.2460  0.9569
14148TIP3    H263860   3.479   5.181  14.780  0.6221 -0.0214  0.8607
14149TIP3   OH263861   5.082   4.920   4.701  0.3548 -0.3320  0.4197
14149TIP3    H163862   5.161   4.973   4.696 -0.0873  0.4110  1.0116
14149TIP3    H263863   5.032   4.959   4.773 -1.7856  0.9141 -1.5929
14150TIP3   OH263864   5.611   2.574  12.059 -0.4041  0.0037  0.0037
14150TIP3    H163865   5.583   2.509  11.994  1.6588  0.5618 -1.5796
14150TIP3    H263866   5.600   2.658  12.015  0.6791  0.4269  0.4966
14151TIP3   OH263867   5.395   5.430   4.182 -0.2244 -0.3034 -0.9390
14151TIP3    H163868   5.391   5.448   4.088  1.1344  2.8117 -0.5099
14151TIP3    H263869   5.340   5.498   4.221  0.9900 -0.1718  0.6223
14152TIP3   OH263870   3.743   3.626   5.546  0.3306  0.0095  0.0200
14152TIP3    H163871   3.833   3.613   5.517 -0.5202 -1.4218 -2.2591
14152TIP3    H263872   3.738   3.720   5.564  1.7135  0.5870 -2.1117
14153TIP3   OH263873   5.811   1.490  12.609  0.9808 -0.4363 -0.3827
14153TIP3    H163874   5.779   1.402  12.628  0.8087 -0.6307 -1.5362
14153TIP3    H263875   5.779   1.510  12.521  2.6478 -0.0059 -0.9425
14154TIP3   OH263876   0.827   5.665  15.557 -0.0485 -0.2516 -0.3496
14154TIP3    H163877   0.803   5.616  15.478  2.0237  0.2626 -1.3407
14154TIP3    H263878   0.906   5.712  15.534 -0.1944  1.0725  1.6093
14155TIP3   OH263879   4.555   1.173  12.170  0.0343 -0.4588 -0.3932
14155TIP3    H163880   4.523   1.179  12.260 -2.6978  3.5411 -1.3634
14155TIP3    H263881   4.483   1.133  12.121  1.2214 -1.9725 -0.9826
14156TIP3   OH263882   2.826   4.561  13.053  0.4794 -0.2427  0.0196
14156TIP3    H163883   2.871   4.479  13.076 -1.4824 -1.1796  0.6927
14156TIP3    H263884   2.792   4.546  12.966  0.2752 -0.0673  0.0712
14157TIP3   OH263885   5.557   2.144   2.901 -0.0273 -0.3450 -0.1529
14157TIP3    H163886   5.501   2.175   2.972  1.9358  0.0497  1.3277
14157TIP3    H263887   5.541   2.204   2.828 -1.6996 -0.4347  0.1180
14158TIP3   OH263888   3.982   3.501   2.912 -0.6151  0.5007  0.4929
14158TIP3    H163889   4.057   3.527   2.966 -0.9004  1.2824  0.5213
14158TIP3    H263890   3.986   3.405   2.910  0.6236  0.5470  0.1470
14159TIP3   OH263891   3.802   4.619  10.429  0.3042  0.0441  0.0369
14159TIP3    H163892   3.718   4.600  10.469  0.4509 -2.5221 -0.7059
14159TIP3    H263893   3.792   4.706  10.391 -1.2176  0.7414  1.9312
14160TIP3   OH263894   1.371   4.286   2.320  0.7949  0.0558 -0.0052
14160TIP3    H163895   1.424   4.244   2.387  0.7656  0.3044  0.1743
14160TIP3    H263896   1.435   4.333   2.266  0.7707  0.2774  0.1550
14161TIP3   OH263897   5.090   2.249  16.710 -0.5394 -0.2843 -0.3142
14161TIP3    H163898   5.182   2.261  16.732 -0.7582 -0.5363  0.7729
14161TIP3    H263899   5.051   2.336  16.723 -0.7634 -0.5396  0.8173
14162TIP3   OH263900   6.792   3.649   0.033 -0.5117 -0.4796  0.4715
14162TIP3    H163901   6.885   3.669   0.045 -0.5861  0.7187 -0.7637
14162TIP3    H263902   6.749   3.735   0.025 -1.1819 -0.9780 -2.6487
14163TIP3   OH263903   2.828   6.598   0.934 -0.5024 -0.2448  0.1541
14163TIP3    H163904   2.810   6.620   1.025  0.4983  1.0411  0.0725
14163TIP3    H263905   2.876   6.516   0.937 -0.6544 -0.3124  0.7636
14164TIP3   OH263906   3.955   0.487   0.462  0.0318 -0.0589 -0.2253
14164TIP3    H163907   3.911   0.405   0.438 -0.4847 -0.1128  0.8444
14164TIP3    H263908   4.048   0.469   0.449 -0.0619 -0.8915  0.1791
14165TIP3   OH263909   5.521   3.789  16.800 -0.2811  0.1049  0.6179
14165TIP3    H163910   5.485   3.878  16.797  1.0180  0.6742  1.0380
14165TIP3    H263911   5.525   3.763  16.708 -1.6501  0.0544  0.5560
14166TIP3   OH263912   2.755   5.593  11.317  0.2693 -0.3210  0.4863
14166TIP3    H163913   2.763   5.513  11.369 -1.7557 -0.6046  0.4653
14166TIP3    H263914   2.660   5.604  11.305  0.5763  1.1189 -1.0133
14167TIP3   OH263915   3.818   6.073  12.643  0.0946  0.2024  0.0186
14167TIP3    H163916   3.751   6.127  12.601 -1.1154 -0.8408  0.5357
14167TIP3    H263917   3.799   6.078  12.736  0.6110 -0.2699  0.1580
14168TIP3   OH263918   3.130   4.112  10.926 -0.6041  0.3494  0.5853
14168TIP3    H163919   3.222   4.112  10.899 -0.9143  1.9700 -0.6927
14168TIP3    H263920   3.102   4.021  10.917  0.7518 -0.0858  0.5450
14169TIP3   OH263921   2.713   0.029   1.506  0.3331 -0.1503  0.4747
14169TIP3    H163922   2.654  -0.033   1.465  2.2801 -1.4731 -0.4734
14169TIP3    H263923   2.716   0.001   1.598  0.1391 -0.5872  0.3510
14170TIP3   OH263924   5.091   1.042  11.215 -0.4529  0.1717  0.6666
14170TIP3    H163925   5.008   0.995  11.223 -1.1028  0.1299 -3.7868
14170TIP3    H263926   5.067   1.134  11.214 -0.3066  0.2105  0.7328
14171TIP3   OH263927   0.687   1.348   4.806 -0.6442 -0.3164 -0.2585
14171TIP3    H163928   0.597   1.344   4.776 -0.4471 -0.8552 -0.8054
14171TIP3    H263929   0.693   1.281   4.874 -0.3447 -1.1857 -1.1165
14172TIP3   OH263930   3.881   1.717  11.764 -0.3694 -0.2277 -0.6129
14172TIP3    H163931   3.952   1.757  11.713  0.4812  0.1476  0.8161
14172TIP3    H263932   3.924   1.646  11.812 -1.1512 -0.5708 -0.4155
14173TIP3   OH263933   2.825   3.075   0.978  0.0744  0.2227 -0.3167
14173TIP3    H163934   2.779   3.097   0.897  0.2254  0.1366 -0.4282
14173TIP3    H263935   2.915   3.106   0.963  0.3275 -0.5773 -0.5314
14174TIP3   OH263936   1.432   2.549   3.683  0.0909  0.5955 -0.0035
14174TIP3    H163937   1.479   2.599   3.750  2.6557 -1.8041  0.2236
14174TIP3    H263938   1.341   2.576   3.691  0.8993  3.1288  1.8778
14175TIP3   OH263939   0.554   4.536   0.532 -0.0844  0.1413 -0.0670
14175TIP3    H163940   0.563   4.442   0.515  0.9276  0.0074  1.0905
14175TIP3    H263941   0.621   4.577   0.476 -0.8318  0.2268 -0.9161
14176TIP3   OH263942   1.242   0.738   1.208  0.3108 -0.1927  0.6866
14176TIP3    H163943   1.153   0.704   1.218  0.5360 -0.7738  0.7576
14176TIP3    H263944   1.294   0.662   1.180  0.2594  0.7343 -2.2262
14177TIP3   OH263945   0.931   1.909   5.543 -0.1697 -0.1886  0.6671
14177TIP3    H163946   0.851   1.922   5.492  0.5969  1.0350 -0.2727
14177TIP3    H263947   0.947   1.815   5.537 -2.4059 -0.7645  2.2741
14178TIP3   OH263948   3.229   0.180   3.822 -0.7741 -0.8128 -0.1080
14178TIP3    H163949   3.277   0.229   3.889 -0.7787  0.3634 -0.9280
14178TIP3    H263950   3.282   0.190   3.742 -1.6612 -0.6842 -0.6969
14179TIP3   OH263951   3.509   6.114   0.808 -0.1309  0.5725 -0.8131
14179TIP3    H163952   3.473   6.181   0.865 -0.2035  0.2101 -0.4221
14179TIP3    H263953   3.435   6.058   0.785  0.4558 -1.5814  1.9095
14180TIP3   OH263954   2.554   4.091   3.227  0.0135  0.2520 -0.3271
14180TIP3    H163955   2.605   4.083   3.308 -0.3277 -2.3074 -0.2708
14180TIP3    H263956   2.561   4.183   3.203  1.1243  0.8364  1.9573
14181TIP3   OH263957   6.509   1.048   4.809  0.0755  0.3019  0.0425
14181TIP3    H163958   6.498   0.971   4.864 -1.0100 -0.1674 -0.7955
14181TIP3    H263959   6.574   1.022   4.744 -0.7371 -0.1481 -0.6143
14182TIP3   OH263960   0.293   0.887  13.845  0.2825  0.3846 -0.0508
14182TIP3    H163961   0.337   0.910  13.927 -0.6344 -1.0611  0.8878
14182TIP3    H263962   0.354   0.828  13.801 -0.5948 -1.5548  1.2129
14183TIP3   OH263963   4.100   4.308   3.982  0.0364  0.1414  0.5103
14183TIP3    H163964   4.041   4.240   4.015 -0.7505  1.8028  2.7572
14183TIP3    H263965   4.163   4.261   3.928 -1.8933 -2.0338 -0.0203
14184TIP3   OH263966   4.331   5.197   3.530  0.7780 -0.4050  0.0218
14184TIP3    H163967   4.246   5.188   3.489  1.3600 -0.5685 -1.1752
14184TIP3    H263968   4.314   5.250   3.608 -0.2918  0.1833 -0.5860
14185TIP3   OH263969   5.233   2.348   5.747  0.7396 -0.0220 -0.1083
14185TIP3    H163970   5.282   2.429   5.764  1.8930 -0.7955  0.3430
14185TIP3    H263971   5.288   2.279   5.783  0.4625 -1.1704 -1.7917
14186TIP3   OH263972   6.058   3.801   4.511 -0.2195  0.1995 -0.4100
14186TIP3    H163973   6.037   3.720   4.557  2.1403  0.3127  1.0357
14186TIP3    H263974   6.142   3.828   4.548 -0.1560  2.4518 -2.0202
14187TIP3   OH263975   5.993   5.711  15.319  0.2246  0.5107 -0.7198
14187TIP3    H163976   5.909   5.667  15.314 -0.3188  1.3526  0.4832
14187TIP3    H263977   6.055   5.643  15.345 -0.1780  0.0104 -1.0507
14188TIP3   OH263978   2.296   1.047   3.835 -0.0304  0.5865 -0.1301
14188TIP3    H163979   2.228   0.982   3.854 -1.8008  2.7453  1.3520
14188TIP3    H263980   2.256   1.131   3.855  2.6687  2.0815 -0.4867
14189TIP3   OH263981   4.763   2.197   1.945  0.2582 -0.3948 -0.2113
14189TIP3    H163982   4.758   2.275   2.000 -1.7383 -0.0620 -0.7716
14189TIP3    H263983   4.828   2.141   1.988 -0.6912  0.1547  2.0831
14190TIP3   OH263984   4.638   2.755   0.088  0.0819  0.2374 -0.2406
14190TIP3    H163985   4.651   2.758  -0.007  0.0517  4.0876 -0.3032
14190TIP3    H263986   4.546   2.728   0.099  0.3080 -1.0160 -1.2171
14191TIP3   OH263987   0.275   1.325   0.822 -0.4606 -0.6070  0.1175
14191TIP3    H163988   0.267   1.307   0.916 -1.9101  1.9105  0.5754
14191TIP3    H263989   0.370   1.329   0.806 -0.0838  2.2277  2.3007
14192TIP3   OH263990   2.627   1.592  16.113  0.1434 -0.1847 -0.2146
14192TIP3    H163991   2.585   1.543  16.042  1.2070 -0.5479 -0.6127
14192TIP3    H263992   2.562   1.658  16.138 -1.5065 -1.9876  0.5876
14193TIP3   OH263993   1.439   6.123   4.557  0.8712 -0.2346  0.2235
14193TIP3    H163994   1.450   6.048   4.499  0.2575  0.3127 -0.6247
14193TIP3    H263995   1.346   6.122   4.580  1.1604 -0.6155  1.4561
14194TIP3   OH263996   3.964   4.813  14.352  0.3338  0.2959  0.5931
14194TIP3    H163997   3.902   4.751  14.389 -1.5049  2.4191  1.2521
14194TIP3    H263998   3.942   4.816  14.259  0.4108  0.0114  0.5635
14195TIP3   OH263999   0.226   1.960  16.990  0.7602 -0.0299 -0.2771
14195TIP3    H164000   0.187   1.948  16.904  1.5377 -0.6083 -0.5576
14195TIP3    H264001   0.223   2.054  17.005  2.2660  0.2925 -1.7368
14196TIP3   OH264002   3.156   2.829  17.119 -0.3743 -0.3112  0.5968
14196TIP3    H164003   3.169   2.923  17.107  2.9359 -0.9145 -2.2490
14196TIP3    H264004   3.076   2.809  17.070  0.7639  0.6589 -1.8283
14197TIP3   OH264005   2.681   2.273  11.208  0.5900  0.0681 -0.0702
14197TIP3    H164006   2.688   2.325  11.288 -2.0988 -1.5328  1.3373
14197TIP3    H264007   2.587   2.259  11.197  1.0420 -1.8149 -2.1781
14198TIP3   OH264008   4.547   2.574  16.986  0.0394  0.5993 -0.4765
14198TIP3    H164009   4.534   2.526  16.904 -0.8445 -1.8471  0.9696
14198TIP3    H264010   4.564   2.505  17.050  2.4923  2.5422  1.1131
14199TIP3   OH264011   0.533   3.179   5.515  0.4572  0.8617  0.4733
14199TIP3    H164012   0.531   3.204   5.607 -1.1262  2.4009  0.0862
14199TIP3    H264013   0.606   3.228   5.478  0.8493  0.5473  0.8295
14200TIP3   OH264014   2.095   0.023   3.878  0.1946  0.3722  0.6826
14200TIP3    H164015   2.040   0.089   3.834  0.5867 -1.5196 -3.0945
14200TIP3    H264016   2.033  -0.032   3.925 -0.4091  1.8061  1.6295
14201TIP3   OH264017   1.140   0.580  12.938  0.1472 -0.4863  0.0546
14201TIP3    H164018   1.190   0.586  12.856 -1.2042  1.2349 -0.7113
14201TIP3    H264019   1.074   0.514  12.921 -0.5085  0.2897 -0.4968
14202TIP3   OH264020   3.014   1.269   4.258 -0.5728 -0.0842  0.4644
14202TIP3    H164021   3.048   1.234   4.176 -0.4226  0.1888  0.4114
14202TIP3    H264022   3.017   1.195   4.319 -0.0311 -0.1021  0.4186
14203TIP3   OH264023   2.683   6.069  11.966  0.0332  0.1746 -0.1970
14203TIP3    H164024   2.631   6.028  12.035  3.5058 -2.4092  1.2189
14203TIP3    H264025   2.640   6.044  11.885 -1.8528 -0.3191  0.8990
14204TIP3   OH264026   1.549   5.129  14.926 -0.2190  0.2103  0.2933
14204TIP3    H164027   1.572   5.106  15.016 -0.4277  1.2435  0.6310
14204TIP3    H264028   1.456   5.152  14.930 -0.4904 -0.7327 -0.3990
14205TIP3   OH264029   5.329   3.046  10.447  0.2419  0.2382 -0.4929
14205TIP3    H164030   5.370   2.982  10.504  0.1703  0.9079  0.3339
14205TIP3    H264031   5.367   3.030  10.361  0.2809 -0.8498 -0.2839
14206TIP3   OH264032   5.945   3.363   1.891  0.3847  0.0916  0.0375
14206TIP3    H164033   5.892   3.439   1.869 -2.1598 -1.6446 -0.2376
14206TIP3    H264034   6.016   3.398   1.946  0.3335  2.8418 -1.4922
14207TIP3   OH264035   1.274   5.381  13.393  0.1377 -0.0056  0.0514
14207TIP3    H164036   1.265   5.341  13.306  0.8093  0.1691 -0.1022
14207TIP3    H264037   1.204   5.341  13.445 -1.4917  1.2523 -1.0717
14208TIP3   OH264038   4.471   5.957  14.985  0.1544  0.7709 -1.1446
14208TIP3    H164039   4.540   5.893  15.003 -1.1963 -0.2450  0.7411
14208TIP3    H264040   4.513   6.042  14.994  0.7992  0.2097  1.9147
14209TIP3   OH264041   3.671   2.565   4.714 -0.0967  0.3845 -0.1751
14209TIP3    H164042   3.734   2.597   4.779 -1.9770  1.0782  1.4075
14209TIP3    H264043   3.601   2.525   4.766  0.0906 -2.5237 -1.9520
14210TIP3   OH264044   4.388   1.434  12.277  0.0913  0.2173 -0.7246
14210TIP3    H164045   4.386   1.483  12.360  1.3662 -0.0139 -0.5279
14210TIP3    H264046   4.366   1.499  12.211  0.0418  0.6512 -0.2919
14211TIP3   OH264047   2.707   5.039   3.261  0.1642 -0.2206 -0.5997
14211TIP3    H164048   2.725   4.945   3.258  1.0642 -0.0852  0.0058
14211TIP3    H264049   2.776   5.078   3.207  0.7353  0.1994  0.4114
14212TIP3   OH264050   1.597   5.811  11.393 -0.0030  0.0907  0.0748
14212TIP3    H164051   1.644   5.771  11.466  0.1786  0.3791  0.1201
14212TIP3    H264052   1.574   5.738  11.336 -2.5707 -0.5202  1.7549
14213TIP3   OH264053   4.130   2.290   4.123  0.7712 -0.3235 -0.1136
14213TIP3    H164054   4.078   2.256   4.195  0.1684 -0.0807 -0.4336
14213TIP3    H264055   4.122   2.223   4.055  0.4026 -0.0142 -0.3754
14214TIP3   OH264056   4.713   2.621   3.857  0.9034  0.4227 -0.3663
14214TIP3    H164057   4.803   2.650   3.841  0.6708  0.8832 -0.8817
14214TIP3    H264058   4.719   2.526   3.864  1.2459  0.3243 -1.7630
14215TIP3   OH264059   3.670   6.362  14.587  0.7759 -0.3855  0.1661
14215TIP3    H164060   3.654   6.456  14.598 -2.4159 -0.5620 -1.6255
14215TIP3    H264061   3.736   6.357  14.518 -0.8244  0.6520 -1.5536
14216TIP3   OH264062   6.719   5.973  14.518  0.3537 -0.2771 -0.4727
14216TIP3    H164063   6.685   6.020  14.594 -1.8847 -2.8352  0.2634
14216TIP3    H264064   6.745   5.887  14.551 -0.4835 -1.3981 -2.4972
14217TIP3   OH264065   1.551   4.599  14.987 -0.7313 -0.2603 -0.4980
14217TIP3    H164066   1.577   4.666  15.050  2.3691 -0.1130 -1.7170
14217TIP3    H264067   1.481   4.550  15.030 -0.7629  1.6382  1.7965
14218TIP3   OH264068   2.449   2.283   6.420  0.6271 -0.3178  0.1592
14218TIP3    H164069   2.402   2.213   6.465 -0.6821  1.1784  1.2555
14218TIP3    H264070   2.526   2.300   6.475  0.1773  0.0493  0.6879
14219TIP3   OH264071   4.647   4.805  16.535 -0.4580 -0.1123 -0.2705
14219TIP3    H164072   4.632   4.841  16.623 -0.6767  0.9661 -0.7285
14219TIP3    H264073   4.575   4.839  16.483 -0.4219 -0.8872 -0.8340
14220TIP3   OH264074   1.207   6.242   3.615  0.2285 -0.3497  0.3261
14220TIP3    H164075   1.208   6.255   3.710 -0.2267 -0.8297  0.4016
14220TIP3    H264076   1.272   6.173   3.599 -0.5458 -1.1231  0.4322
14221TIP3   OH264077   2.779   1.050  17.007 -0.1240  0.1274 -0.1609
14221TIP3    H164078   2.721   0.988  17.050  0.6628  0.2733  1.1654
14221TIP3    H264079   2.731   1.079  16.930 -0.6568 -1.8220 -0.5999
14222TIP3   OH264080   3.144   4.498  12.802 -0.0262  0.4181 -0.0548
14222TIP3    H164081   3.102   4.446  12.733  2.0973  0.1838 -1.2590
14222TIP3    H264082   3.124   4.588  12.779  1.4281  0.3998 -1.6053
14223TIP3   OH264083   1.336   1.196   5.909  0.6555 -0.2636  0.6756
14223TIP3    H164084   1.278   1.260   5.950  1.9629  0.1914  1.9468
14223TIP3    H264085   1.408   1.186   5.972  0.1260 -3.6030  0.9251
14224TIP3   OH264086   6.431   4.667  16.698  0.0778 -0.3946 -0.4266
14224TIP3    H164087   6.349   4.717  16.696  0.5012  0.4867  1.8306
14224TIP3    H264088   6.470   4.683  16.612 -1.0974  0.9603 -0.7439
14225TIP3   OH264089   2.918   6.093   2.249 -0.3711  0.6594 -0.0320
14225TIP3    H164090   2.947   6.076   2.159  0.2161 -0.9066  0.4346
14225TIP3    H264091   2.887   6.009   2.281 -0.9900  1.2977  1.1048
14226TIP3   OH264092   2.298   4.397  13.910  0.0400 -0.9420 -0.0430
14226TIP3    H164093   2.256   4.397  13.824  0.3213  0.7531 -0.2164
14226TIP3    H264094   2.243   4.339  13.963 -1.4231 -0.2811 -0.7772
14227TIP3   OH264095   4.792   4.603   2.185 -0.0307 -0.2241 -0.2391
14227TIP3    H164096   4.736   4.646   2.121 -0.3309 -1.6622 -0.9766
14227TIP3    H264097   4.848   4.673   2.219 -0.2526  0.6689 -1.6492
14228TIP3   OH264098   6.173   5.641   0.100 -0.0153  0.1136 -0.6598
14228TIP3    H164099   6.107   5.708   0.114 -0.2439 -0.1211 -0.6032
14228TIP3    H264100   6.148   5.600   0.017  0.7890  0.8661 -1.2956
14229TIP3   OH264101   0.402   4.782   1.009  0.4013 -0.0770  0.1155
14229TIP3    H164102   0.407   4.698   1.054  2.0550  0.5837  1.2334
14229TIP3    H264103   0.400   4.759   0.916 -0.5287 -1.3714  0.4249
14230TIP3   OH264104   0.420   1.624  11.279  0.2266 -0.8071 -0.5561
14230TIP3    H164105   0.496   1.567  11.292  1.4418  0.8156 -0.2300
14230TIP3    H264106   0.386   1.639  11.367  1.0810  0.4580 -0.4118
14231TIP3   OH264107   1.102   6.009   5.226 -0.3184  0.1687  0.3074
14231TIP3    H164108   1.047   6.057   5.288  0.0732 -0.6489  1.3164
14231TIP3    H264109   1.164   5.961   5.281 -0.1349 -0.7928 -0.7016
14232TIP3   OH264110   0.695   4.937   0.038  0.4872 -0.1844  0.5104
14232TIP3    H164111   0.600   4.945   0.045  0.6244  0.8799  1.4722
14232TIP3    H264112   0.709   4.853  -0.005 -0.8361 -1.5199  2.5356
14233TIP3   OH264113   4.845   2.889   6.590  0.3528 -0.0196 -0.2037
14233TIP3    H164114   4.855   2.899   6.495  0.6810 -3.2558 -0.6423
14233TIP3    H264115   4.815   2.799   6.601  0.9203  0.0559  2.8270
14234TIP3   OH264116   5.461   3.542   2.825 -0.0403 -0.0309  0.0585
14234TIP3    H164117   5.484   3.477   2.892 -1.9124 -0.8360  0.0137
14234TIP3    H264118   5.365   3.540   2.824 -0.1414 -1.6148 -4.1167
14235TIP3   OH264119   3.562   4.592   2.877 -0.3566 -0.2331 -0.1508
14235TIP3    H164120   3.645   4.568   2.919 -0.1890  0.6887  0.0583
14235TIP3    H264121   3.562   4.543   2.795 -0.1372 -1.1257  0.3691
14236TIP3   OH264122   1.075   2.922  15.137 -0.0405  0.3931 -0.6435
14236TIP3    H164123   1.069   3.010  15.173 -1.6736 -0.2898  0.8587
14236TIP3    H264124   1.161   2.891  15.164  0.3363  1.3197 -0.7454
14237TIP3   OH264125   2.114   4.205   6.389 -0.4262 -0.4255  0.3537
14237TIP3    H164126   2.200   4.173   6.415 -0.6341 -0.8227  0.5668
14237TIP3    H264127   2.053   4.138   6.420 -0.8377 -0.0082  0.4603
14238TIP3   OH264128   6.254   1.047  15.624  0.0633  0.0549 -0.1499
14238TIP3    H164129   6.275   1.064  15.533  0.1803  0.8447  0.0139
14238TIP3    H264130   6.166   1.083  15.635  1.2081  2.8869  0.7949
14239TIP3   OH264131   4.468   5.453   3.382  0.3543  0.2697 -0.1991
14239TIP3    H164132   4.474   5.510   3.459 -0.0760  1.2308 -0.8606
14239TIP3    H264133   4.466   5.364   3.418 -0.7296  0.7317  0.9425
14240TIP3   OH264134   5.353   2.540  12.623  0.0226  0.5948 -0.6429
14240TIP3    H164135   5.346   2.585  12.707  0.0389 -0.4914 -0.0449
14240TIP3    H264136   5.408   2.597  12.569  0.1997  1.1889  0.1548
14241TIP3   OH264137   3.401   4.611   1.584  0.0729 -0.1695  0.5170
14241TIP3    H164138   3.330   4.557   1.550 -1.6217  2.3969 -0.3269
14241TIP3    H264139   3.357   4.682   1.631  2.0044  1.8599 -0.5366
14242TIP3   OH264140   4.265   1.235  14.587  0.4789 -0.0984 -1.1890
14242TIP3    H164141   4.221   1.295  14.526 -1.3861  0.4995  0.6300
14242TIP3    H264142   4.209   1.158  14.589 -1.9192  1.4822  2.7400
14243TIP3   OH264143   5.252   3.491  12.114 -0.1234  0.0710  0.1221
14243TIP3    H164144   5.188   3.525  12.050 -0.4177  0.5658  0.6612
14243TIP3    H264145   5.210   3.413  12.150 -0.6817  0.6817  0.8501
14244TIP3   OH264146   0.590   6.429   2.492  0.7559  0.3963  0.0994
14244TIP3    H164147   0.571   6.489   2.563  1.0268 -0.9792  1.3938
14244TIP3    H264148   0.681   6.404   2.505  1.4751  1.6832 -1.9891
14245TIP3   OH264149   5.908   3.386   5.001  0.0150 -0.0160  0.6538
14245TIP3    H164150   5.859   3.362   4.922  0.6903  1.8881 -0.4019
14245TIP3    H264151   5.849   3.444   5.048  0.2408  0.1466  0.7335
14246TIP3   OH264152   6.782   2.068   5.515  0.3763  0.3231 -0.2063
14246TIP3    H164153   6.781   2.113   5.599 -2.2999  1.2925 -0.6809
14246TIP3    H264154   6.742   2.130   5.454  0.6332 -1.0368 -1.8280
14247TIP3   OH264155   4.749   6.640   2.600 -0.2016 -0.4160 -0.3362
14247TIP3    H164156   4.755   6.566   2.540 -1.0611  1.4862 -2.9352
14247TIP3    H264157   4.837   6.648   2.637  0.0926 -2.2325 -0.5391
14248TIP3   OH264158   2.846   6.765   0.547 -0.0140 -0.3757  0.1925
14248TIP3    H164159   2.899   6.687   0.562 -0.5878 -0.6940  0.6030
14248TIP3    H264160   2.880   6.801   0.465 -1.0250 -2.1600 -1.0835
14249TIP3   OH264161   4.035   0.116   3.060  0.1773  0.2428 -0.3625
14249TIP3    H164162   3.976   0.181   3.099  1.4976  0.3639  1.5572
14249TIP3    H264163   3.976   0.049   3.025 -1.2414 -0.7308  3.3491
14250TIP3   OH264164   3.950   2.957  16.293 -0.0232 -0.3031  0.4881
14250TIP3    H164165   4.024   3.005  16.256  0.3478 -0.0560  1.4952
14250TIP3    H264166   3.985   2.871  16.314 -0.6121 -0.9426 -1.0429
14251TIP3   OH264167   2.261   1.652   0.783  0.4926 -0.0954  0.2041
14251TIP3    H164168   2.350   1.673   0.755  0.7742  0.0823  1.1991
14251TIP3    H264169   2.212   1.643   0.701  1.5088 -0.6161 -0.3682
14252TIP3   OH264170   2.420   2.576   5.983  0.1707  0.5619  0.2668
14252TIP3    H164171   2.482   2.517   6.025  1.3458  1.0034 -0.7924
14252TIP3    H264172   2.473   2.650   5.954 -1.0712  1.5587  0.4614
14253TIP3   OH264173   0.511   2.989   9.957  0.4850 -0.6718 -0.7934
14253TIP3    H164174   0.539   3.030   9.875  0.5260  1.4005  0.1917
14253TIP3    H264175   0.418   2.969   9.943  0.3970 -0.0030 -1.2239
14254TIP3   OH264176   4.478   1.240  11.498 -1.2151  0.4237  0.4416
14254TIP3    H164177   4.533   1.207  11.426 -2.0495 -1.1221  0.4569
14254TIP3    H264178   4.491   1.335  11.497  0.1731  0.2560 -0.5936
14255TIP3   OH264179   0.248   3.123   4.008  0.5694  0.3155  0.3980
14255TIP3    H164180   0.322   3.183   4.016  0.8379 -0.0151  0.4251
14255TIP3    H264181   0.214   3.137   3.920  2.7532 -1.9086 -0.9133
14256TIP3   OH264182   2.945   2.717  11.550 -0.0256  0.1672  0.2913
14256TIP3    H164183   2.964   2.756  11.464 -0.8173  2.1824  0.9560
14256TIP3    H264184   2.873   2.657  11.534  1.2718 -1.1789 -0.7966
14257TIP3   OH264185   1.782   2.869  15.436  0.4566  0.4375  0.2357
14257TIP3    H164186   1.839   2.908  15.501  0.6486  1.6711 -0.6459
14257TIP3    H264187   1.818   2.897  15.352 -0.2655 -0.4401 -0.3880
14258TIP3   OH264188   2.604   3.579   1.941  0.5837 -0.5228 -0.1504
14258TIP3    H164189   2.655   3.596   1.862 -2.6682 -2.4234 -2.9801
14258TIP3    H264190   2.649   3.506   1.983  2.2518  0.3639 -0.3157
14259TIP3   OH264191   1.797   3.796  16.580 -0.2327  0.6900 -0.0470
14259TIP3    H164192   1.798   3.750  16.496 -1.4605 -0.2502  0.4282
14259TIP3    H264193   1.726   3.860  16.571 -0.3964  0.5567  0.2802
14260TIP3   OH264194   3.671   3.549   3.698  0.1835  0.4209  0.4392
14260TIP3    H164195   3.668   3.454   3.707  1.4524  0.4635  1.4750
14260TIP3    H264196   3.654   3.565   3.605 -2.7688 -0.6386  0.6859
14261TIP3   OH264197   3.655   1.638  13.208  0.3135 -0.2373 -0.2671
14261TIP3    H164198   3.745   1.663  13.188  0.6764 -0.3405  1.0982
14261TIP3    H264199   3.646   1.657  13.302 -1.2438  0.2168 -0.4949
14262TIP3   OH264200   1.400   4.168   4.779 -0.3798  0.1618 -0.1218
14262TIP3    H164201   1.365   4.255   4.799  0.7628  0.7213 -0.4582
14262TIP3    H264202   1.402   4.123   4.863  4.1629  2.3955  1.2903
14263TIP3   OH264203   2.939   0.381   2.181 -0.0342  0.2357 -0.2919
14263TIP3    H164204   2.857   0.371   2.133  0.0685 -1.4603 -0.1839
14263TIP3    H264205   2.911   0.405   2.270 -0.2942  1.7204 -0.7515
14264TIP3   OH264206   4.844   5.519  11.928  0.0137 -0.1816 -0.0183
14264TIP3    H164207   4.767   5.575  11.915  0.6909  0.6771 -0.4207
14264TIP3    H264208   4.893   5.527  11.846 -0.2362 -1.9691 -0.3762
14265TIP3   OH264209   2.499   4.602   5.567 -0.8098 -0.0664 -0.4561
14265TIP3    H164210   2.541   4.517   5.579 -0.2617  0.4437  1.6463
14265TIP3    H264211   2.570   4.666   5.571 -1.4945  0.6579  0.8345
14266TIP3   OH264212   1.874   5.332   0.612  0.0260  0.2810  0.0882
14266TIP3    H164213   1.872   5.369   0.524 -0.0190  0.2704  0.0847
14266TIP3    H264214   1.870   5.238   0.599 -2.3533  0.3120  0.1610
14267TIP3   OH264215   0.367   2.282   3.610  0.2550 -0.0765  0.2579
14267TIP3    H164216   0.340   2.192   3.627  1.9008 -0.3266  1.9388
14267TIP3    H264217   0.420   2.306   3.687  0.6014  2.0133 -0.5639
14268TIP3   OH264218   0.325   1.821   1.837 -0.1180 -0.0824 -0.6282
14268TIP3    H164219   0.257   1.843   1.774 -1.0940 -0.9735  0.0839
14268TIP3    H264220   0.295   1.861   1.919  1.2575  1.2788 -0.7377
14269TIP3   OH264221   4.533   4.241   3.912  0.4244  0.4814 -0.0978
14269TIP3    H164222   4.591   4.306   3.953  0.6191 -0.1271  0.6178
14269TIP3    H264223   4.447   4.282   3.913  0.8247  1.4117 -1.1979
14270TIP3   OH264224   2.438   5.671   1.646  0.3112 -0.0835  0.1955
14270TIP3    H164225   2.508   5.680   1.582 -0.4515  0.9787 -0.5157
14270TIP3    H264226   2.363   5.639   1.596 -0.6513  1.9132  0.2467
14271TIP3   OH264227   5.197   3.742   0.612 -0.1250 -0.1687 -0.6017
14271TIP3    H164228   5.257   3.697   0.553 -0.6122  1.4268 -2.3847
14271TIP3    H264229   5.251   3.762   0.689  1.1926 -0.1586 -1.4977
14272TIP3   OH264230   2.005   5.707  11.385  0.1315 -0.4366  0.6274
14272TIP3    H164231   1.967   5.705  11.472  0.6277  1.1413  0.9163
14272TIP3    H264232   2.071   5.776  11.389 -1.0486  0.9453 -1.4588
14273TIP3   OH264233   3.183   2.330   2.721  0.4844  0.0482  0.0392
14273TIP3    H164234   3.190   2.344   2.626  0.9888  3.0484  0.4307
14273TIP3    H264235   3.256   2.272   2.741  1.6072  0.9524 -1.1829
14274TIP3   OH264236   0.038   0.932  13.794  0.4776  0.1451 -0.4149
14274TIP3    H164237   0.025   0.837  13.790 -1.1205  0.3465 -0.6506
14274TIP3    H264238   0.128   0.942  13.823 -0.0821 -1.4535  2.2031
14275TIP3   OH264239   6.198   6.523  16.745 -0.0300 -0.1909 -0.7142
14275TIP3    H164240   6.134   6.503  16.812  0.5660 -1.7463 -0.5598
14275TIP3    H264241   6.258   6.586  16.786 -0.7744  0.3735 -0.4741
14276TIP3   OH264242   3.858   3.746  16.465  0.1472 -0.5936 -0.1317
14276TIP3    H164243   3.828   3.836  16.447 -1.7076 -1.1192  0.1185
14276TIP3    H264244   3.853   3.703  16.380  0.9143 -0.5052 -0.2261
14277TIP3   OH264245   4.507   2.967  14.073 -0.2109 -0.3741  0.1530
14277TIP3    H164246   4.567   2.901  14.038  0.4938  0.2318  0.2106
14277TIP3    H264247   4.435   2.970  14.010  0.5586 -0.0173 -0.7149
14278TIP3   OH264248   0.161   4.941  11.929 -0.3473 -0.1055  0.2299
14278TIP3    H164249   0.194   4.909  11.845 -0.4417  0.2843  0.0455
14278TIP3    H264250   0.081   4.890  11.944 -0.8026  0.4225 -0.3321
14279TIP3   OH264251   4.371   4.503  12.627 -0.6851  1.0574  0.0315
14279TIP3    H164252   4.281   4.473  12.621 -0.0695 -0.9735  0.2991
14279TIP3    H264253   4.423   4.423  12.631  1.1096  2.1812  0.3062
14280TIP3   OH264254   0.020   4.086   0.458 -0.6567  0.3718  0.5707
14280TIP3    H164255  -0.067   4.115   0.433 -1.5277  0.6388  3.5369
14280TIP3    H264256   0.074   4.165   0.457 -0.6176  0.3439 -0.4924
14281TIP3   OH264257   4.574   6.403  11.374 -0.1192  0.0599  0.5527
14281TIP3    H164258   4.526   6.350  11.437  1.3516 -2.5614 -0.3705
14281TIP3    H264259   4.610   6.475  11.426  1.6800 -2.3716  3.0148
14282TIP3   OH264260   2.946   6.443  14.816  0.2819  0.6430  0.3880
14282TIP3    H164261   3.023   6.483  14.776 -0.0202 -1.3344 -2.4099
14282TIP3    H264262   2.876   6.507  14.800  0.7581  1.1662  0.3479
14283TIP3   OH264263   0.455   4.177   0.072 -0.1052 -0.2370 -0.0645
14283TIP3    H164264   0.475   4.162   0.164 -2.8742 -0.4759  0.5697
14283TIP3    H264265   0.416   4.096   0.042  0.4986 -0.0623 -1.4009
14284TIP3   OH264266   2.425   0.151   2.445 -0.7180 -0.2278 -0.2093
14284TIP3    H164267   2.406   0.174   2.354  1.2388  0.3051 -0.5210
14284TIP3    H264268   2.503   0.201   2.467 -2.0002  0.8435  2.2838
14285TIP3   OH264269   4.764   2.040   1.534  0.3075 -0.2346  0.3620
14285TIP3    H164270   4.710   2.115   1.559  1.3739  0.4044  0.8006
14285TIP3    H264271   4.844   2.049   1.585  1.9803  0.3115 -2.1646
14286TIP3   OH264272   4.660   4.810  14.095  0.2473  0.5429 -0.3306
14286TIP3    H164273   4.589   4.746  14.106 -0.1512  1.0682  0.2509
14286TIP3    H264274   4.702   4.813  14.180  0.7068  0.5462 -0.5565
14287TIP3   OH264275   4.599   1.107  15.299 -0.0833 -0.5079 -0.5910
14287TIP3    H164276   4.623   1.130  15.210  0.6769 -2.6363 -1.0017
14287TIP3    H264277   4.507   1.133  15.307  0.7162  2.8795 -0.7733
14288TIP3   OH264278   5.858   4.992  15.357 -0.1200 -0.0534  0.0600
14288TIP3    H164279   5.926   4.958  15.414  0.9126 -0.6294 -1.4545
14288TIP3    H264280   5.822   4.915  15.313 -2.0355  0.1955  1.0740
14289TIP3   OH264281   5.716   0.380  14.906  0.8531  0.6812  0.0987
14289TIP3    H164282   5.667   0.432  14.971  0.2273 -1.1375  1.1452
14289TIP3    H264283   5.654   0.367  14.834 -0.0315 -0.9948  1.1010
14290TIP3   OH264284   4.127   5.828  16.423 -0.2550 -0.0988  0.3859
14290TIP3    H164285   4.084   5.902  16.379  1.3663  0.3979 -0.4479
14290TIP3    H264286   4.174   5.783  16.353 -3.1868 -3.5114  0.3563
14291TIP3   OH264287   4.150   1.152   4.881 -0.2279  0.5933  0.4355
14291TIP3    H164288   4.241   1.132   4.861 -0.7426 -0.8728 -0.6248
14291TIP3    H264289   4.128   1.095   4.955 -1.5909 -2.9141 -2.3612
14292TIP3   OH264290   4.630   6.199   0.064 -0.3434 -0.3999 -0.9127
14292TIP3    H164291   4.582   6.120   0.090 -0.7481  0.1042 -0.0846
14292TIP3    H264292   4.701   6.206   0.128 -0.9164  0.4606 -0.3536
14293TIP3   OH264293   6.219   1.144   3.827  0.0774  0.2562  0.4440
14293TIP3    H164294   6.307   1.183   3.830  0.5148 -0.6964  2.9918
14293TIP3    H264295   6.230   1.065   3.774  0.7102  0.3220  0.4636
14294TIP3   OH264296   6.512   3.824   2.683  0.7800 -0.6809  0.1474
14294TIP3    H164297   6.445   3.759   2.665  0.4804 -0.2729 -0.2432
14294TIP3    H264298   6.525   3.821   2.778 -1.6260  0.9707  0.6198
14295TIP3   OH264299   2.685   0.386  15.594 -0.5478 -0.0681 -0.1127
14295TIP3    H164300   2.618   0.329  15.634 -0.3202  0.1894  0.6556
14295TIP3    H264301   2.763   0.371  15.647 -0.0011 -0.3474 -0.9976
14296TIP3   OH264302   3.109   4.745   0.475  0.1133 -0.3512  0.2176
14296TIP3    H164303   3.081   4.825   0.518  2.3270  1.7237 -1.9098
14296TIP3    H264304   3.032   4.717   0.424 -1.1109 -0.4316  2.0135
14297TIP3   OH264305   6.189   6.534  11.439  0.0963 -0.1907  0.0653
14297TIP3    H164306   6.179   6.466  11.506 -1.5878  0.2955  0.3458
14297TIP3    H264307   6.240   6.492  11.370 -1.0169 -1.7983  0.1673
14298TIP3   OH264308   4.240   3.823   2.599  0.3021 -0.3870  0.5196
14298TIP3    H164309   4.192   3.879   2.539 -0.0581 -0.2618  0.9187
14298TIP3    H264310   4.178   3.754   2.623  1.0532 -1.5355 -0.7373
14299TIP3   OH264311   3.864   2.152  14.361 -0.0126 -0.2616 -0.6725
14299TIP3    H164312   3.821   2.221  14.412  0.4892  0.0950 -0.7166
14299TIP3    H264313   3.872   2.079  14.423  1.4599  0.4972  0.0995
14300TIP3   OH264314   5.131   0.582   3.609  0.1325 -0.1954  0.6230
14300TIP3    H164315   5.129   0.487   3.602 -0.1432 -0.1798  0.4879
14300TIP3    H264316   5.100   0.614   3.524  0.2310  0.0146  0.6642
14301TIP3   OH264317   4.612   6.196  15.673  0.1225 -0.3799  0.1119
14301TIP3    H164318   4.676   6.127  15.688  0.2450 -0.0653  1.1530
14301TIP3    H264319   4.583   6.221  15.761 -0.5835  0.2715 -0.2911
14302TIP3   OH264320   1.205   1.707  11.883 -0.0227  0.2185  0.3707
14302TIP3    H164321   1.238   1.786  11.926  0.6023  0.7800 -1.0937
14302TIP3    H264322   1.213   1.639  11.951  1.1040  1.0332  1.1007
14303TIP3   OH264323   1.391   0.834  11.094 -0.3300 -0.7768 -0.1227
14303TIP3    H164324   1.373   0.812  11.185  1.7290 -0.9043  0.3063
14303TIP3    H264325   1.339   0.912  11.077 -1.3594 -1.2198  0.9040
14304TIP3   OH264326   5.708   0.035  15.356  1.1270  0.2476 -0.6416
14304TIP3    H164327   5.787   0.004  15.399  1.3050 -1.1150 -1.8498
14304TIP3    H264328   5.697   0.125  15.387  3.0755  0.4354 -0.3625
14305TIP3   OH264329   6.340   2.486  15.012  0.4377  0.1900  0.4376
14305TIP3    H164330   6.253   2.502  15.048  0.0599 -1.1051  0.1529
14305TIP3    H264331   6.347   2.547  14.938 -1.1509 -1.2251 -0.9491
14306TIP3   OH264332   1.990   0.870   4.400 -0.3007 -0.8864 -0.6260
14306TIP3    H164333   2.050   0.941   4.376  0.5242 -1.5573 -0.5895
14306TIP3    H264334   1.914   0.882   4.342 -0.8211  0.8681  0.3612
14307TIP3   OH264335   6.566   2.491   0.064  0.2712  0.2512  0.2128
14307TIP3    H164336   6.578   2.474   0.157 -0.6621  0.7732  0.4497
14307TIP3    H264337   6.544   2.584   0.059 -0.8542 -0.0259 -0.4002
14308TIP3   OH264338   2.770   6.255   1.535 -0.4113  0.8173  0.1483
14308TIP3    H164339   2.711   6.299   1.473 -1.6893 -2.3878 -1.1271
14308TIP3    H264340   2.853   6.300   1.524 -1.5336  2.7502 -1.1658
14309TIP3   OH264341   3.456   5.798  12.062  0.4872  0.5611  0.0328
14309TIP3    H164342   3.483   5.720  12.014  1.1757 -0.2757  1.7138
14309TIP3    H264343   3.365   5.781  12.086 -0.0082  1.1767 -1.2809
14310TIP3   OH264344   0.399   0.978   5.596 -0.5690  0.2544  0.3052
14310TIP3    H164345   0.319   0.944   5.636 -0.9905 -0.1306 -0.8314
14310TIP3    H264346   0.412   0.924   5.518  0.7763  0.3487  0.4383
14311TIP3   OH264347   4.917   6.714   1.833 -0.5608  0.1782 -0.3642
14311TIP3    H164348   4.882   6.799   1.804  2.4474  1.5623 -0.3765
14311TIP3    H264349   5.008   6.716   1.806  0.2558 -2.0506  1.8401
14312TIP3   OH264350   0.266   5.837  15.096 -0.0832 -0.2431  0.3787
14312TIP3    H164351   0.348   5.858  15.051  0.9432 -2.6068  0.9999
14312TIP3    H264352   0.197   5.866  15.035  1.2090  0.3949 -0.8380
14313TIP3   OH264353   6.476   5.289  12.250  0.0946 -0.2382 -0.0794
14313TIP3    H164354   6.527   5.209  12.266  0.1091 -0.5062 -1.3694
14313TIP3    H264355   6.473   5.297  12.155  2.0562  2.5427 -0.0364
14314TIP3   OH264356   3.850   4.886  11.359  0.7283  0.0860 -0.6532
14314TIP3    H164357   3.834   4.855  11.270  1.6056  0.7010 -1.0332
14314TIP3    H264358   3.817   4.976  11.360 -4.5586 -1.4717  1.2430
14315TIP3   OH264359   5.345   3.741  15.377  0.8076  0.4770 -0.3707
14315TIP3    H164360   5.379   3.699  15.456  0.3329  1.7344  0.5504
14315TIP3    H264361   5.276   3.799  15.410 -0.2647  0.0928 -1.8606
14316TIP3   OH264362   2.405   5.095  13.023  0.6413  0.4198 -0.6735
14316TIP3    H164363   2.445   5.161  13.080  1.6713 -1.6797  1.2112
14316TIP3    H264364   2.479   5.047  12.986 -0.0796 -0.8155 -0.5647
14317TIP3   OH264365   0.214   0.247  15.160 -0.4722  0.0233  0.3454
14317TIP3    H164366   0.276   0.206  15.100 -0.1433  0.4092  0.4170
14317TIP3    H264367   0.156   0.299  15.104  0.1051  0.7335  0.3876
14318TIP3   OH264368   4.533   1.583   4.999  0.1799 -0.2767 -0.2233
14318TIP3    H164369   4.509   1.515   5.062  0.8640 -0.6676 -0.3738
14318TIP3    H264370   4.471   1.572   4.927  0.5805 -1.0654 -0.4659
14319TIP3   OH264371   5.169   2.859  16.210 -0.4528  0.5872  0.1183
14319TIP3    H164372   5.118   2.804  16.269  0.2032 -0.1273  0.0379
14319TIP3    H264373   5.196   2.801  16.139 -1.9471  1.6250 -1.3721
14320TIP3   OH264374   4.421   6.488  12.152 -0.0347  0.1557  0.6726
14320TIP3    H164375   4.492   6.541  12.116 -1.5806  1.9449  0.0394
14320TIP3    H264376   4.443   6.477  12.244  0.8450  1.0974  0.5966
14321TIP3   OH264377   5.948   6.243   3.788  0.2827  0.5243  0.9600
14321TIP3    H164378   6.031   6.282   3.815 -0.3356  1.9029  0.9706
14321TIP3    H264379   5.963   6.217   3.697  0.9407  0.1123  1.1817
14322TIP3   OH264380   2.919   2.051   6.066  0.1339 -0.2933  0.3307
14322TIP3    H164381   2.943   1.960   6.086  0.2363 -0.3405 -0.0038
14322TIP3    H264382   2.987   2.081   6.007 -0.4816 -0.3413 -0.4209
14323TIP3   OH264383   1.655   2.719   1.152  0.0441 -0.3531 -0.0029
14323TIP3    H164384   1.722   2.719   1.084  0.9933  1.3661  0.8847
14323TIP3    H264385   1.695   2.669   1.223  0.1776  0.2065  0.3187
14324TIP3   OH264386   6.511   0.575   2.819  0.2712 -0.0494 -0.7369
14324TIP3    H164387   6.458   0.654   2.827 -0.0283 -0.0114 -2.7376
14324TIP3    H264388   6.450   0.507   2.791  1.0308 -0.2833 -1.8994
14325TIP3   OH264389   3.602   5.655  13.036  0.8650  0.7833 -0.2072
14325TIP3    H164390   3.516   5.697  13.031 -0.2093 -0.9322  2.0860
14325TIP3    H264391   3.607   5.601  12.958 -0.2718  0.7234 -0.2536
14326TIP3   OH264392   4.563   1.942  15.977  0.3135  0.3541 -0.5226
14326TIP3    H164393   4.531   1.969  16.063  1.2211 -0.2219  0.0171
14326TIP3    H264394   4.568   1.846  15.982 -0.5218  0.2360 -1.5546
14327TIP3   OH264395   3.777   5.138   4.721  0.3180 -0.1240 -0.5263
14327TIP3    H164396   3.816   5.221   4.691 -0.0368  0.6352  1.0167
14327TIP3    H264397   3.704   5.124   4.661 -0.0074  1.0252 -0.4299
14328TIP3   OH264398   0.008   3.117   2.635 -0.3032 -0.1983  0.3885
14328TIP3    H164399   0.101   3.135   2.626 -0.4756 -0.0881 -1.5596
14328TIP3    H264400   0.004   3.028   2.670  0.5065  0.4617  2.2749
14329TIP3   OH264401   3.469   3.813   0.956  0.4768  0.0935  1.1339
14329TIP3    H164402   3.553   3.859   0.966  0.5645 -0.2822  2.2257
14329TIP3    H264403   3.473   3.775   0.868  0.3141  2.3192  0.0958
14330TIP3   OH264404   2.752   3.093   2.531 -0.5717 -0.3055  0.4456
14330TIP3    H164405   2.680   3.054   2.481 -0.3356  0.5310 -0.5831
14330TIP3    H264406   2.713   3.117   2.615 -1.4438 -0.0424 -0.0312
14331TIP3   OH264407   4.612   3.131  14.268  0.1151  0.6377  0.2450
14331TIP3    H164408   4.587   3.079  14.192 -0.8721  1.1775  0.1838
14331TIP3    H264409   4.658   3.207  14.232  2.3252 -0.5558  0.3785
14332TIP3   OH264410   2.287   5.876  16.238  0.5157  0.2676  0.7442
14332TIP3    H164411   2.310   5.951  16.182  0.1653 -1.0859 -1.3218
14332TIP3    H264412   2.361   5.816  16.228 -0.5171 -0.9181 -0.0392
14333TIP3   OH264413   5.345   5.439   1.122  0.0823  0.2547  0.0914
14333TIP3    H164414   5.286   5.485   1.062 -0.3596 -1.5549 -0.9497
14333TIP3    H264415   5.330   5.480   1.207 -1.3889  1.0188 -0.4973
14334TIP3   OH264416   1.564   2.322   1.294 -0.2024  0.2529 -0.2325
14334TIP3    H164417   1.621   2.398   1.303 -0.6333  0.7545 -1.5102
14334TIP3    H264418   1.596   2.276   1.217  1.4163 -2.1252  1.7081
14335TIP3   OH264419   6.289   6.384   0.120 -0.2475  0.0935 -0.1848
14335TIP3    H164420   6.240   6.453   0.164 -1.8652 -0.0028 -1.7265
14335TIP3    H264421   6.223   6.336   0.070  1.2721 -0.7379 -1.4712
14336TIP3   OH264422   0.731   5.815   5.270 -0.0888 -0.5448  0.5217
14336TIP3    H164423   0.685   5.747   5.319  1.1409 -2.9587 -1.4358
14336TIP3    H264424   0.809   5.834   5.322 -1.5600  1.2229  2.2463
14337TIP3   OH264425   1.682   1.717  16.207  0.1119  0.7581 -0.1982
14337TIP3    H164426   1.701   1.665  16.129  0.5025  1.7037 -0.7564
14337TIP3    H264427   1.604   1.677  16.244 -0.3873  0.6053 -1.3740
14338TIP3   OH264428   4.569   0.015  15.142 -0.0182 -0.8238 -0.5953
14338TIP3    H164429   4.568   0.089  15.082 -2.5314  0.8539  1.3500
14338TIP3    H264430   4.561   0.053  15.229  1.5443 -3.2723  0.7725
14339TIP3   OH264431   4.840   5.483   1.540 -0.3538  0.6925  0.5514
14339TIP3    H164432   4.802   5.413   1.487  1.2298  0.6568 -0.6084
14339TIP3    H264433   4.815   5.461   1.630 -2.4026  0.2999 -0.0571
14340TIP3   OH264434   6.036   4.451  14.000  0.2627  0.5787  0.9295
14340TIP3    H164435   5.987   4.500  14.066 -1.5372 -0.4501  0.3950
14340TIP3    H264436   6.111   4.416  14.048  0.4615  2.0846  1.7889
14341TIP3   OH264437   2.453   3.669  11.430 -0.2133  0.4519 -0.1660
14341TIP3    H164438   2.515   3.691  11.361 -0.6558  0.3152 -0.6105
14341TIP3    H264439   2.506   3.670  11.510  0.0583  1.8370 -0.3246
14342TIP3   OH264440   1.186   5.189   3.086 -0.2301  0.3434  0.3549
14342TIP3    H164441   1.151   5.236   3.011 -2.3536 -0.2789  0.8912
14342TIP3    H264442   1.204   5.258   3.151  0.0012  0.7132 -0.0981
14343TIP3   OH264443   4.851   4.775  13.446 -0.6896 -0.2917  0.0427
14343TIP3    H164444   4.836   4.869  13.438 -0.4664 -0.2157  0.4957
14343TIP3    H264445   4.783   4.735  13.391 -2.6519  0.0457  2.0635
14344TIP3   OH264446   1.640   3.931  11.408 -0.2119 -0.4302  0.2357
14344TIP3    H164447   1.604   3.858  11.460  1.6978  0.2797  2.7327
14344TIP3    H264448   1.730   3.906  11.391 -0.3397  0.1215 -1.3945
14345TIP3   OH264449   6.410   1.511   0.830  0.1120 -0.1322 -0.3042
14345TIP3    H164450   6.315   1.495   0.826 -0.5589  2.9187  0.6189
14345TIP3    H264451   6.435   1.486   0.919 -0.1596  0.5452 -0.0363
14346TIP3   OH264452   3.513   5.008   4.844 -0.1519  0.2281 -0.0402
14346TIP3    H164453   3.591   4.966   4.881 -1.2407 -1.2748  0.6454
14346TIP3    H264454   3.536   5.022   4.752 -0.1289 -3.1728 -0.7049
14347TIP3   OH264455   0.652   0.177   0.654 -0.1562 -0.3841  0.3432
14347TIP3    H164456   0.559   0.196   0.669  0.0063 -0.1993  1.1342
14347TIP3    H264457   0.674   0.112   0.720  0.2463 -0.5285  0.0669
14348TIP3   OH264458   0.197   4.931   0.338  0.1290 -0.4428 -0.1846
14348TIP3    H164459   0.124   4.969   0.289 -0.4873 -2.3139 -0.8302
14348TIP3    H264460   0.157   4.895   0.417  0.1890 -2.0700 -0.8559
14349TIP3   OH264461   4.811   5.575   5.521  0.6315 -0.1340 -0.1663
14349TIP3    H164462   4.840   5.622   5.600 -1.6758  0.3731  0.4359
14349TIP3    H264463   4.864   5.613   5.450  0.8000  1.3790  0.7285
14350TIP3   OH264464   3.734   5.907   4.860  0.1561  0.6751 -0.0591
14350TIP3    H164465   3.755   5.928   4.769  0.5563 -1.5211 -0.5131
14350TIP3    H264466   3.680   5.981   4.889  1.4540  2.2846 -1.5075
14351TIP3   OH264467   0.044   1.523   5.646  0.2716  0.0059 -0.5244
14351TIP3    H164468   0.080   1.610   5.629 -0.4312  0.2616 -0.7216
14351TIP3    H264469  -0.031   1.515   5.587 -0.2863 -0.3278  0.2094
14352TIP3   OH264470   5.295   5.382  13.858  0.1886 -0.5910 -0.1423
14352TIP3    H164471   5.374   5.383  13.911  1.6181 -1.4850 -2.1411
14352TIP3    H264472   5.274   5.289  13.847 -2.1931 -0.3883  1.7306
14353TIP3   OH264473   3.533   3.006  15.080 -0.5215 -0.0442 -0.3987
14353TIP3    H164474   3.550   3.030  15.172 -0.5120  0.0005 -0.4117
14353TIP3    H264475   3.584   2.927  15.066 -0.1624  0.1986 -0.4927
14354TIP3   OH264476   5.275   3.543  11.208  0.1143  0.0208  0.5326
14354TIP3    H164477   5.193   3.506  11.239  0.5879 -1.0878  0.4967
14354TIP3    H264478   5.271   3.635  11.234 -0.8256 -0.1851  1.1562
14355TIP3   OH264479   1.288   4.916   5.087  0.8159  0.4165  0.0264
14355TIP3    H164480   1.368   4.864   5.082 -0.0310 -0.9010 -0.2221
14355TIP3    H264481   1.257   4.902   5.176  0.1805 -0.1368 -0.2755
14356TIP3   OH264482   3.210   6.585   1.844  0.1255  0.1774  0.3117
14356TIP3    H164483   3.147   6.578   1.772 -1.0707 -2.1191  1.4624
14356TIP3    H264484   3.155   6.594   1.923  1.2819 -0.1477  1.1815
14357TIP3   OH264485   4.025   6.074  15.837 -0.5457 -0.2022  0.6737
14357TIP3    H164486   4.116   6.097  15.821 -0.7087  0.4551  0.6569
14357TIP3    H264487   3.989   6.149  15.884 -1.6240  0.5333 -1.1810
14358TIP3   OH264488   2.211   0.129  14.530  0.1383  0.5072  0.0795
14358TIP3    H164489   2.226   0.223  14.536  0.3410  0.4439  0.7712
14358TIP3    H264490   2.119   0.118  14.555 -0.7107  0.7566 -2.6845
14359TIP3   OH264491   0.643   6.534  15.591  0.1850  0.6775 -0.1760
14359TIP3    H164492   0.584   6.459  15.597  0.2552  0.6129 -0.2802
14359TIP3    H264493   0.589   6.609  15.615  0.0940  0.6021 -0.1441
14360TIP3   OH264494   1.158   1.537  12.114  0.6897  0.1950 -0.0389
14360TIP3    H164495   1.234   1.556  12.170  0.1637  1.3277  0.3033
14360TIP3    H264496   1.142   1.444  12.128  0.6129  0.4255  1.6710
14361TIP3   OH264497   0.468   3.320   3.771  0.0796 -0.3674  0.6759
14361TIP3    H164498   0.506   3.363   3.694  0.6082 -2.9444 -0.5906
14361TIP3    H264499   0.532   3.255   3.798 -0.5244 -0.1964  2.7649
14362TIP3   OH264500   0.646   6.473  16.355  0.1938  0.2333 -0.7918
14362TIP3    H164501   0.727   6.524  16.351  0.3664 -0.0899 -1.4972
14362TIP3    H264502   0.585   6.530  16.402  1.4998 -0.4774  1.9711
14363TIP3   OH264503   4.162   6.051  10.222  0.1572 -0.4899  0.2689
14363TIP3    H164504   4.088   6.093  10.179  1.1960  0.7940 -0.3143
14363TIP3    H264505   4.148   6.066  10.316 -0.2415 -0.1448  0.1547
14364TIP3   OH264506   3.264   2.757   2.053 -0.2220 -0.0489  0.2636
14364TIP3    H164507   3.270   2.661   2.057  0.7389  0.0003  0.2817
14364TIP3    H264508   3.201   2.780   2.121  0.5421 -0.5908  1.1771
14365TIP3   OH264509   2.996   1.815   2.183  0.4969  0.1024 -0.4058
14365TIP3    H164510   2.997   1.739   2.241  2.2710 -1.6757 -2.5641
14365TIP3    H264511   2.917   1.805   2.131  0.4767 -0.0037 -0.3545
14366TIP3   OH264512   5.377   5.755  16.528  0.2436  0.2722  0.3664
14366TIP3    H164513   5.411   5.737  16.441 -0.6932  1.5343 -0.2703
14366TIP3    H264514   5.442   5.812  16.569  0.6513 -0.2712  0.4853
14367TIP3   OH264515   5.051   3.603   4.882 -0.7496 -0.2515  0.5392
14367TIP3    H164516   5.066   3.697   4.873  0.1178 -0.0792  3.1325
14367TIP3    H264517   4.959   3.596   4.908 -0.3613  0.0351  2.0435
14368TIP3   OH264518   3.415   3.746   3.281 -0.3936  0.0406  0.9335
14368TIP3    H164519   3.400   3.749   3.376 -0.2708  1.1930  0.9391
14368TIP3    H264520   3.422   3.838   3.256  0.6952 -0.2801 -0.0175
14369TIP3   OH264521   6.443   6.265  16.602  0.2147  0.6228 -0.3287
14369TIP3    H164522   6.405   6.299  16.521 -1.6777  1.3287  0.7863
14369TIP3    H264523   6.381   6.198  16.631  0.4616  0.9103  0.9081
14370TIP3   OH264524   3.743   1.926  14.780  0.7573 -0.2261 -0.2704
14370TIP3    H164525   3.654   1.956  14.799  1.2244  1.2292 -0.2235
14370TIP3    H264526   3.747   1.837  14.816 -0.1948  0.2735  1.1628
14371TIP3   OH264527   1.930   0.584  13.958  0.4432 -0.0115  0.2300
14371TIP3    H164528   1.942   0.557  14.049  0.3783 -0.0349  0.2314
14371TIP3    H264529   1.850   0.540  13.930  1.0161 -0.8306 -0.1507
14372TIP3   OH264530   5.913   2.572   4.977 -0.2838  0.2644 -0.2215
14372TIP3    H164531   5.973   2.543   4.908 -1.3576 -0.7586 -0.7676
14372TIP3    H264532   5.967   2.573   5.056  0.3874 -1.0430 -0.6200
14373TIP3   OH264533   5.608   6.073   2.114 -0.3390  0.4085  0.5318
14373TIP3    H164534   5.580   6.080   2.023  1.2095 -0.7093 -0.0628
14373TIP3    H264535   5.569   5.991   2.145 -0.8624  0.7858  0.8885
14374TIP3   OH264536   3.314   5.423   4.384 -0.3199 -0.0320 -0.2165
14374TIP3    H164537   3.233   5.378   4.407 -0.1195 -0.4698 -0.3562
14374TIP3    H264538   3.290   5.478   4.309 -0.2250 -1.0343 -0.9967
14375TIP3   OH264539   6.426   1.710  11.402  0.3082  0.1720 -0.4073
14375TIP3    H164540   6.334   1.701  11.427  0.7907  2.3408  2.6874
14375TIP3    H264541   6.436   1.802  11.378  1.2770 -0.5139 -2.9550
14376TIP3   OH264542   3.460   3.006   2.276  0.4520 -0.1539 -0.2835
14376TIP3    H164543   3.476   2.934   2.214 -0.1787  0.5086 -1.2524
14376TIP3    H264544   3.538   3.060   2.270 -0.1594  0.6361 -1.5636
14377TIP3   OH264545   6.109   0.339  16.565  0.0906  0.1469 -0.0316
14377TIP3    H164546   6.175   0.283  16.523  0.4237  1.8356 -1.9384
14377TIP3    H264547   6.159   0.393  16.627 -0.0626 -0.8819  1.0098
14378TIP3   OH264548   2.331   5.178  17.083 -0.3375 -0.3456 -0.4599
14378TIP3    H164549   2.347   5.085  17.068 -0.5978 -0.5994  0.7346
14378TIP3    H264550   2.238   5.190  17.063 -0.4267 -0.4597 -0.1293
14379TIP3   OH264551   1.954   3.925  14.100 -0.2061  0.2591  0.5288
14379TIP3    H164552   1.884   3.969  14.052 -0.3599 -0.3833  0.1596
14379TIP3    H264553   1.914   3.844  14.132 -0.0250  0.5432  1.4988
14380TIP3   OH264554   4.786   5.266   1.742  0.3871 -0.9351 -0.1135
14380TIP3    H164555   4.710   5.285   1.798 -0.0445  0.6833 -1.1991
14380TIP3    H264556   4.772   5.176   1.714  0.7228 -1.8932  2.5021
14381TIP3   OH264557   1.405   3.235  11.371  0.1144 -0.4435  0.7718
14381TIP3    H164558   1.434   3.217  11.281 -0.3973  0.0176  0.5107
14381TIP3    H264559   1.311   3.252  11.364 -0.3487 -2.4248  1.6957
14382TIP3   OH264560   6.495   3.180  10.986  0.4131 -0.0198 -0.6177
14382TIP3    H164561   6.569   3.123  10.964  0.0284 -0.6206 -0.3721
14382TIP3    H264562   6.423   3.120  11.004  0.5951  0.4078  1.9423
14383TIP3   OH264563   6.052   3.543  13.215  0.5892  0.6244 -0.1660
14383TIP3    H164564   6.125   3.520  13.271  0.6320 -0.7660 -0.7515
14383TIP3    H264565   6.088   3.542  13.126  0.0822  0.8663 -0.3810
14384TIP3   OH264566   1.660   3.464   5.927 -0.4790  0.0774 -0.2020
14384TIP3    H164567   1.621   3.378   5.941  0.8178 -0.6149 -0.5955
14384TIP3    H264568   1.740   3.463   5.980 -0.5095  1.0885 -0.1238
14385TIP3   OH264569   5.689   4.975  14.080 -0.7956 -0.1760 -0.5848
14385TIP3    H164570   5.610   5.015  14.116  0.0750  1.5110 -0.4693
14385TIP3    H264571   5.671   4.881  14.082 -2.5619  0.1366 -0.0273
14386TIP3   OH264572   1.054   1.767  12.251 -0.1708  0.1859 -0.6657
14386TIP3    H164573   1.147   1.747  12.261  0.2412  2.2816  0.0276
14386TIP3    H264574   1.010   1.682  12.261  1.7358 -1.1479 -2.7402
14387TIP3   OH264575   1.063   2.800  13.594  0.1151  0.7730 -0.1322
14387TIP3    H164576   1.045   2.885  13.636 -3.3246 -0.4041  1.1630
14387TIP3    H264577   1.131   2.761  13.649  0.1598  1.8210  0.5959
14388TIP3   OH264578   5.273   0.163   1.254  0.6982 -0.2034  0.5730
14388TIP3    H164579   5.222   0.237   1.219  1.3129  0.4369  1.0076
14388TIP3    H264580   5.223   0.134   1.330  1.0310  0.5114  1.0796
14389TIP3   OH264581   6.580   1.168  16.740 -0.3329  0.1478 -0.7595
14389TIP3    H164582   6.553   1.173  16.832  1.5006 -0.3496 -0.1489
14389TIP3    H264583   6.550   1.250  16.701 -0.6017  0.6264  0.4243
14390TIP3   OH264584   2.061   1.363  15.944  0.1670 -0.0035  0.0998
14390TIP3    H164585   2.127   1.341  15.878 -0.7128 -1.2808 -0.3926
14390TIP3    H264586   2.089   1.319  16.023  0.7020  0.7217  0.3253
14391TIP3   OH264587   1.759   1.628   5.468 -0.1466  0.1995 -0.3033
14391TIP3    H164588   1.804   1.548   5.494  0.5463  0.2374 -1.3026
14391TIP3    H264589   1.744   1.675   5.550  1.2273 -0.0456  0.1127
14392TIP3   OH264590   4.447   2.962   1.397  0.3966 -0.1804 -0.1197
14392TIP3    H164591   4.476   2.893   1.337  0.1758 -0.0588 -0.3672
14392TIP3    H264592   4.425   2.916   1.478  0.6959 -0.3450 -0.1295
14393TIP3   OH264593   0.848   2.464  14.107  0.1286  0.5871  0.2387
14393TIP3    H164594   0.913   2.534  14.110 -0.7465  1.9306 -4.2230
14393TIP3    H264595   0.896   2.388  14.073  0.4164 -0.1676  2.1998
14394TIP3   OH264596   4.052   6.341   3.148 -0.5525 -0.0389  0.2274
14394TIP3    H164597   4.034   6.281   3.220 -1.2623 -0.5672 -0.3812
14394TIP3    H264598   3.986   6.321   3.082 -1.8881  2.4813  0.6411
14395TIP3   OH264599   3.422   3.967   5.176 -0.5360 -0.1271  0.4849
14395TIP3    H164600   3.351   4.031   5.182  0.2688  0.6566  2.4884
14395TIP3    H264601   3.490   4.011   5.125  0.1173  0.8130  2.0665
14396TIP3   OH264602   4.570   1.011  14.423  0.7183 -0.2105  0.0481
14396TIP3    H164603   4.537   0.987  14.510  1.4273 -1.0727  0.0974
14396TIP3    H264604   4.517   1.086  14.397 -0.2258 -0.5983  0.7750
14397TIP3   OH264605   3.389   4.654   1.306  0.2252  0.1711 -0.0386
14397TIP3    H164606   3.313   4.596   1.309  0.0396  0.3738 -0.5646
14397TIP3    H264607   3.412   4.669   1.397  0.9471 -1.5984  0.1052
14398TIP3   OH264608   0.532   3.903   4.142  0.6426  0.1012  0.3003
14398TIP3    H164609   0.561   3.957   4.216  0.7813  1.6427 -0.8195
14398TIP3    H264610   0.609   3.895   4.087 -0.0427  1.0207 -0.8355
14399TIP3   OH264611   4.930   2.777   1.227  0.1640  0.3125  0.6896
14399TIP3    H164612   5.020   2.806   1.240  0.0372  1.1419 -0.1884
14399TIP3    H264613   4.891   2.778   1.314  0.9059  0.2639  1.0279
14400TIP3   OH264614   2.666   2.683   0.256  0.5083  0.2428 -0.1932
14400TIP3    H164615   2.682   2.713   0.345 -0.4500 -1.6648  0.6796
14400TIP3    H264616   2.753   2.672   0.218  1.1426 -2.1836  1.7101
14401TIP3   OH264617   6.360   4.711  17.083  0.4111 -0.3144  0.6894
14401TIP3    H164618   6.289   4.678  17.138  2.1972 -1.8964  2.2129
14401TIP3    H264619   6.413   4.766  17.141  1.0160 -0.0460 -0.0962
14402TIP3   OH264620   4.390   0.512  14.212 -0.0814  0.5461  0.1101
14402TIP3    H164621   4.325   0.482  14.276 -1.3356 -0.1983 -1.4225
14402TIP3    H264622   4.468   0.459  14.230 -1.0294 -0.9997 -0.1174
14403TIP3   OH264623   3.975   3.869  12.606  0.2921 -0.6329 -0.3542
14403TIP3    H164624   3.940   3.806  12.669  0.5541 -1.5495 -1.0944
14403TIP3    H264625   4.014   3.938  12.660  0.5548 -1.4226  0.4920
14404TIP3   OH264626   2.540   3.683  13.767  0.4853  0.2547 -0.1581
14404TIP3    H164627   2.531   3.730  13.849  1.5213  1.2471 -0.5861
14404TIP3    H264628   2.520   3.748  13.699  0.4262 -0.3312 -0.7178
14405TIP3   OH264629   4.952   0.641  11.332  0.1152 -0.2526 -0.2744
14405TIP3    H164630   5.046   0.627  11.348  0.0618 -0.7013 -0.3423
14405TIP3    H264631   4.941   0.626  11.238  0.1917  1.0669 -0.5157
14406TIP3   OH264632   1.303   3.237  10.257 -0.1000 -0.1138 -0.0322
14406TIP3    H164633   1.274   3.266  10.343  1.3896 -2.2870  1.3284
14406TIP3    H264634   1.224   3.233  10.204 -0.8701  2.5617  0.7566
14407TIP3   OH264635   6.237   1.711   1.322 -0.0186 -0.1822  0.2463
14407TIP3    H164636   6.183   1.656   1.265  0.4475 -0.4625  0.0606
14407TIP3    H264637   6.313   1.733   1.267 -0.0809  0.4323  0.4082
14408TIP3   OH264638   3.115   3.419  14.371  1.2178 -0.3531 -0.0718
14408TIP3    H164639   3.038   3.459  14.331  0.7877  1.5795  2.4378
14408TIP3    H264640   3.149   3.360  14.303 -0.8124  0.8244 -2.2822
14409TIP3   OH264641   3.206   0.168  13.393  0.1830 -0.3366  0.4079
14409TIP3    H164642   3.259   0.107  13.444 -0.3551 -1.5020 -0.3823
14409TIP3    H264643   3.199   0.127  13.307  0.7026  1.3744 -0.4955
14410TIP3   OH264644   0.276   2.327   0.734  0.5975  0.1626 -0.0004
14410TIP3    H164645   0.246   2.410   0.698 -0.9025 -0.6978 -0.8108
14410TIP3    H264646   0.197   2.285   0.768  1.4969 -0.4505  1.4618
14411TIP3   OH264647   3.457   3.884  16.145  0.1088 -0.7567  0.8275
14411TIP3    H164648   3.412   3.968  16.154 -1.1853 -0.9899 -2.2397
14411TIP3    H264649   3.395   3.819  16.178  0.9996 -0.6242  2.9352
14412TIP3   OH264650   3.043   5.192   2.764  0.0665 -0.5132 -0.1299
14412TIP3    H164651   3.017   5.100   2.754  0.2737 -0.3289 -3.4263
14412TIP3    H264652   2.984   5.240   2.707  0.4663  1.3474  0.9380
14413TIP3   OH264653   5.038   1.096  14.663  0.1718 -0.7536 -0.5027
14413TIP3    H164654   5.009   1.131  14.579 -1.1990 -0.3791  0.1047
14413TIP3    H264655   4.967   1.039  14.691  1.2776 -2.0689 -0.2907
14414TIP3   OH264656   1.209   2.916  11.151  0.0630 -0.9818 -0.7852
14414TIP3    H164657   1.245   2.843  11.101  1.0506 -0.6640 -0.5642
14414TIP3    H264658   1.138   2.949  11.096  0.4288 -1.3187 -1.4821
14415TIP3   OH264659   2.152   1.419   0.876 -0.2514  0.3075 -0.0233
14415TIP3    H164660   2.187   1.502   0.846  2.0258 -0.5850 -0.0329
14415TIP3    H264661   2.153   1.363   0.798  0.8294 -0.5018  0.5447
14416TIP3   OH264662   1.242   0.378  15.968  0.2350  0.5527  0.1519
14416TIP3    H164663   1.266   0.286  15.965 -1.6069 -0.1756  3.1269
14416TIP3    H264664   1.157   0.382  15.924  0.3152  0.8136  0.0217
14417TIP3   OH264665   1.371   2.278  12.397 -0.4608  0.0992 -0.7077
14417TIP3    H164666   1.447   2.294  12.341 -0.9415  0.6960 -1.1977
14417TIP3    H264667   1.313   2.223  12.344 -0.2383 -0.6213 -0.2179
14418TIP3   OH264668   1.334   6.508   3.522  0.5027 -0.1730 -0.3905
14418TIP3    H164669   1.262   6.448   3.545  0.6065 -0.4325 -0.7331
14418TIP3    H264670   1.386   6.459   3.458  0.8658  0.0976 -0.3038
14419TIP3   OH264671   6.041   4.083  12.101 -0.0536  0.9452  0.1159
14419TIP3    H164672   6.052   4.166  12.054 -1.8671  1.4945  0.5756
14419TIP3    H264673   5.968   4.099  12.160  0.4247 -0.5912  1.1859
14420TIP3   OH264674   6.485   3.670  15.574  0.0245  0.1910 -0.2886
14420TIP3    H164675   6.452   3.627  15.653 -1.2581 -0.3549 -1.0874
14420TIP3    H264676   6.495   3.762  15.598 -0.5258  0.0615  0.4515
14421TIP3   OH264677   5.415   0.975  11.773 -0.4533 -0.6765  0.2344
14421TIP3    H164678   5.475   1.050  11.771 -0.8027 -0.3919  0.4367
14421TIP3    H264679   5.445   0.919  11.701  0.0848 -0.5608  0.3606
14422TIP3   OH264680   3.162   6.640  15.576  0.8298 -0.1925 -0.6137
14422TIP3    H164681   3.242   6.668  15.532  2.1975 -1.7229  0.7705
14422TIP3    H264682   3.178   6.657  15.669 -1.0776  0.8498 -0.4206
14423TIP3   OH264683   1.754   1.832  16.938 -0.3875 -0.2138 -0.2405
14423TIP3    H164684   1.809   1.845  16.861 -1.9055  0.0267 -1.3416
14423TIP3    H264685   1.775   1.904  16.997  0.0905  0.1595 -0.8701
14424TIP3   OH264686   4.862   5.282   2.063  0.1443  0.9051 -0.1087
14424TIP3    H164687   4.922   5.357   2.066  2.4204 -0.8078  0.2043
14424TIP3    H264688   4.915   5.210   2.028 -1.5142 -0.9201  0.9060
14425TIP3   OH264689   0.719   1.749  12.568 -0.0903 -0.0722  0.2058
14425TIP3    H164690   0.712   1.741  12.473 -0.0507 -2.2497  0.3400
14425TIP3    H264691   0.812   1.766  12.584  0.4878 -2.6249 -0.0533
14426TIP3   OH264692   4.657   4.468   2.859 -0.1826  0.5149 -0.4519
14426TIP3    H164693   4.608   4.545   2.888 -2.2012 -0.8269 -0.0934
14426TIP3    H264694   4.731   4.463   2.919 -1.8525  0.3118  1.7216
14427TIP3   OH264695   4.580   5.299   4.873  0.1456  0.3504 -0.2051
14427TIP3    H164696   4.546   5.263   4.955  0.4255  0.8689  0.1448
14427TIP3    H264697   4.538   5.247   4.805 -0.4562  0.2262  0.2515
14428TIP3   OH264698   5.943   2.850   0.172 -0.3448  0.3453 -0.1154
14428TIP3    H164699   5.960   2.756   0.184 -0.9584  0.3207  0.6971
14428TIP3    H264700   5.866   2.867   0.226  0.4044  1.5515  0.6147
14429TIP3   OH264701   6.576   2.285  13.879 -0.3335 -0.1703  0.2164
14429TIP3    H164702   6.613   2.262  13.793  1.6292 -0.3967  1.0884
14429TIP3    H264703   6.591   2.379  13.887  3.7707 -0.8076  2.1647
14430TIP3   OH264704   1.804   3.457   2.974 -0.6186 -0.0764  0.8004
14430TIP3    H164705   1.767   3.390   2.916 -3.6260  0.3571  2.0277
14430TIP3    H264706   1.815   3.534   2.918 -0.8409 -0.4683  0.2121
14431TIP3   OH264707   5.262   0.739   3.780  0.5582  0.1062 -1.2487
14431TIP3    H164708   5.238   0.681   3.707  0.5662 -1.7900  0.1676
14431TIP3    H264709   5.347   0.706   3.809  0.6940  1.0342 -0.5637
14432TIP3   OH264710   1.841   3.799   3.465 -0.3741  0.2570 -0.0336
14432TIP3    H164711   1.776   3.729   3.466 -0.5753  0.4134 -0.8961
14432TIP3    H264712   1.858   3.815   3.372  1.3405 -0.1734  0.1788
14433TIP3   OH264713   5.027   2.985  12.748  0.1768 -0.7620 -0.3889
14433TIP3    H164714   5.019   2.928  12.671  2.0007 -0.3390 -0.9405
14433TIP3    H264715   5.116   3.018  12.744 -0.6715  1.8401  0.1378
14434TIP3   OH264716   1.894   5.178  15.373 -0.8774  0.5010 -0.1696
14434TIP3    H164717   1.986   5.200  15.388 -1.4462  1.6944  2.0285
14434TIP3    H264718   1.886   5.087  15.400 -0.4055  0.5040 -0.0097
14435TIP3   OH264719   5.322   3.259  10.940  0.2102  0.6710 -0.0102
14435TIP3    H164720   5.251   3.323  10.935 -0.2669  0.1980  0.6399
14435TIP3    H264721   5.285   3.178  10.905 -0.6635 -0.4913  3.2418
14436TIP3   OH264722   6.178   1.730  14.263  0.5666  0.0907 -0.0775
14436TIP3    H164723   6.258   1.713  14.314  0.4662  1.5523  0.6054
14436TIP3    H264724   6.111   1.679  14.308  0.6137  0.8595  0.9046
14437TIP3   OH264725   3.165   2.289   0.546  0.1674  0.6137 -0.0978
14437TIP3    H164726   3.250   2.305   0.504  0.3400  1.4768  0.5444
14437TIP3    H264727   3.101   2.297   0.475  0.5554  0.8311 -0.4255
14438TIP3   OH264728   2.238   3.637   3.382  1.0084  0.2760 -0.5695
14438TIP3    H164729   2.292   3.664   3.307  0.0215  2.1111 -0.6769
14438TIP3    H264730   2.167   3.586   3.343 -0.3921  2.5558 -1.1470
14439TIP3   OH264731   0.053   5.568   6.506 -0.0837 -0.1130 -0.1743
14439TIP3    H164732   0.046   5.659   6.536 -0.5578  0.0834 -0.8535
14439TIP3    H264733   0.147   5.553   6.498  0.1667 -0.5712  2.5528
14440TIP3   OH264734   5.580   4.873   2.907 -0.3034  1.0459  0.8637
14440TIP3    H164735   5.627   4.883   2.990  0.9255 -0.0835  0.3303
14440TIP3    H264736   5.637   4.915   2.843 -0.4258  0.3969  0.3286
14441TIP3   OH264737   5.172   1.733  13.233 -0.1449 -0.0901 -0.1420
14441TIP3    H164738   5.123   1.805  13.273  1.9853  1.1077  0.4696
14441TIP3    H264739   5.149   1.737  13.140 -0.8369  0.7198  0.0514
14442TIP3   OH264740   6.767   3.840  14.605  0.6481 -0.2024 -0.2728
14442TIP3    H164741   6.730   3.856  14.692  1.3032 -2.3962  0.4972
14442TIP3    H264742   6.695   3.802  14.555 -0.0482  2.1029 -1.1029
14443TIP3   OH264743   0.914   0.126   0.288 -0.1150  0.3051 -0.1786
14443TIP3    H164744   0.890   0.038   0.259 -1.5848  0.7921 -0.5041
14443TIP3    H264745   0.985   0.152   0.228 -0.6099 -0.1317 -0.9749
14444TIP3   OH264746   6.684   3.099   2.257  0.1846  0.1284 -0.1713
14444TIP3    H164747   6.759   3.100   2.317 -0.4563 -1.0286  0.6898
14444TIP3    H264748   6.720   3.073   2.173  1.0905  1.7092 -0.3211
14445TIP3   OH264749   3.068   5.984   3.736  0.3012  0.6969  0.2742
14445TIP3    H164750   3.144   5.925   3.741 -0.1802 -0.0279 -0.6624
14445TIP3    H264751   3.059   6.003   3.643  0.0117  1.7060  0.4953
14446TIP3   OH264752   3.912   5.725  16.546 -0.0091 -0.1832 -0.1117
14446TIP3    H164753   3.902   5.760  16.634 -0.7907 -1.6368  0.4225
14446TIP3    H264754   3.997   5.756  16.517 -0.5676  1.9494  0.3600
14447TIP3   OH264755   0.113   2.289  14.742  0.2261  0.5485  0.4473
14447TIP3    H164756   0.143   2.272  14.832  0.9003 -0.3781  0.0634
14447TIP3    H264757   0.166   2.231  14.688 -1.6855 -0.5780 -0.3398
14448TIP3   OH264758   3.200   3.438  17.111  0.3745 -0.2874  0.2735
14448TIP3    H164759   3.173   3.380  17.039  0.8349 -0.2541  0.0692
14448TIP3    H264760   3.289   3.464  17.088 -0.3313  1.7241 -0.4354
14449TIP3   OH264761   2.334   3.595  17.063 -0.2924  0.2107  0.2986
14449TIP3    H164762   2.246   3.624  17.038  0.2524  0.4796 -1.4478
14449TIP3    H264763   2.367   3.664  17.120 -0.7342  0.7468 -0.0902
14450TIP3   OH264764   4.642   2.280  16.922 -0.0175 -0.1673  0.3178
14450TIP3    H164765   4.647   2.185  16.929 -0.4556 -0.2749 -0.6185
14450TIP3    H264766   4.553   2.297  16.890  0.9547  0.3553 -2.3246
14451TIP3   OH264767   4.634   6.439  17.111  0.1476 -0.2796  0.3490
14451TIP3    H164768   4.574   6.430  17.037  0.9974  1.0482 -0.5335
14451TIP3    H264769   4.643   6.350  17.146 -0.6566 -0.8373 -0.8271
14452TIP3   OH264770   4.841   0.269  14.481  0.2737  0.6416 -0.9434
14452TIP3    H164771   4.857   0.183  14.442  1.1788  0.1479  0.4403
14452TIP3    H264772   4.926   0.312  14.478  0.0794  1.0533 -0.6145
14453TIP3   OH264773   2.894   4.256  14.581 -0.5504  0.3265 -0.2914
14453TIP3    H164774   2.804   4.241  14.553 -0.4242  0.3426 -0.7089
14453TIP3    H264775   2.900   4.351  14.589 -0.7873  0.2814  0.4724
14454TIP3   OH264776   2.890   4.785  11.407 -0.3233 -0.2796 -0.7670
14454TIP3    H164777   2.945   4.842  11.462  1.3469 -1.9996 -0.5662
14454TIP3    H264778   2.915   4.808  11.318  0.3775 -0.7065 -0.6866
14455TIP3   OH264779   3.601   5.159  15.507 -0.4881 -0.5077 -0.3277
14455TIP3    H164780   3.693   5.157  15.482 -0.1726 -3.6031  0.6009
14455TIP3    H264781   3.603   5.174  15.602 -0.7462 -2.3373  0.0092
14456TIP3   OH264782   0.189   6.386  12.918  0.1803 -0.8707  0.2005
14456TIP3    H164783   0.114   6.362  12.864 -1.4594  2.0141  0.9681
14456TIP3    H264784   0.154   6.390  13.007  1.2194  0.4810  0.5803
14457TIP3   OH264785   4.744   0.676  11.682 -0.2153 -0.3751  0.4225
14457TIP3    H164786   4.692   0.613  11.632  0.8035 -0.2772 -0.7891
14457TIP3    H264787   4.737   0.758  11.633  0.7946 -0.2757  0.4229
14458TIP3   OH264788   5.596   5.009  17.050 -0.4650 -0.0107 -0.6903
14458TIP3    H164789   5.664   5.067  17.084 -0.6040 -0.6444  0.7364
14458TIP3    H264790   5.521   5.066  17.037  0.3419  0.7362 -2.4633
14459TIP3   OH264791   1.480   2.399  16.026 -0.2609  0.2640 -0.2748
14459TIP3    H164792   1.419   2.328  16.006  0.6113 -0.5543 -0.1050
14459TIP3    H264793   1.469   2.415  16.120 -0.3682  0.2627 -0.2871
14460TIP3   OH264794   0.089   6.206  10.837 -0.2791 -0.4000  0.4447
14460TIP3    H164795  -0.004   6.212  10.858 -0.0633  0.1830  1.3064
14460TIP3    H264796   0.103   6.270  10.768 -0.8113 -1.6376 -0.8640
14461TIP3   OH264797   2.283   3.646   1.502 -0.3635  0.3422 -0.7111
14461TIP3    H164798   2.253   3.629   1.413  0.8943  0.1103 -1.1141
14461TIP3    H264799   2.261   3.567   1.550 -1.1888  0.5285 -0.7644
14462TIP3   OH264800   2.617   5.097  17.126  0.0897  0.0134 -0.4914
14462TIP3    H164801   2.620   5.183  17.168  0.4006  0.2486 -0.9924
14462TIP3    H264802   2.528   5.066  17.143 -0.7640  1.3755 -2.1470
14463TIP3   OH264803   1.168   0.036  14.795  0.3153 -0.0691 -0.4794
14463TIP3    H164804   1.076   0.036  14.770 -0.0297 -3.8619  0.2295
14463TIP3    H264805   1.213   0.074  14.719 -1.5494 -1.3370 -2.3263
14464TIP3   OH264806   5.150   6.680  14.398  0.5270  0.4268  0.3952
14464TIP3    H164807   5.207   6.621  14.448  0.6218 -0.5454 -0.8214
14464TIP3    H264808   5.204   6.758  14.384  1.1463 -0.0144  0.2673
14465TIP3   OH264809   5.669   2.934  11.376  0.7039 -0.2412 -0.1678
14465TIP3    H164810   5.624   2.965  11.298  1.0003  0.3775 -0.0966
14465TIP3    H264811   5.761   2.933  11.351  0.9448  1.1697  0.5549
14466TIP3   OH264812   1.422   1.806  17.167  0.2922 -0.0845  0.4325
14466TIP3    H164813   1.454   1.895  17.179  0.7528 -0.1619 -0.1711
14466TIP3    H264814   1.327   1.815  17.155  0.0497  0.1460  2.2226
14467TIP3   OH264815   0.770   0.758  15.872 -0.2584 -0.0499  0.0938
14467TIP3    H164816   0.852   0.800  15.897 -0.2123  0.4661 -0.8901
14467TIP3    H264817   0.760   0.778  15.779 -1.9150  0.5990  0.3778
14468TIP3   OH264818   1.856   4.207   0.349  0.2870  0.0974  0.4482
14468TIP3    H164819   1.877   4.300   0.350  0.5741  0.0484 -0.4309
14468TIP3    H264820   1.875   4.179   0.260 -0.2734 -0.6961  0.5674
14469TIP3   OH264821   2.681   1.752   2.862  0.5585  0.0239  0.0165
14469TIP3    H164822   2.713   1.742   2.951 -0.9904  0.7914  0.7038
14469TIP3    H264823   2.752   1.794   2.815  2.8638 -3.5351 -0.1172
14470TIP3   OH264824   1.367   1.818   6.030  0.5590 -0.0529 -0.0008
14470TIP3    H164825   1.308   1.874   6.080  0.8017 -0.2214  0.4796
14470TIP3    H264826   1.419   1.772   6.096  0.0756 -1.1636 -0.3607
14471TIP3   OH264827   5.174   2.156   3.818  0.5175  0.9656  0.1300
14471TIP3    H164828   5.085   2.134   3.791  0.8350 -2.3057  1.3278
14471TIP3    H264829   5.225   2.077   3.801  3.0834  2.4952  0.1709
14472TIP3   OH264830   4.534   4.297  16.541 -0.0394  0.4439 -0.1578
14472TIP3    H164831   4.569   4.333  16.623 -0.8966  0.6935  0.1016
14472TIP3    H264832   4.514   4.374  16.488  0.7199  0.2803 -0.7058
14473TIP3   OH264833   0.918   1.853  13.587 -0.3808  0.1010 -0.3878
14473TIP3    H164834   0.855   1.811  13.646 -0.0294 -0.7520 -0.5993
14473TIP3    H264835   0.863   1.900  13.524 -0.7815  0.2272  0.0442
14474TIP3   OH264836   2.003   6.531  10.282 -0.2560  0.6754  0.3831
14474TIP3    H164837   2.093   6.499  10.285 -1.1330 -1.9985  2.3402
14474TIP3    H264838   1.973   6.511  10.194  0.0947 -1.6867  0.7283
14475TIP3   OH264839   4.802   0.714   4.901 -0.0370 -0.1243 -0.0608
14475TIP3    H164840   4.757   0.632   4.923 -0.1011 -0.4560 -1.3494
14475TIP3    H264841   4.777   0.731   4.810 -1.0481  2.0239  0.5602
14476TIP3   OH264842   4.806   2.507   1.635  0.0237 -0.2104 -0.2635
14476TIP3    H164843   4.791   2.446   1.563 -0.8306  0.5223 -0.7156
14476TIP3    H264844   4.880   2.469   1.683 -0.8893 -1.9405 -0.1606
14477TIP3   OH264845   2.323   2.084   3.980 -0.0590 -0.4064 -0.3659
14477TIP3    H164846   2.254   2.143   3.950 -0.4363  1.2787  3.2961
14477TIP3    H264847   2.309   2.004   3.931 -1.8880  1.2822 -2.8492
14478TIP3   OH264848   5.983   4.584   0.937 -1.0097  0.4985  0.1912
14478TIP3    H164849   5.996   4.657   0.998  0.2200  0.1501  0.3722
14478TIP3    H264850   6.061   4.585   0.881 -2.0693  0.7552 -1.3431
14479TIP3   OH264851   1.240   2.201  12.818 -0.4880  0.0283  0.7485
14479TIP3    H164852   1.264   2.275  12.874  0.1109 -0.5550  1.2806
14479TIP3    H264853   1.167   2.234  12.765  0.1461  1.1884  0.5576
14480TIP3   OH264854   2.829   0.128   2.622  0.2693 -0.5193 -0.3562
14480TIP3    H164855   2.869   0.094   2.702  0.4953 -1.0507 -0.6892
14480TIP3    H264856   2.879   0.088   2.551  3.0949  3.3373 -0.8826
14481TIP3   OH264857   2.973   1.626  13.394 -0.1205 -0.5360  0.1567
14481TIP3    H164858   2.977   1.697  13.331 -1.1203  0.3324  1.0365
14481TIP3    H264859   2.903   1.569  13.363 -0.7637  0.0087  0.5704
14482TIP3   OH264860   1.797   5.978   4.606 -0.1432 -0.4861  0.1106
14482TIP3    H164861   1.883   5.939   4.594  0.4509  0.7648  0.1467
14482TIP3    H264862   1.735   5.906   4.591  0.9361 -1.8652  1.8951
14483TIP3   OH264863   3.030   3.769  16.482 -0.0305  0.9691  0.0366
14483TIP3    H164864   3.013   3.806  16.395  1.0982  0.9659 -0.2146
14483TIP3    H264865   2.953   3.791  16.534 -0.9906  0.4433 -1.1307
14484TIP3   OH264866   4.186   2.598   2.518  0.3051 -0.1094  0.4385
14484TIP3    H164867   4.092   2.609   2.526  0.3584  0.9729 -0.2646
14484TIP3    H264868   4.223   2.682   2.544  1.0868 -0.5511  0.7990
14485TIP3   OH264869   2.942   5.375  16.626  0.0877 -0.6227  0.0968
14485TIP3    H164870   3.003   5.334  16.688 -0.4255  1.7815  2.3906
14485TIP3    H264871   2.862   5.387  16.676 -1.1743 -0.6748 -1.8158
14486TIP3   OH264872   1.285   5.898  14.111 -0.0935  0.2485  0.1136
14486TIP3    H164873   1.344   5.960  14.152 -0.5161  1.4637 -1.0476
14486TIP3    H264874   1.209   5.950  14.084  0.3597 -0.3100 -2.6051
14487TIP3   OH264875   5.505   5.365   1.978  0.5824 -0.0928  0.0662
14487TIP3    H164876   5.568   5.436   1.964  0.5622 -0.1802 -0.4945
14487TIP3    H264877   5.424   5.410   2.003 -0.0814  0.2765 -2.4471
14488TIP3   OH264878   4.086   0.017  13.296 -0.1478 -0.4674 -0.4022
14488TIP3    H164879   4.165   0.028  13.245  1.0628  1.0171  1.6468
14488TIP3    H264880   4.042  -0.058  13.256  1.1923 -0.0199 -2.9046
14489TIP3   OH264881   0.743   2.942  14.612 -0.7698  0.0604 -0.2039
14489TIP3    H164882   0.733   3.027  14.656 -0.7300  1.3682 -2.5303
14489TIP3    H264883   0.708   2.878  14.674 -0.3395  1.7036  1.8381
14490TIP3   OH264884   6.484   3.889  11.109  0.2222 -0.4646  0.6704
14490TIP3    H164885   6.426   3.964  11.098  0.5353 -0.4316 -1.0914
14490TIP3    H264886   6.572   3.925  11.097  0.4121 -0.9796  0.4755
14491TIP3   OH264887   6.082   4.952   2.679 -0.1595 -0.1087 -0.1684
14491TIP3    H164888   5.998   4.917   2.708 -0.4523 -1.4886 -2.3839
14491TIP3    H264889   6.060   5.017   2.612  0.5196  0.3608  0.0466
14492TIP3   OH264890   4.734   1.542  14.824 -0.3105 -0.2024  0.5723
14492TIP3    H164891   4.748   1.588  14.741 -0.6737 -0.3970  0.4045
14492TIP3    H264892   4.710   1.611  14.886  1.7579  0.2254  0.9820
14493TIP3   OH264893   4.317   6.570  13.943 -0.3988  0.1937  0.0303
14493TIP3    H164894   4.284   6.556  14.032 -0.0589 -0.7241  0.0242
14493TIP3    H264895   4.412   6.570  13.953 -0.2333 -2.7805 -0.6828
14494TIP3   OH264896   2.359   5.371  16.022  0.4908 -0.3594 -0.2446
14494TIP3    H164897   2.290   5.308  16.041  0.7718 -0.8450 -0.8114
14494TIP3    H264898   2.314   5.456  16.019  0.2101 -0.4457  1.1266
14495TIP3   OH264899   1.964   2.540  11.110 -0.6440 -0.5099  0.1554
14495TIP3    H164900   1.956   2.599  11.185 -0.3779  0.5086 -0.5911
14495TIP3    H264901   2.043   2.488  11.128 -0.4641 -0.1238  0.4910
14496TIP3   OH264902   0.564   2.407  12.834  0.0211 -0.2096  0.5098
14496TIP3    H164903   0.576   2.398  12.929 -2.2700 -1.6599  0.7436
14496TIP3    H264904   0.480   2.453  12.825  0.5957  0.6222 -0.8405
14497TIP3   OH264905   6.017   2.203   6.463  0.0609 -0.0874 -0.4571
14497TIP3    H164906   5.948   2.226   6.525  0.2838 -0.4338 -0.0737
14497TIP3    H264907   6.048   2.287   6.428 -0.5642  0.0677 -0.6480
14498TIP3   OH264908   3.427   2.814  11.382 -0.4728 -0.4566  0.0058
14498TIP3    H164909   3.389   2.802  11.295 -2.3448  0.7398  0.5962
14498TIP3    H264910   3.388   2.745  11.436 -1.6860  0.5897  0.5408
14499TIP3   OH264911   5.029   1.209   4.254 -0.6721  0.2852 -0.9489
14499TIP3    H164912   5.041   1.152   4.178 -1.4957 -1.1223 -0.0710
14499TIP3    H264913   5.098   1.183   4.315 -0.4735  0.8924 -0.9036
14500TIP3   OH264914   6.283   2.779   3.744 -0.4610  0.5825 -0.1480
14500TIP3    H164915   6.204   2.818   3.781 -1.4638  0.3444 -1.9442
14500TIP3    H264916   6.253   2.732   3.666  1.0581 -1.7577  0.5727
14501TIP3   OH264917   0.295   4.894   6.730 -0.4649  0.2192 -0.3815
14501TIP3    H164918   0.276   4.987   6.739 -1.1922 -0.0143  0.8259
14501TIP3    H264919   0.323   4.883   6.639 -1.2845  1.4515 -0.8045
14502TIP3   OH264920   2.463   4.627   6.804  0.1742  0.1080 -0.1852
14502TIP3    H164921   2.505   4.597   6.884  1.9966  0.0009 -1.1241
14502TIP3    H264922   2.378   4.584   6.804  0.0800  0.2264  1.7384
14503TIP3   OH264923   0.328   5.468  15.970  1.1235  0.8215  0.3807
14503TIP3    H164924   0.297   5.408  16.038  1.0259  2.6260  2.0271
14503TIP3    H264925   0.399   5.422  15.926  1.8446 -0.0426  2.3860
14504TIP3   OH264926   4.890   5.214   3.972  0.3751 -0.3547 -0.0321
14504TIP3    H164927   4.838   5.200   3.893  0.4219  1.6556 -0.4559
14504TIP3    H264928   4.980   5.219   3.940  0.6581 -1.8092  0.4600
14505TIP3   OH264929   5.884   6.179   0.348 -0.1733 -0.2240  0.7838
14505TIP3    H164930   5.822   6.230   0.295  0.0450  0.5674  1.2715
14505TIP3    H264931   5.874   6.090   0.316 -0.3347  0.1659 -0.3297
14506TIP3   OH264932   6.667   1.623  10.539 -0.8541  0.4708 -0.0449
14506TIP3    H164933   6.702   1.556  10.481 -1.5122  1.1773 -1.3104
14506TIP3    H264934   6.721   1.700  10.522 -1.0070  0.6652  0.3325
14507TIP3   OH264935   3.603   6.650  11.876  0.0435  0.8495  0.7653
14507TIP3    H164936   3.646   6.723  11.921  1.1305 -0.3861  1.8356
14507TIP3    H264937   3.674   6.606  11.830 -0.6655  0.6698 -0.1794
14508TIP3   OH264938   1.056   2.160   3.792 -0.4554 -0.1107 -0.3266
14508TIP3    H164939   1.088   2.073   3.816 -0.0220 -0.6157 -2.5225
14508TIP3    H264940   1.034   2.153   3.699  0.6042  2.4223 -0.8551
14509TIP3   OH264941   3.270   4.372   2.114 -0.5404 -0.2630  0.5555
14509TIP3    H164942   3.230   4.289   2.140 -0.0054 -0.7736 -0.2306
14509TIP3    H264943   3.203   4.416   2.062 -0.9088 -0.0871  1.1642
14510TIP3   OH264944   1.893   1.923  11.257 -0.2637  0.8013 -0.2678
14510TIP3    H164945   1.938   2.006  11.244 -0.4702  1.0672  0.6355
14510TIP3    H264946   1.916   1.871  11.181  0.6751  1.3253 -0.3533
14511TIP3   OH264947   5.282   5.957   2.381  0.1651 -0.0416 -0.3484
14511TIP3    H164948   5.313   6.029   2.437 -1.1059  0.7734 -0.6470
14511TIP3    H264949   5.359   5.932   2.330  1.1464 -0.2405  1.1282
14512TIP3   OH264950   4.463   0.327  15.769  0.0803  0.5428  0.0363
14512TIP3    H164951   4.441   0.359  15.681 -1.1187  0.9200  0.4536
14512TIP3    H264952   4.434   0.235  15.769 -0.3245  0.6693  0.1744
14513TIP3   OH264953   6.432   0.107  11.386  0.6464 -0.4571 -0.3044
14513TIP3    H164954   6.449   0.043  11.456  0.3651 -0.0785  0.1129
14513TIP3    H264955   6.339   0.127  11.394  0.9587  0.8542  0.3003
14514TIP3   OH264956   0.765   0.843  14.448  0.6541 -0.4081 -0.4260
14514TIP3    H164957   0.755   0.936  14.467 -0.6508 -0.7225  0.6545
14514TIP3    H264958   0.737   0.799  14.529 -1.1122 -1.7674 -1.6805
14515TIP3   OH264959   5.859   2.576  12.241 -0.9607  1.2307 -0.4798
14515TIP3    H164960   5.855   2.668  12.218  1.1180  1.1621 -1.3424
14515TIP3    H264961   5.789   2.535  12.190 -2.2659  2.3631  0.3397
14516TIP3   OH264962   5.896   4.870   1.532 -0.3257  0.1497  0.2470
14516TIP3    H164963   5.906   4.931   1.604 -0.6706 -0.1795  0.5787
14516TIP3    H264964   5.922   4.919   1.454 -0.4085  0.6491  0.5355
14517TIP3   OH264965   1.335   0.386  11.276 -0.0838  0.3207 -0.1032
14517TIP3    H164966   1.274   0.428  11.215  0.1139  1.1917  0.2936
14517TIP3    H264967   1.418   0.430  11.261  0.5236 -0.9868 -0.7661
14518TIP3   OH264968   2.746   4.820  12.581  0.4031  0.1173  0.0163
14518TIP3    H164969   2.765   4.865  12.498  0.1000  0.8705  0.3486
14518TIP3    H264970   2.678   4.757  12.559  1.2547 -0.6246 -0.5860
14519TIP3   OH264971   2.834   3.131  16.933 -0.7862 -0.1545 -0.2372
14519TIP3    H164972   2.852   3.224  16.945 -0.1217 -0.2918 -0.1425
14519TIP3    H264973   2.755   3.115  16.985 -0.4578  0.1895  0.3714
14520TIP3   OH264974   2.728   2.150   4.564  0.3689  0.1111  0.1269
14520TIP3    H164975   2.789   2.162   4.492  0.3970  0.7291  0.2484
14520TIP3    H264976   2.643   2.140   4.522  0.2926  1.1041  0.0266
14521TIP3   OH264977   6.228   3.746  13.733  1.2670 -0.0280  0.1409
14521TIP3    H164978   6.192   3.688  13.800  1.1306  0.0402  0.1259
14521TIP3    H264979   6.318   3.716  13.721  1.5110  0.4065  0.8549
14522TIP3   OH264980   2.685   1.424   2.532  0.0012  0.2276  0.2073
14522TIP3    H164981   2.648   1.354   2.586  0.0993 -0.9055 -1.1416
14522TIP3    H264982   2.636   1.502   2.557 -1.4237 -0.6977  0.4056
14523TIP3   OH264983   5.736   1.622   1.721 -0.0556 -0.0308  0.0152
14523TIP3    H164984   5.811   1.681   1.712 -0.3346 -0.0303 -2.9516
14523TIP3    H264985   5.770   1.549   1.774  1.4176  0.9366  0.4611
14524TIP3   OH264986   5.788   3.438   3.704 -0.1546  0.1739  0.0505
14524TIP3    H164987   5.740   3.467   3.782  0.6951 -0.0215  0.6634
14524TIP3    H264988   5.737   3.472   3.630 -1.0547  0.2398  0.6823
14525TIP3   OH264989   2.048   1.629   3.315 -0.0452 -0.1402 -0.5170
14525TIP3    H164990   2.140   1.657   3.315 -0.2810  0.6660 -0.0032
14525TIP3    H264991   2.037   1.587   3.400 -0.0161 -0.7241 -0.7974
14526TIP3   OH264992   6.465   3.542  12.424 -0.2058  0.3247 -0.6751
14526TIP3    H164993   6.492   3.454  12.400 -1.2510  0.2318 -1.6139
14526TIP3    H264994   6.412   3.531  12.503  0.2129  0.1925 -0.4119
14527TIP3   OH264995   6.476   6.017  15.229  0.1364  0.3533  0.1898
14527TIP3    H164996   6.488   6.084  15.162  0.4863 -1.0772 -1.2379
14527TIP3    H264997   6.564   5.983  15.245 -0.2404 -0.9346 -0.3840
14528TIP3   OH264998   1.593   1.913   4.871  0.5553  0.3758 -0.1976
14528TIP3    H164999   1.587   1.918   4.966  0.7610  2.0852 -0.2461
14528TIP3    H265000   1.506   1.939   4.840  1.0045  1.5896 -0.4881
14529TIP3   OH265001   4.731   2.758  17.014 -0.3823  0.1986  0.1615
14529TIP3    H165002   4.777   2.750  16.931 -0.6681  0.9510 -0.0764
14529TIP3    H265003   4.648   2.712  17.000 -0.0861 -0.4006  0.3120
14530TIP3   OH265004   4.465   3.496  13.342  0.0400  0.0452  0.5581
14530TIP3    H165005   4.537   3.538  13.389  1.7088 -0.7759 -1.1065
14530TIP3    H265006   4.458   3.545  13.260  0.3770 -1.3432 -0.3397
14531TIP3   OH265007   6.553   1.439   4.698  0.5903  0.2964 -1.0826
14531TIP3    H165008   6.614   1.395   4.638 -0.2331 -0.6058 -1.3014
14531TIP3    H265009   6.514   1.509   4.645  0.0463 -0.3414 -1.5489
14532TIP3   OH265010   5.333   0.203   4.243  1.0544 -0.0424  0.1923
14532TIP3    H165011   5.418   0.193   4.285  0.1535  1.1933  2.4600
14532TIP3    H265012   5.337   0.145   4.167  3.9186  0.0302  0.1902
14533TIP3   OH265013   5.575   1.632   0.700 -0.3396  0.6903 -0.4794
14533TIP3    H165014   5.635   1.695   0.740 -0.2392 -0.4346  1.2572
14533TIP3    H265015   5.629   1.587   0.634 -0.0142  1.4161 -0.7221
14534TIP3   OH265016   3.646   4.653  14.576 -0.2744  0.0878  0.2444
14534TIP3    H165017   3.629   4.600  14.498 -1.0929 -0.5495  0.8304
14534TIP3    H265018   3.718   4.607  14.620  1.0973  1.1755 -0.7676
14535TIP3   OH265019   3.858   6.329  13.032 -0.3260  0.3001 -0.3193
14535TIP3    H165020   3.874   6.353  13.124 -0.3145 -0.7703 -0.0177
14535TIP3    H265021   3.909   6.391  12.981  1.4892 -0.4486  0.4824
14536TIP3   OH265022   6.640   5.937   3.352 -0.2550  0.2383  0.6679
14536TIP3    H165023   6.707   5.874   3.326 -1.2526 -1.5220  2.1356
14536TIP3    H265024   6.675   5.978   3.431 -1.0431 -1.0081  1.6966
14537TIP3   OH265025   4.136   0.058   1.047  0.3442  0.7027 -0.1098
14537TIP3    H165026   4.054   0.008   1.050  0.5535  0.4019  0.8405
14537TIP3    H265027   4.117   0.130   0.987 -0.1674 -0.1438 -1.0041
14538TIP3   OH265028   0.324   2.038   4.400  0.0331 -0.6752 -0.0069
14538TIP3    H165029   0.373   1.958   4.415  0.2898 -0.4344  0.4534
14538TIP3    H265030   0.296   2.032   4.309  0.6486 -0.9603 -0.1824
14539TIP3   OH265031   2.133   2.121   5.554 -0.2447 -0.5727 -0.2522
14539TIP3    H165032   2.085   2.076   5.485  0.5184 -0.7216 -0.7006
14539TIP3    H265033   2.205   2.062   5.576 -0.9355 -0.8994  1.2575
14540TIP3   OH265034   1.930   2.495   0.067 -0.2499  0.2001 -0.1864
14540TIP3    H165035   2.012   2.447   0.072  1.1640  2.2468 -1.8653
14540TIP3    H265036   1.903   2.507   0.158 -0.3530 -3.0312  0.3394
14541TIP3   OH265037   3.989   4.261  14.052  0.5990 -0.2060  0.0835
14541TIP3    H165038   3.908   4.277  14.003  0.9786  0.7291 -0.2554
14541TIP3    H265039   4.019   4.348  14.078 -0.3924 -0.6750  3.3207
14542TIP3   OH265040   6.565   2.085   1.093  0.2881  0.3471  0.2544
14542TIP3    H165041   6.563   2.157   1.029  1.2620  1.4755  1.4423
14542TIP3    H265042   6.629   2.023   1.057 -0.3495  0.1887 -0.6430
14543TIP3   OH265043   4.275   5.492   6.127 -0.2297  0.9132 -0.0146
14543TIP3    H165044   4.335   5.454   6.191  1.0198  1.7237 -0.6589
14543TIP3    H265045   4.298   5.585   6.125 -0.0141  0.8487 -1.8504
14544TIP3   OH265046   5.095   1.772  15.936  0.0741  0.0537 -0.0332
14544TIP3    H165047   5.101   1.804  16.026 -3.1017  0.6083  0.0778
14544TIP3    H265048   5.054   1.686  15.944 -0.9446  0.4276 -0.9649
14545TIP3   OH265049   1.374   4.817   5.593 -0.2085 -0.2453 -0.6501
14545TIP3    H165050   1.451   4.833   5.538 -0.1096 -0.4453 -0.5696
14545TIP3    H265051   1.402   4.842   5.681  0.2315 -1.6614 -0.3615
14546TIP3   OH265052   4.679   3.766  16.351  0.0257  0.6088  0.0826
14546TIP3    H165053   4.664   3.693  16.411 -0.2892 -0.5157 -1.3007
14546TIP3    H265054   4.591   3.789  16.320  0.3143 -0.0956 -1.3493
14547TIP3   OH265055   3.882   2.394   1.398 -0.1617  0.6668  0.1304
14547TIP3    H165056   3.884   2.300   1.415 -1.1797  0.7539  0.8704
14547TIP3    H265057   3.952   2.409   1.335  0.7378 -0.4131  0.8395
14548TIP3   OH265058   5.058   4.798  15.684 -0.6724 -0.3053 -0.2285
14548TIP3    H165059   5.016   4.831  15.764  2.9571  2.7695  0.7245
14548TIP3    H265060   5.078   4.707  15.704  1.2346  0.6702  3.1001
14549TIP3   OH265061   5.772   0.931  11.643 -0.4499  0.1824  0.1375
14549TIP3    H165062   5.856   0.952  11.603 -0.6048 -0.0097 -0.3058
14549TIP3    H265063   5.750   0.845  11.608 -0.4043 -0.1663  0.9620
14550TIP3   OH265064   6.688   2.080   5.118 -0.2600  0.2955 -0.1065
14550TIP3    H165065   6.625   2.031   5.066  0.7911 -1.2677  0.0303
14550TIP3    H265066   6.731   2.139   5.055 -1.0703  0.5774 -0.4040
14551TIP3   OH265067   0.749   4.913  15.057  0.2911  0.8683 -0.0335
14551TIP3    H165068   0.704   4.997  15.067  0.9205  1.3005 -0.6855
14551TIP3    H265069   0.681   4.852  15.030 -0.5535  0.7023  2.2714
14552TIP3   OH265070   1.942   1.058   1.656 -0.2187 -0.0520 -0.6148
14552TIP3    H165071   2.026   1.048   1.610  0.2397 -1.0722  0.4043
14552TIP3    H265072   1.945   1.147   1.691  0.3498 -0.0138 -0.7503
14553TIP3   OH265073   3.140   4.148   2.150 -0.0729 -0.0053 -0.1899
14553TIP3    H165074   3.169   4.086   2.217 -0.8854 -1.0523 -0.7967
14553TIP3    H265075   3.159   4.105   2.067  0.7959  1.2271 -0.6702
14554TIP3   OH265076   4.627   3.758   3.459  0.1528  0.2110  0.2542
14554TIP3    H165077   4.683   3.685   3.482 -0.1569 -1.3955 -3.3370
14554TIP3    H265078   4.541   3.735   3.493  0.2798 -0.6358  0.0135
14555TIP3   OH265079   1.756   3.027   0.483  0.0916  0.4440 -0.0013
14555TIP3    H165080   1.794   3.087   0.546 -0.6218  1.6291 -0.6745
14555TIP3    H265081   1.753   3.076   0.401 -1.2911 -0.1925 -0.3706
14556TIP3   OH265082   2.879   6.244   5.572  0.2449 -0.0269  0.0828
14556TIP3    H165083   2.845   6.251   5.482  1.8527 -0.0230 -0.5664
14556TIP3    H265084   2.804   6.213   5.623 -0.2454 -1.8465 -1.5938
14557TIP3   OH265085   0.311   4.433  15.293 -0.0311  0.1196 -0.1984
14557TIP3    H165086   0.312   4.504  15.357 -1.5517 -0.3061  0.3391
14557TIP3    H265087   0.399   4.396  15.296 -0.1331 -0.0426  1.8314
14558TIP3   OH265088   2.656   1.804   6.108 -0.2406 -0.6524  0.2021
14558TIP3    H165089   2.615   1.876   6.155  0.6315 -0.4808  0.7138
14558TIP3    H265090   2.584   1.763   6.060 -0.7672  0.5012 -0.0364
14559TIP3   OH265091   1.199   4.351   5.163  0.1712 -0.1049  0.2124
14559TIP3    H165092   1.111   4.350   5.202 -0.1243  0.7604 -0.4052
14559TIP3    H265093   1.246   4.281   5.208 -0.9809 -0.8977  0.2059
14560TIP3   OH265094   0.083   6.248  13.637 -0.0186 -0.7498 -0.1398
14560TIP3    H165095   0.022   6.314  13.673  1.7510 -0.0345  1.7563
14560TIP3    H265096   0.079   6.176  13.700  2.7905  0.3211  1.4516
14561TIP3   OH265097   5.839   6.043  11.879  1.1544 -0.4093 -0.1275
14561TIP3    H165098   5.872   6.082  11.799  0.4174 -1.7104 -1.0930
14561TIP3    H265099   5.809   5.955  11.854 -1.0723 -0.0880  1.0893
14562TIP3   OH265100   0.550   4.296   2.153  0.0872 -0.4048 -0.7332
14562TIP3    H165101   0.584   4.239   2.222  1.8167  1.6823  0.2695
14562TIP3    H265102   0.576   4.254   2.072 -0.4629 -2.0234 -0.1158
14563TIP3   OH265103   5.971   1.491   3.443  0.1371 -0.2286  0.5660
14563TIP3    H165104   6.018   1.459   3.366 -0.3316  0.8526 -0.1988
14563TIP3    H265105   5.984   1.423   3.509  3.0080  0.1251  0.5069
14564TIP3   OH265106   3.524   3.209  11.430 -0.5924 -0.4893  0.0519
14564TIP3    H165107   3.449   3.173  11.382  0.0567 -0.2201 -1.1873
14564TIP3    H265108   3.596   3.208  11.368  0.2705 -0.0792  1.0113
14565TIP3   OH265109   5.394   6.528  13.671 -0.1301  0.1176  0.4725
14565TIP3    H165110   5.396   6.488  13.758 -1.0402 -2.1788 -0.4706
14565TIP3    H265111   5.425   6.459  13.613  0.0533  1.4679 -1.0873
14566TIP3   OH265112   4.961   2.273   2.611 -0.3870 -0.3090 -0.0061
14566TIP3    H165113   5.056   2.275   2.618 -0.0233 -0.4016 -3.1318
14566TIP3    H265114   4.930   2.244   2.696  2.5120 -2.4580  0.4464
14567TIP3   OH265115   3.622   5.403   0.315  0.2073  0.7870 -0.3076
14567TIP3    H165116   3.705   5.425   0.358 -1.0021  1.5521  1.7492
14567TIP3    H265117   3.636   5.314   0.282  1.7694  0.8206  0.1489
14568TIP3   OH265118   5.855   3.682  12.038 -0.3374 -0.3023  0.0301
14568TIP3    H165119   5.907   3.742  11.985  0.8162 -1.4894 -0.2206
14568TIP3    H265120   5.804   3.739  12.096 -0.5216  0.9694 -1.3159
14569TIP3   OH265121   3.963   4.935  14.057 -0.3536 -0.4690  0.3676
14569TIP3    H165122   4.055   4.910  14.066  0.6660  2.5943 -0.4972
14569TIP3    H265123   3.934   4.888  13.979  0.2045 -2.0704  1.0770
14570TIP3   OH265124   0.254   3.786   5.541 -0.1013 -0.1316 -0.1219
14570TIP3    H165125   0.189   3.851   5.569 -0.6573 -1.1861  1.1655
14570TIP3    H265126   0.260   3.798   5.446 -1.5810  0.5451 -0.1643
14571TIP3   OH265127   5.761   5.071  11.450  0.2141 -0.3531 -0.1839
14571TIP3    H165128   5.781   5.062  11.543 -0.0693 -0.2573 -0.1152
14571TIP3    H265129   5.756   5.165  11.435  0.7308 -0.3529 -0.3981
14572TIP3   OH265130   3.127   4.819   3.774 -0.7144  0.3291  0.4012
14572TIP3    H165131   3.129   4.777   3.688  1.7285 -1.4062  1.1786
14572TIP3    H265132   3.119   4.912   3.756  3.2753  0.3989 -2.0011
14573TIP3   OH265133   3.499   1.472  16.070  0.3879  0.0497 -0.2708
14573TIP3    H165134   3.464   1.388  16.099  1.5441 -0.4716 -0.3540
14573TIP3    H265135   3.423   1.531  16.073 -1.0260 -1.5014 -2.4736
14574TIP3   OH265136   1.265   3.842  12.161 -0.1087  0.1468 -0.2194
14574TIP3    H165137   1.251   3.936  12.170  0.3102  0.2499 -0.6216
14574TIP3    H265138   1.185   3.802  12.197  0.2991  0.6069  1.2662
14575TIP3   OH265139   2.548   0.951  13.108 -0.1400  0.3318  0.2550
14575TIP3    H165140   2.466   0.906  13.088  0.9020 -0.7748 -1.8703
14575TIP3    H265141   2.565   0.930  13.200 -1.5744 -0.5049  0.3642
14576TIP3   OH265142   2.343   2.809   3.584  0.2637 -0.4212  0.3856
14576TIP3    H165143   2.252   2.839   3.583  0.4952  0.3601  1.3970
14576TIP3    H265144   2.349   2.751   3.508 -0.8661  0.1344 -0.1693
14577TIP3   OH265145   4.654   6.049   6.306 -0.0399 -0.3377  0.2778
14577TIP3    H165146   4.696   6.089   6.383 -1.1561 -2.2495  1.9771
14577TIP3    H265147   4.614   6.123   6.260 -1.7365  0.6605  3.0706
14578TIP3   OH265148   0.653   0.924  14.191  0.2115 -0.0413 -0.3302
14578TIP3    H165149   0.668   0.910  14.285 -2.1056 -1.5314 -0.1075
14578TIP3    H265150   0.625   0.838  14.159 -2.0852  1.1524 -1.7156
14579TIP3   OH265151   1.058   1.476   5.754  0.0349 -0.3813  0.2169
14579TIP3    H165152   1.064   1.385   5.783  0.5004 -0.6408 -0.6301
14579TIP3    H265153   1.148   1.508   5.757 -0.1515  0.1138  0.6793
14580TIP3   OH265154   2.836   1.867  16.955 -0.7681 -0.3124 -0.1266
14580TIP3    H165155   2.811   1.883  17.046 -1.0138  1.2502 -0.4424
14580TIP3    H265156   2.754   1.875  16.906 -0.8632 -2.3464 -0.3890
14581TIP3   OH265157   2.303   1.102  14.343  0.2363  1.1227 -0.0003
14581TIP3    H165158   2.222   1.060  14.372 -0.3936  1.4856 -1.1654
14581TIP3    H265159   2.312   1.179  14.400  1.8704 -0.9450  2.7615
14582TIP3   OH265160   1.025   5.645  17.119 -0.2143 -0.0932 -0.0891
14582TIP3    H165161   1.029   5.705  17.194 -0.2687  1.5606 -1.3318
14582TIP3    H265162   1.022   5.558  17.157  2.3932  0.5239  1.7955
14583TIP3   OH265163   1.747   6.748   2.994  0.1119 -0.1825 -0.2237
14583TIP3    H165164   1.754   6.843   2.995  0.1434 -0.1569 -1.3313
14583TIP3    H265165   1.811   6.719   3.058  1.5143  0.4974 -1.2513
14584TIP3   OH265166   6.208   0.986  14.220 -0.6445 -0.0356  0.1882
14584TIP3    H165167   6.237   0.961  14.307  1.1581  1.0325 -0.0494
14584TIP3    H265168   6.207   0.903  14.170 -1.1127 -0.5539  1.0339
14585TIP3   OH265169   5.267   0.955   2.603 -0.6973 -0.5950  0.2414
14585TIP3    H165170   5.303   0.959   2.515 -0.7925  0.7979  0.2337
14585TIP3    H265171   5.343   0.971   2.660 -1.2031  2.4791  0.2211
14586TIP3   OH265172   3.069   4.774   0.857  0.5393  0.2071  0.4785
14586TIP3    H165173   2.986   4.808   0.824 -0.0931  1.1410  2.7731
14586TIP3    H265174   3.134   4.841   0.834  0.6458 -0.4142 -1.1164
14587TIP3   OH265175   1.313   0.114   3.919 -0.4755 -1.1041  0.0498
14587TIP3    H165176   1.218   0.110   3.920 -0.5074 -1.3072 -1.4994
14587TIP3    H265177   1.335   0.137   3.828  0.9093  0.2068  0.6742
14588TIP3   OH265178   3.857   4.878   5.338 -0.6051 -0.2197  0.6847
14588TIP3    H165179   3.815   4.826   5.406 -0.0954 -1.3987  0.1294
14588TIP3    H265180   3.942   4.836   5.324 -0.5535  0.2138 -0.4242
14589TIP3   OH265181   5.755   4.996  11.122  0.1613 -0.2680  0.4701
14589TIP3    H165182   5.740   5.045  11.203 -1.6689  0.5212 -0.2854
14589TIP3    H265183   5.830   5.039  11.081 -0.0089  0.4708  0.9117
14590TIP3   OH265184   5.373   0.157   3.811  0.0945  0.3646 -0.1646
14590TIP3    H165185   5.300   0.097   3.794 -0.9395  1.5063  0.0928
14590TIP3    H265186   5.449   0.114   3.772  0.0072 -2.4800  2.4122
14591TIP3   OH265187   2.492   6.268  15.358  0.2272  0.4530  0.5820
14591TIP3    H165188   2.514   6.185  15.401 -2.9137 -0.7936  0.0898
14591TIP3    H265189   2.493   6.247  15.265 -0.3416  1.0459  0.4383
14592TIP3   OH265190   3.356   1.926  16.445  0.2557  0.4730 -0.1713
14592TIP3    H165191   3.405   1.900  16.523 -0.2192  1.4298  0.4536
14592TIP3    H265192   3.266   1.939  16.475  0.1004  1.0201 -0.8480
14593TIP3   OH265193   2.550   1.681   0.744 -0.2633  0.4376 -0.8584
14593TIP3    H165194   2.588   1.599   0.713 -0.2543  0.1310 -0.0379
14593TIP3    H265195   2.584   1.692   0.832 -1.0176  0.8382 -0.6082
14594TIP3   OH265196   2.180   6.464  12.871 -0.0520  0.4671  0.5918
14594TIP3    H165197   2.165   6.499  12.783 -2.9069 -2.0933 -0.1014
14594TIP3    H265198   2.275   6.456  12.878  0.4760  3.6813 -0.9313
14595TIP3   OH265199   0.611   2.797  12.281  0.2258  0.1384  0.3182
14595TIP3    H165200   0.595   2.816  12.189 -2.8737 -2.5627  0.0951
14595TIP3    H265201   0.664   2.718  12.281 -0.4271 -0.3161  0.7813
14596TIP3   OH265202   5.487   1.814  16.096 -0.6754  0.2499  0.5098
14596TIP3    H165203   5.393   1.808  16.114 -0.3609 -1.4364  1.8649
14596TIP3    H265204   5.509   1.732  16.052  0.0312  1.0277 -0.6506
14597TIP3   OH265205   3.535   4.085  13.849 -0.5273 -0.3417  0.3586
14597TIP3    H165206   3.443   4.103  13.868 -1.0191 -0.2153 -1.8329
14597TIP3    H265207   3.538   4.074  13.754  1.8171  0.1522  0.3104
14598TIP3   OH265208   2.671   4.135  14.200 -0.8181 -0.4288  0.0956
14598TIP3    H165209   2.599   4.105  14.144 -0.8141  0.0458 -0.1678
14598TIP3    H265210   2.688   4.225  14.172 -0.0995 -0.5441  0.1398
14599TIP3   OH265211   5.131   2.308   1.459  0.0063 -0.0177  0.2713
14599TIP3    H165212   5.157   2.334   1.371  0.1998 -0.1299  0.2954
14599TIP3    H265213   5.214   2.297   1.507 -0.1062  0.4613  0.5890
14600TIP3   OH265214   0.132   4.340   0.574 -0.5660 -0.0130 -0.5967
14600TIP3    H165215   0.182   4.421   0.586 -0.5676 -0.1693  0.5939
14600TIP3    H265216   0.199   4.271   0.568 -0.5987 -0.0531 -0.4979
14601TIP3   OH265217   5.120   1.893  15.047  0.3006  0.3744  0.1784
14601TIP3    H165218   5.157   1.932  14.968 -0.4911  1.8785  0.5009
14601TIP3    H265219   5.196   1.857  15.094  0.9774  0.8356 -0.5357
14602TIP3   OH265220   3.539   4.884  12.785  0.1244 -0.2211  0.6450
14602TIP3    H165221   3.630   4.876  12.812  0.3730  1.0573  0.2671
14602TIP3    H265222   3.505   4.955  12.839 -0.8129 -1.0217  1.1457
14603TIP3   OH265223   5.954   4.283  11.389  0.2111  0.4471  0.1307
14603TIP3    H165224   5.967   4.303  11.296 -0.8401 -0.7336 -0.3049
14603TIP3    H265225   5.963   4.188  11.394 -0.7132  0.3949  1.0576
14604TIP3   OH265226   2.063   2.700  15.094  0.0011  0.3081  0.0861
14604TIP3    H165227   2.113   2.747  15.028 -0.2116  1.0466  0.4358
14604TIP3    H265228   2.107   2.616  15.103 -0.8122 -0.4196 -2.0614
14605TIP3   OH265229   0.902   2.443  11.542 -0.3004 -0.2456  0.3543
14605TIP3    H165230   0.852   2.428  11.461 -1.2134 -0.9719  1.0287
14605TIP3    H265231   0.836   2.471  11.606  0.2369 -0.6545  1.1048
14606TIP3   OH265232   1.398   5.924  13.456 -0.3999 -0.6486  0.4876
14606TIP3    H165233   1.386   5.829  13.454 -0.9104 -0.5851  0.3796
14606TIP3    H265234   1.317   5.959  13.420  0.2539 -0.2003 -0.5783
14607TIP3   OH265235   4.258   3.721   0.231 -0.5541 -0.9097 -0.5260
14607TIP3    H165236   4.248   3.663   0.155 -1.1926  0.3163 -1.4173
14607TIP3    H265237   4.263   3.809   0.193 -0.4157 -0.3061  0.8418
14608TIP3   OH265238   1.824   1.084  11.474  0.3128  0.5069 -0.3401
14608TIP3    H165239   1.859   1.065  11.561  1.0135 -1.9036 -1.0962
14608TIP3    H265240   1.901   1.108  11.422 -0.1874  2.6907 -0.1938
14609TIP3   OH265241   2.523   1.145  12.555 -0.7501 -0.2273  0.3602
14609TIP3    H165242   2.481   1.228  12.575 -1.5859 -0.6972  0.5697
14609TIP3    H265243   2.580   1.128  12.630 -1.2523 -0.2752  0.7385
14610TIP3   OH265244   1.658   4.350  14.320  0.1135 -0.1240 -0.0695
14610TIP3    H165245   1.571   4.313  14.335  0.0270 -0.3535 -1.0633
14610TIP3    H265246   1.717   4.297  14.373  0.0923 -2.1904 -1.9387
14611TIP3   OH265247   3.763   3.782  15.951  0.2627 -0.2840 -0.0424
14611TIP3    H165248   3.846   3.742  15.976  0.3718  1.0991  1.9961
14611TIP3    H265249   3.781   3.827  15.869  1.3190 -0.6571 -0.0221
14612TIP3   OH265250   4.137   2.545   5.517 -0.1397  0.2987  1.2407
14612TIP3    H165251   4.095   2.460   5.503  0.1691  0.2999  0.2354
14612TIP3    H265252   4.067   2.601   5.549 -0.8620  0.2192 -0.1229
14613TIP3   OH265253   6.443   3.501  13.072 -0.4941  0.2750 -0.3066
14613TIP3    H165254   6.509   3.537  13.012 -0.7642  0.1923 -0.6582
14613TIP3    H265255   6.360   3.518  13.029 -0.8549  2.0377  0.9903
14614TIP3   OH265256   3.960   1.114  10.644  0.1532 -0.1154  0.0480
14614TIP3    H165257   3.962   1.197  10.596 -0.4460 -0.5709 -0.8023
14614TIP3    H265258   3.886   1.066  10.606 -0.7486 -0.2462  1.9067
14615TIP3   OH265259   5.034   1.937   1.163  0.3541 -0.5935 -0.2638
14615TIP3    H165260   5.062   1.923   1.072 -0.7841  0.1140 -0.7557
14615TIP3    H265261   5.025   2.032   1.170 -1.0126 -0.7299  0.1170
14616TIP3   OH265262   4.608   4.836   1.504 -0.0541  0.6954  0.3768
14616TIP3    H165263   4.617   4.831   1.408  0.5590  1.2337  0.3977
14616TIP3    H265264   4.647   4.754   1.535 -0.6756  0.3055  0.1475
14617TIP3   OH265265   3.530   1.520  14.868 -0.0851 -0.2977  0.4822
14617TIP3    H165266   3.476   1.458  14.819 -0.7973 -0.1001  1.0026
14617TIP3    H265267   3.576   1.569  14.801  0.9521 -1.7771  0.0623
14618TIP3   OH265268   4.360   6.538  10.462 -0.5085 -0.1666 -0.1015
14618TIP3    H165269   4.274   6.523  10.500 -0.7655  0.5099 -0.3998
14618TIP3    H265270   4.400   6.606  10.517 -0.1578 -0.4800  0.0396
14619TIP3   OH265271   5.205   5.054   3.889  0.2339 -0.4743  0.1994
14619TIP3    H165272   5.221   5.108   3.967  2.8014 -2.2779  1.0375
14619TIP3    H265273   5.291   5.046   3.847 -0.9057 -0.3172 -2.3877
14620TIP3   OH265274   0.776   4.327  16.856 -0.0481  0.3613 -0.4298
14620TIP3    H165275   0.760   4.237  16.828 -2.2834  1.1415 -1.9254
14620TIP3    H265276   0.730   4.334  16.939  0.2258  0.1178 -0.2534
14621TIP3   OH265277   0.844   4.560   6.579 -0.2580 -0.0670  0.1428
14621TIP3    H165278   0.922   4.522   6.539 -0.6900  0.0367 -0.8209
14621TIP3    H265279   0.774   4.542   6.517 -0.3775  2.8701 -0.7207
14622TIP3   OH265280   1.472   3.932  13.800  0.2435 -0.5167  0.4005
14622TIP3    H165281   1.467   4.027  13.806  1.4001 -0.5192  2.1867
14622TIP3    H265282   1.391   3.901  13.842 -0.2743 -0.3430 -0.4460
14623TIP3   OH265283   1.932   3.586   1.585  0.2087  0.3607  0.5367
14623TIP3    H165284   1.902   3.580   1.494  0.4846  1.8922  0.3251
14623TIP3    H265285   2.016   3.540   1.585  1.2584  2.1646 -0.5139
14624TIP3   OH265286   5.959   3.336  13.465 -0.6397  0.4186 -0.3287
14624TIP3    H165287   6.010   3.385  13.530 -0.8668  2.4687 -1.6110
14624TIP3    H265288   6.020   3.317  13.394  0.0844 -3.3505  1.0465
14625TIP3   OH265289   5.801   0.326   4.694  0.4526  0.8991  0.2415
14625TIP3    H165290   5.841   0.299   4.777  0.5384  0.5971  0.1044
14625TIP3    H265291   5.838   0.267   4.629  1.0022  1.6667 -0.1520
14626TIP3   OH265292   0.455   6.674  14.911  0.1767  0.0724  0.6572
14626TIP3    H165293   0.447   6.632  14.826  1.9380  1.7319 -0.4009
14626TIP3    H265294   0.388   6.743  14.911  0.0704 -0.0292  0.7010
14627TIP3   OH265295   3.846   3.003   2.856  0.3985 -0.9260 -0.5576
14627TIP3    H165296   3.783   3.002   2.784 -1.7143 -0.2505  1.1770
14627TIP3    H265297   3.792   2.995   2.935  2.4195  0.4134  1.0603
14628TIP3   OH265298   1.459   1.903   3.563 -0.0950  0.3903 -0.0873
14628TIP3    H165299   1.466   1.970   3.631  0.8698 -0.3840  0.6068
14628TIP3    H265300   1.431   1.825   3.610 -0.0644  0.0099 -0.6972
14629TIP3   OH265301   3.694   4.594  12.196 -0.4587 -0.4690 -0.1479
14629TIP3    H165302   3.717   4.646  12.119 -0.2084 -0.7967 -0.2948
14629TIP3    H265303   3.737   4.640  12.269  1.4304 -1.5575 -0.5304
14630TIP3   OH265304   3.129   5.127   4.900 -0.0201 -0.2748 -0.4544
14630TIP3    H165305   3.182   5.204   4.922  0.0621 -0.0074 -1.5357
14630TIP3    H265306   3.069   5.158   4.832 -1.6029 -0.5602  0.7276
14631TIP3   OH265307   4.751   5.976   4.158 -0.2121 -0.2093  0.0551
14631TIP3    H165308   4.780   6.066   4.147  0.1584 -0.0509  1.9469
14631TIP3    H265309   4.761   5.959   4.252 -0.6494 -2.0884 -0.1956
14632TIP3   OH265310   1.691   1.349   4.519 -0.8579 -0.1633 -0.4009
14632TIP3    H165311   1.663   1.360   4.610 -0.5452  2.3625 -0.5438
14632TIP3    H265312   1.773   1.299   4.525 -0.1948  1.0080  0.8309
14633TIP3   OH265313   5.561   6.147   1.827  0.1443 -0.0333 -0.2792
14633TIP3    H165314   5.503   6.198   1.771  0.7825 -1.0963 -2.0069
14633TIP3    H265315   5.646   6.189   1.818  0.3141 -0.3915 -0.3939
14634TIP3   OH265316   3.847   1.865   1.246  0.2683  0.1181 -0.1529
14634TIP3    H165317   3.932   1.822   1.236 -0.5926 -1.4009 -1.5670
14634TIP3    H265318   3.800   1.810   1.309 -0.6701 -0.8375 -1.6097
14635TIP3   OH265319   1.586   1.371  16.325 -0.5410 -0.1422  0.5513
14635TIP3    H165320   1.661   1.423  16.296 -0.0136 -0.7277  0.8575
14635TIP3    H265321   1.611   1.281  16.309 -1.5290 -0.3210 -0.1525
14636TIP3   OH265322   5.664   0.128  16.773 -0.4308  0.1231 -0.3359
14636TIP3    H165323   5.686   0.154  16.683 -0.3407 -0.8654 -0.6120
14636TIP3    H265324   5.656   0.033  16.769  1.0248 -0.1008  1.0036
14637TIP3   OH265325   0.692   0.094   1.865  0.3799  0.2736 -0.7554
14637TIP3    H165326   0.643   0.102   1.783 -2.0885  1.1128  0.6910
14637TIP3    H265327   0.649   0.155   1.924  3.7696  1.6748  0.4597
14638TIP3   OH265328   4.174   5.482  13.827 -0.0870 -0.5013  0.2183
14638TIP3    H165329   4.152   5.466  13.918  1.1488  0.4513  0.7110
14638TIP3    H265330   4.097   5.452  13.778 -1.1647 -0.1279  1.6196
14639TIP3   OH265331   3.958   3.873  12.122 -0.2089  0.2286  0.6936
14639TIP3    H165332   3.973   3.933  12.195  3.1057  0.7113 -0.2253
14639TIP3    H265333   3.952   3.929  12.045 -1.0047 -0.4271  0.2629
14640TIP3   OH265334   5.572   0.716   4.986  0.1577  0.1694 -0.1883
14640TIP3    H165335   5.479   0.693   4.991  0.3906 -0.6047  1.3183
14640TIP3    H265336   5.606   0.695   5.073  2.1020 -1.2168 -1.2003
14641TIP3   OH265337   2.751   5.016   5.948  0.3440  0.4291 -0.3064
14641TIP3    H165338   2.735   5.103   5.910  0.2489  0.3308 -0.4934
14641TIP3    H265339   2.799   5.034   6.029  0.8054  0.6234 -0.6182
14642TIP3   OH265340   1.139   4.879  13.251  0.1493 -0.0147  0.4127
14642TIP3    H165341   1.166   4.792  13.280  1.4693 -1.0766 -3.3959
14642TIP3    H265342   1.170   4.938  13.319  0.6608 -2.3739  2.3322
14643TIP3   OH265343   6.061   0.915  11.635 -0.1287 -0.6113  0.7615
14643TIP3    H165344   6.091   0.851  11.570 -2.4241 -1.0221  0.0087
14643TIP3    H265345   6.062   0.867  11.718  1.3865 -0.5426  0.8148
14644TIP3   OH265346   1.355   4.403  14.889  0.2064  0.0711 -0.1120
14644TIP3    H165347   1.327   4.427  14.801  0.2389  0.3065 -0.0603
14644TIP3    H265348   1.276   4.412  14.943  0.3344  0.5556  0.0002
14645TIP3   OH265349   2.019   1.036  11.061  0.2342  0.4676 -0.2759
14645TIP3    H165350   2.053   1.073  10.979  0.5376  0.0619 -0.3337
14645TIP3    H265351   2.091   0.983  11.095  0.0280  0.4533  0.1392
14646TIP3   OH265352   4.365   6.413  16.298 -0.1918 -0.1059 -0.8586
14646TIP3    H165353   4.459   6.428  16.307 -0.1596 -0.5744 -0.3856
14646TIP3    H265354   4.335   6.391  16.387 -0.6803 -0.3297 -1.0733
14647TIP3   OH265355   1.634   0.588  14.852 -0.1735 -0.0988 -0.3907
14647TIP3    H165356   1.582   0.571  14.774 -0.6331  1.1996 -0.3939
14647TIP3    H265357   1.585   0.655  14.899  0.1505 -0.7694  0.9690
14648TIP3   OH265358   3.740   4.130  12.761  0.1997  0.0448 -0.4367
14648TIP3    H165359   3.746   4.215  12.718 -2.3986  1.9786  2.5581
14648TIP3    H265360   3.831   4.104  12.776  1.0970  2.7129 -0.7095
14649TIP3   OH265361   3.448   5.832   5.239  0.0612 -0.0671  0.3378
14649TIP3    H165362   3.396   5.824   5.159  0.9788  0.6883 -0.3731
14649TIP3    H265363   3.532   5.868   5.208 -0.6731  3.4571  2.0126
14650TIP3   OH265364   1.899   1.417  12.210 -0.4655 -0.2403 -0.0779
14650TIP3    H165365   1.838   1.474  12.256  0.5493  0.2695  0.6658
14650TIP3    H265366   1.976   1.413  12.267  0.1110 -1.0474 -0.8894
14651TIP3   OH265367   2.174   4.728   0.068  0.5111 -0.2009 -0.2493
14651TIP3    H165368   2.141   4.740   0.157  0.6184 -0.3404 -0.1886
14651TIP3    H265369   2.152   4.638   0.046 -0.8975  0.2943 -0.9598
14652TIP3   OH265370   4.691   1.744   1.797  0.0330 -0.5492  0.5127
14652TIP3    H165371   4.780   1.770   1.773 -0.5532  1.9257  0.7401
14652TIP3    H265372   4.681   1.776   1.887 -1.6162  0.7901 -0.1036
14653TIP3   OH265373   3.074   6.637  10.146 -0.2464  0.0040  0.5019
14653TIP3    H165374   3.102   6.598  10.063 -3.1142 -0.1145 -0.4935
14653TIP3    H265375   3.148   6.621  10.205  0.5179 -3.0361 -1.0469
14654TIP3   OH265376   5.862   5.023   1.272  0.5198 -0.3111  0.2679
14654TIP3    H165377   5.783   5.058   1.231  0.3413  1.4625  1.9728
14654TIP3    H265378   5.904   5.099   1.313  1.8999 -1.5843  1.3455
14655TIP3   OH265379   6.598   1.345   2.461  0.2627  0.3685 -0.2647
14655TIP3    H165380   6.600   1.290   2.539 -3.7874  1.4965  0.8883
14655TIP3    H265381   6.650   1.422   2.485  0.3141  0.0360  0.7455
14656TIP3   OH265382   5.436   5.958   0.783  0.1148  0.2502 -0.0068
14656TIP3    H165383   5.431   5.901   0.707  2.6295 -0.0859 -0.0284
14656TIP3    H265384   5.525   5.995   0.780  0.2651  0.3478  2.6387
14657TIP3   OH265385   1.861   0.635   4.498  0.0130 -0.5435 -0.3270
14657TIP3    H165386   1.856   0.643   4.594  1.1058 -0.9434 -0.2234
14657TIP3    H265387   1.899   0.718   4.469  0.0036 -0.5588 -0.3829
14658TIP3   OH265388   2.886   5.893  14.749 -0.2307 -0.1249  0.6201
14658TIP3    H165389   2.877   5.807  14.708  0.9962 -0.0275  0.1018
14658TIP3    H265390   2.910   5.874  14.840 -0.9242 -0.3248  0.7699
14659TIP3   OH265391   5.875   2.028  16.009 -0.5327  0.1737  0.2668
14659TIP3    H165392   5.808   1.977  15.963 -0.1894  0.4528 -0.5635
14659TIP3    H265393   5.842   2.118  16.006  0.2434  0.4383 -0.8568
14660TIP3   OH265394   2.022   2.920   4.345 -0.0122  0.1294  0.0377
14660TIP3    H165395   2.030   2.903   4.439 -1.2453 -1.9843 -0.1903
14660TIP3    H265396   1.987   2.839   4.309  0.7701  0.7727 -2.3202
14661TIP3   OH265397   3.577   5.363   5.500 -0.2850  0.7164 -0.1504
14661TIP3    H165398   3.580   5.273   5.534  0.4379  0.8531  0.1751
14661TIP3    H265399   3.544   5.354   5.411  0.4173  0.0498 -0.3563
14662TIP3   OH265400   1.721   1.043  16.943 -0.1239  0.1690 -0.3816
14662TIP3    H165401   1.660   0.970  16.954 -0.4328  0.5712  0.7009
14662TIP3    H265402   1.784   1.032  17.013  1.6388 -0.7553 -2.0177
14663TIP3   OH265403   4.780   3.885   4.982  0.9234  0.1969  0.3392
14663TIP3    H165404   4.739   3.802   4.957  1.4326 -0.0204  0.2085
14663TIP3    H265405   4.850   3.898   4.917  2.4082 -0.4791  1.7189
14664TIP3   OH265406   6.260   2.762   0.800  0.8973  0.4987 -0.0513
14664TIP3    H165407   6.227   2.777   0.711 -0.1770  0.8267  0.3927
14664TIP3    H265408   6.204   2.815   0.856 -0.7358 -2.3566  1.2190
14665TIP3   OH265409   0.807   4.825  15.503  0.4329  0.1616 -0.3641
14665TIP3    H165410   0.862   4.765  15.552 -0.1645  0.1214  0.2754
14665TIP3    H265411   0.758   4.874  15.570  0.2205  0.6979 -0.8941
14666TIP3   OH265412   3.935   5.453  15.064 -0.1383  0.6023  0.1003
14666TIP3    H165413   3.988   5.504  15.002  0.6124 -1.4572 -1.0366
14666TIP3    H265414   3.980   5.369  15.071 -2.1530 -0.5048  0.6655
14667TIP3   OH265415   0.231   6.404   5.483 -0.6025 -0.0478  0.6077
14667TIP3    H165416   0.214   6.475   5.545  2.0135  1.0535  0.2019
14667TIP3    H265417   0.202   6.439   5.399 -1.9253 -0.6138  0.8008
14668TIP3   OH265418   6.655   4.472  16.597  0.4700 -0.4324 -0.0420
14668TIP3    H165419   6.706   4.543  16.558 -0.7927  0.4231 -0.1856
14668TIP3    H265420   6.674   4.478  16.691 -1.7706  1.9718  0.3613
14669TIP3   OH265421   1.506   4.074   5.035  0.3394 -0.7664 -0.2439
14669TIP3    H165422   1.545   3.987   5.045  1.7348 -0.1211  0.0917
14669TIP3    H265423   1.579   4.135   5.042 -0.6316  0.4589 -0.3296
14670TIP3   OH265424   5.644   3.385   2.126  0.2668  0.2114  0.3463
14670TIP3    H165425   5.569   3.391   2.185 -0.4853  1.3910 -0.6761
14670TIP3    H265426   5.719   3.370   2.184 -0.5102  0.8018  1.5526
14671TIP3   OH265427   0.043   1.842  14.163  0.3475  0.1829  0.4302
14671TIP3    H165428  -0.050   1.826  14.147  0.6923 -2.9321  0.8922
14671TIP3    H265429   0.073   1.888  14.085 -1.5402  1.1437  0.2255
14672TIP3   OH265430   4.269   3.703  14.291 -0.1800  0.1965  0.3901
14672TIP3    H165431   4.316   3.627  14.259 -1.2810 -0.3743  0.0623
14672TIP3    H265432   4.194   3.667  14.338 -1.5068  1.0529 -0.9851
14673TIP3   OH265433   1.108   6.356   4.344 -0.1098  0.5337  0.0696
14673TIP3    H165434   1.075   6.268   4.362 -3.1286  1.8410  1.6078
14673TIP3    H265435   1.180   6.367   4.406 -0.9321 -0.2190  1.2044
14674TIP3   OH265436   4.822   3.531   0.295 -0.7521  0.7105 -0.1074
14674TIP3    H165437   4.846   3.621   0.316 -2.9363  1.1842  0.6985
14674TIP3    H265438   4.803   3.532   0.201 -1.2371  1.2319 -0.0102
14675TIP3   OH265439   5.298   5.746  16.809  0.3648 -0.4591  1.0664
14675TIP3    H165440   5.293   5.652  16.788  1.2254 -0.0684 -1.1314
14675TIP3    H265441   5.292   5.790  16.724  2.3557  1.3890  1.7945
14676TIP3   OH265442   1.882   0.968   2.335  0.2411  0.7034  0.3853
14676TIP3    H165443   1.900   0.914   2.412 -1.6842  0.8692  0.9897
14676TIP3    H265444   1.919   1.054   2.357  0.8294  0.4095  0.5740
14677TIP3   OH265445   1.157   3.699  10.859  0.8371  0.4419 -0.4728
14677TIP3    H165446   1.093   3.662  10.921  0.4446  0.6780 -0.7366
14677TIP3    H265447   1.104   3.729  10.785  1.3118  0.1130 -0.9504
14678TIP3   OH265448   5.391   4.941  12.500 -0.2486  0.4230  0.5925
14678TIP3    H165449   5.340   4.954  12.420  0.1434 -0.0777  0.2570
14678TIP3    H265450   5.407   4.847  12.503  0.9894  0.6150  0.4908
14679TIP3   OH265451   2.705   1.690  15.475 -0.3349 -0.2204  0.4083
14679TIP3    H165452   2.681   1.709  15.384  0.4092  0.6569  0.3850
14679TIP3    H265453   2.717   1.595  15.477 -0.9369 -0.3200 -0.2666
14680TIP3   OH265454   3.520   0.811   0.355  0.4840 -0.3422  0.1377
14680TIP3    H165455   3.512   0.906   0.369 -1.1280 -0.5029  0.5044
14680TIP3    H265456   3.502   0.773   0.441 -1.6400 -1.0526 -0.5529
14681TIP3   OH265457   1.494   3.491   0.172  0.1522 -0.2667 -0.3321
14681TIP3    H165458   1.426   3.431   0.141 -0.5423 -0.2099  1.0133
14681TIP3    H265459   1.562   3.433   0.207 -0.4830 -0.2970  0.8944
14682TIP3   OH265460   0.044   6.220  16.539  0.5141 -0.2301 -0.4907
14682TIP3    H165461   0.129   6.194  16.505  0.6935  0.5391 -0.6499
14682TIP3    H265462   0.036   6.313  16.516  0.6550  0.3340  1.5338
14683TIP3   OH265463   4.333   3.709  12.820 -0.0595 -0.2559  0.1114
14683TIP3    H165464   4.299   3.736  12.735  1.5952  0.5462 -0.3284
14683TIP3    H265465   4.422   3.679  12.803  0.2885 -0.1427  1.5345
14684TIP3   OH265466   2.320   0.961  15.029  0.1361 -0.0732 -0.0405
14684TIP3    H165467   2.384   1.024  15.062 -0.3032  0.8079 -0.8563
14684TIP3    H265468   2.238   1.010  15.024 -0.1441 -0.6123 -0.9785
14685TIP3   OH265469   0.225   1.519   1.191  0.0831 -0.1980  0.2744
14685TIP3    H165470   0.189   1.439   1.229  0.6888  0.0272  1.3634
14685TIP3    H265471   0.319   1.514   1.209  0.1163  0.8057  0.4582
14686TIP3   OH265472   1.942   4.336   4.429 -0.1593  0.7304 -0.5551
14686TIP3    H165473   2.034   4.313   4.413 -0.3494 -1.1734  0.7701
14686TIP3    H265474   1.927   4.413   4.374  1.8032  0.2115 -1.9324
14687TIP3   OH265475   2.795   1.701   3.136 -0.1174 -0.2217 -0.2178
14687TIP3    H165476   2.792   1.610   3.108 -0.8837 -0.0980 -0.5579
14687TIP3    H265477   2.827   1.697   3.227  0.9812 -0.7260 -0.6071
14688TIP3   OH265478   5.417   2.276  12.702 -0.4857  0.3573 -0.4566
14688TIP3    H165479   5.335   2.248  12.743 -0.5359  1.8790  0.5453
14688TIP3    H265480   5.406   2.370  12.687  1.0423  0.5686 -0.3821
14689TIP3   OH265481   4.626   1.255   4.211  0.2419  0.0107 -0.1776
14689TIP3    H165482   4.647   1.167   4.178 -0.3809 -0.5978  0.9943
14689TIP3    H265483   4.561   1.240   4.279 -0.6946  1.4934 -0.7140
14690TIP3   OH265484   0.745   2.743   4.268 -0.1820  0.2068  0.4701
14690TIP3    H165485   0.724   2.650   4.276 -0.4779  0.1492 -0.8259
14690TIP3    H265486   0.669   2.781   4.224 -0.5118  1.2660  1.8669
14691TIP3   OH265487   0.336   0.374   1.098 -0.0677  0.4546  0.2584
14691TIP3    H165488   0.316   0.419   1.016  0.5866 -1.5795 -1.1193
14691TIP3    H265489   0.256   0.381   1.150 -0.4028  2.0396 -0.4135
14692TIP3   OH265490   0.985   4.994   4.768 -0.2548  0.3888 -0.1902
14692TIP3    H165491   0.941   4.962   4.847 -0.7509  0.6561 -0.3503
14692TIP3    H265492   1.001   4.916   4.716 -2.4670  0.4430 -1.0901
14693TIP3   OH265493   3.687   6.561   1.238 -0.0615  0.2432 -0.3752
14693TIP3    H165494   3.667   6.636   1.183  0.9795  2.1347  1.6382
14693TIP3    H265495   3.651   6.584   1.324  0.7127 -1.3612  0.4328
14694TIP3   OH265496   0.252   2.708   3.335 -0.0725 -0.0819  0.3995
14694TIP3    H165497   0.200   2.739   3.409 -1.0275  0.1669 -0.3579
14694TIP3    H265498   0.297   2.630   3.369  0.5752  0.7829  1.6322
14695TIP3   OH265499   5.559   1.288  12.956  0.1785  0.0482 -0.3384
14695TIP3    H165500   5.630   1.319  13.012  0.8393  0.5130 -1.3920
14695TIP3    H265501   5.495   1.359  12.957 -0.0756 -0.1829  0.2597
14696TIP3   OH265502   6.278   1.928  13.091  0.3243  0.6529  0.3088
14696TIP3    H165503   6.304   1.955  13.179 -1.6862  1.3835  0.7125
14696TIP3    H265504   6.184   1.945  13.087 -0.2250 -2.1480 -0.9686
14697TIP3   OH265505   3.182   4.368  12.279 -0.2269 -0.3337  0.0605
14697TIP3    H165506   3.259   4.424  12.265  0.3461 -0.8360  1.0594
14697TIP3    H265507   3.108   4.421  12.253  0.3294  0.7846  0.7099
14698TIP3   OH265508   4.600   1.409   3.801 -0.6142 -0.7779 -0.0868
14698TIP3    H165509   4.609   1.319   3.770  0.7397 -0.7565  0.1878
14698TIP3    H265510   4.627   1.463   3.727  0.4681 -0.6604  0.3867
14699TIP3   OH265511   1.920   5.564   6.055 -0.2074 -0.3948 -0.0687
14699TIP3    H165512   1.960   5.649   6.075 -0.6827  0.2872 -1.8496
14699TIP3    H265513   1.993   5.508   6.031 -0.0608  0.0945 -0.7897
14700TIP3   OH265514   0.808   2.934  16.348 -0.0328 -0.3243 -0.5019
14700TIP3    H165515   0.855   2.979  16.418 -0.5072  0.2313 -0.5292
14700TIP3    H265516   0.806   2.843  16.375  3.0176 -0.8250 -1.5654
14701TIP3   OH265517   6.258   0.790   4.247 -0.0310  0.8076 -0.1969
14701TIP3    H165518   6.318   0.835   4.306  0.5887  0.2525 -0.4008
14701TIP3    H265519   6.195   0.747   4.306 -0.6041  1.8776  0.0024
14702TIP3   OH265520   1.863   4.288  13.472 -0.6086  0.4072  0.1353
14702TIP3    H165521   1.779   4.325  13.446 -1.1453 -1.0698 -0.3094
14702TIP3    H265522   1.844   4.238  13.552  0.1148  1.0971  0.7635
14703TIP3   OH265523   5.019   4.770  13.676 -0.6139  0.3869 -0.0305
14703TIP3    H165524   4.951   4.749  13.612 -0.0801  2.3609 -1.3491
14703TIP3    H265525   5.013   4.865  13.687  0.1495  0.2571  1.9251
14704TIP3   OH265526   4.063   1.773   5.739  0.4858  0.4222  0.0692
14704TIP3    H165527   4.012   1.710   5.688  0.6491  0.9818 -0.8181
14704TIP3    H265528   4.078   1.846   5.678  2.3495  0.2717  0.2861
14705TIP3   OH265529   2.464   4.996  15.836  0.4866 -0.2082  0.1708
14705TIP3    H165530   2.381   5.041  15.849  0.9249  0.1240  2.3193
14705TIP3    H265531   2.526   5.044  15.891  1.1480 -2.9291  2.0257
14706TIP3   OH265532   6.037   0.630   2.862 -0.2979  0.4142 -0.0555
14706TIP3    H165533   5.974   0.606   2.794 -0.4519  0.1331  0.1847
14706TIP3    H265534   6.088   0.550   2.876 -0.0656  0.5613 -0.0552
14707TIP3   OH265535   6.578   3.137  15.811 -0.1229  0.8278  0.4124
14707TIP3    H165536   6.619   3.216  15.847  0.3839  0.8222 -0.1418
14707TIP3    H265537   6.515   3.170  15.747  0.8247  0.7634 -0.5771
14708TIP3   OH265538   1.328   4.249   4.506  0.6782  0.3757  0.1922
14708TIP3    H165539   1.404   4.223   4.558  1.0861  0.4654 -0.3490
14708TIP3    H265540   1.352   4.226   4.416  0.3788  1.1148 -0.0815
14709TIP3   OH265541   1.561   1.786   4.141  0.0136 -0.2520 -0.0309
14709TIP3    H165542   1.618   1.745   4.207  0.4102  0.5905  0.1663
14709TIP3    H265543   1.500   1.716   4.116 -0.2579 -0.5529  1.3490
14710TIP3   OH265544   1.222   5.513  16.349 -0.5986 -0.6141 -0.1966
14710TIP3    H165545   1.275   5.564  16.288  1.6683 -1.5756  0.8712
14710TIP3    H265546   1.172   5.579  16.398 -2.7057  0.1803 -3.1190
14711TIP3   OH265547   1.158   2.412  10.854 -0.0198 -0.4411 -0.7479
14711TIP3    H165548   1.159   2.318  10.875 -0.5665 -0.1579  0.7137
14711TIP3    H265549   1.093   2.420  10.784  0.4684 -1.2162 -1.3081
14712TIP3   OH265550   1.176   0.333  16.634 -0.7641 -0.2425 -0.0621
14712TIP3    H165551   1.097   0.358  16.681 -1.3209 -2.4194  0.2641
14712TIP3    H265552   1.154   0.346  16.542 -1.5653 -0.9121  0.0207
14713TIP3   OH265553   4.986   2.405  13.838  0.7987 -0.4276 -0.5896
14713TIP3    H165554   4.897   2.389  13.807  1.3824 -2.2816 -1.4447
14713TIP3    H265555   5.041   2.345  13.787  2.4815  0.2722  0.3046
14714TIP3   OH265556   2.444   2.383   2.577  0.9018  0.1416 -0.0263
14714TIP3    H165557   2.374   2.433   2.534  2.3019  1.2401 -1.1148
14714TIP3    H265558   2.421   2.292   2.561 -1.9107  0.2785  2.2989
14715TIP3   OH265559   2.287   5.980   2.298  0.7471 -0.4552  0.1930
14715TIP3    H165560   2.286   6.067   2.258  0.3411  0.0696  1.3163
14715TIP3    H265561   2.244   5.923   2.233 -0.3294  0.4666  0.0718
14716TIP3   OH265562   2.273   3.199   3.617  0.2718 -0.3358  0.8380
14716TIP3    H165563   2.253   3.292   3.624 -1.6940 -0.6111 -0.3549
14716TIP3    H265564   2.337   3.193   3.546 -0.2154  0.0368  0.3627
14717TIP3   OH265565   0.180   3.874   5.282 -0.2641 -0.3460 -0.2552
14717TIP3    H165566   0.169   3.965   5.254 -1.3018 -0.9395 -1.9750
14717TIP3    H265567   0.176   3.823   5.201  1.2044 -1.8826  0.5608
14718TIP3   OH265568   5.544   4.168  12.902  0.0229 -0.4832  0.7023
14718TIP3    H165569   5.615   4.114  12.868  1.1851  0.3795  1.6741
14718TIP3    H265570   5.474   4.106  12.922  1.0770 -1.5583  1.1564
14719TIP3   OH265571   4.913   4.523  14.400 -0.0922  0.8284 -0.2753
14719TIP3    H165572   4.980   4.484  14.345 -0.7103  1.8598 -1.8446
14719TIP3    H265573   4.957   4.596  14.443  0.3471  0.1305  0.4817
14720TIP3   OH265574   4.718   6.072  12.718 -0.0110 -0.4967  0.1495
14720TIP3    H165575   4.660   6.043  12.648  0.2085 -0.3669 -0.0836
14720TIP3    H265576   4.659   6.113  12.782  0.0633  2.2939 -1.3993
14721TIP3   OH265577   4.013   3.375  11.466 -0.4781 -0.3551 -0.8748
14721TIP3    H165578   4.039   3.406  11.379  1.5927  0.4230 -0.0347
14721TIP3    H265579   4.038   3.282  11.467  0.7985 -0.0302 -0.6752
14722TIP3   OH265580   6.106   4.883  10.939 -0.0099 -0.1411  0.2006
14722TIP3    H165581   6.147   4.850  11.019 -0.3594  0.9041  0.8451
14722TIP3    H265582   6.104   4.978  10.951  0.5872  0.0977 -1.3840
14723TIP3   OH265583   5.316   0.986   3.637  0.3149 -0.0716 -0.3007
14723TIP3    H165584   5.393   0.936   3.662 -0.3198 -2.8122 -3.0356
14723TIP3    H265585   5.243   0.937   3.674 -0.2344  1.6485  1.0097
14724TIP3   OH265586   3.062   0.682   6.098 -0.1065  0.6258 -0.1042
14724TIP3    H165587   2.981   0.634   6.080 -0.3945  1.4248 -1.1029
14724TIP3    H265588   3.129   0.636   6.048 -0.2264  0.7676 -0.4020
14725TIP3   OH265589   6.710   2.551   3.016 -0.9157 -0.3603  0.3245
14725TIP3    H165590   6.719   2.475   2.957  0.4161  0.2890 -0.3354
14725TIP3    H265591   6.675   2.620   2.960 -0.7696 -0.0765  0.5828
14726TIP3   OH265592   2.862   3.157   6.432  0.3498 -0.0182  0.1790
14726TIP3    H165593   2.851   3.067   6.403  1.3288 -0.0116 -0.2583
14726TIP3    H265594   2.941   3.155   6.487  0.3535  0.5600  0.2022
14727TIP3   OH265595   0.826   4.979   4.066 -0.1990  0.3752  0.3711
14727TIP3    H165596   0.762   4.988   3.995  1.0116  0.4761 -0.7570
14727TIP3    H265597   0.897   5.039   4.042  0.3319  0.2601  1.5817
14728TIP3   OH265598   5.431   5.857   1.452 -0.1209  0.1157  0.0847
14728TIP3    H165599   5.373   5.908   1.395 -0.6867  0.2631  0.7854
14728TIP3    H265600   5.514   5.904   1.450  0.0277 -0.1516 -1.0089
14729TIP3   OH265601   3.691   0.448  15.286 -0.4907  0.1439 -0.1383
14729TIP3    H165602   3.744   0.391  15.341  0.8723 -1.2248 -2.6471
14729TIP3    H265603   3.627   0.390  15.244 -0.6676  0.8652 -0.9059
14730TIP3   OH265604   3.068   5.734   4.709 -0.1788  0.4966 -0.0244
14730TIP3    H165605   3.096   5.798   4.643  2.0158 -1.8383 -1.5375
14730TIP3    H265606   3.050   5.654   4.659  2.0879 -1.5522  2.1372
14731TIP3   OH265607   0.731   5.404  14.627 -0.1319  0.6145  0.4159
14731TIP3    H165608   0.747   5.496  14.647 -1.8488  0.8082  1.0326
14731TIP3    H265609   0.785   5.387  14.550  2.0356  1.4758  1.6433
14732TIP3   OH265610   6.657   4.096   2.823  0.2355 -0.0499 -0.5709
14732TIP3    H165611   6.564   4.081   2.839  0.3972 -0.9344 -0.4230
14732TIP3    H265612   6.700   4.020   2.861  0.8972 -0.4623 -2.0811
14733TIP3   OH265613   6.635   0.688  12.126 -0.1104 -0.2850  0.2047
14733TIP3    H165614   6.591   0.771  12.108 -0.9872 -0.9613 -0.9131
14733TIP3    H265615   6.566   0.623  12.122  0.8692 -1.3059 -1.0105
14734TIP3   OH265616   0.323   0.228   5.695 -0.4749  0.4061  0.4278
14734TIP3    H165617   0.294   0.201   5.782  2.3698 -0.7100  1.1288
14734TIP3    H265618   0.381   0.303   5.711  1.8160 -1.1171 -0.1579
14735TIP3   OH265619   2.136   2.576   3.376  0.0081 -0.0057 -0.4641
14735TIP3    H165620   2.122   2.519   3.300 -0.2828 -1.0982  0.3864
14735TIP3    H265621   2.050   2.587   3.415  0.0288  1.1871 -0.7099
14736TIP3   OH265622   4.084   3.489   5.021 -0.0218 -0.0650  0.3878
14736TIP3    H165623   4.133   3.543   5.082 -1.7091  0.1158  1.6487
14736TIP3    H265624   4.043   3.551   4.961  0.8115 -0.1823 -0.3195
14737TIP3   OH265625   0.296   1.071   3.159  0.4587  0.0033 -0.2067
14737TIP3    H165626   0.246   1.022   3.095 -0.5904  1.8594 -0.8952
14737TIP3    H265627   0.384   1.076   3.122  0.3223 -0.5079 -0.6049
14738TIP3   OH265628   6.171   3.363   0.540 -0.5745  0.0014  0.3834
14738TIP3    H165629   6.197   3.323   0.623 -0.0725  0.7370  0.5858
14738TIP3    H265630   6.176   3.457   0.556  1.6237  0.2079 -1.1115
14739TIP3   OH265631   3.805   1.890   5.331  0.1475 -0.6436 -0.2287
14739TIP3    H165632   3.734   1.925   5.384  0.5592  0.8161 -0.5988
14739TIP3    H265633   3.815   1.952   5.259  0.3034 -2.0257 -1.4461
14740TIP3   OH265634   3.601   0.676  15.629 -0.4986 -0.2631  0.5225
14740TIP3    H165635   3.556   0.717  15.702 -0.6795  0.9606 -0.2372
14740TIP3    H265636   3.574   0.728  15.553  0.9132 -0.5115 -0.1740
14741TIP3   OH265637   3.610   1.700  10.534 -0.5284  0.1390  0.0318
14741TIP3    H165638   3.530   1.735  10.572 -0.2139  1.9188 -0.8501
14741TIP3    H265639   3.647   1.772  10.485  1.5611 -0.6757  0.2916
14742TIP3   OH265640   5.301   0.000  11.088  0.1346 -0.0737 -0.1899
14742TIP3    H165641   5.391  -0.013  11.117 -0.1714  0.4293  1.0577
14742TIP3    H265642   5.308   0.063  11.016  0.7465  0.3067  0.1947
14743TIP3   OH265643   2.897   4.481  13.906  0.0728 -0.0115 -0.2629
14743TIP3    H165644   2.909   4.466  13.812 -0.8839 -1.1269 -0.2266
14743TIP3    H265645   2.985   4.475  13.943  0.5918  1.3432 -1.1838
14744TIP3   OH265646   1.860   2.042  13.926 -0.9470 -1.0640  0.3620
14744TIP3    H165647   1.861   2.030  14.021  0.5366 -0.1805  0.4928
14744TIP3    H265648   1.899   1.962  13.892  0.4000 -0.5691  0.6559
14745TIP3   OH265649   3.708   0.336   0.602 -0.8698 -0.5513  0.4782
14745TIP3    H165650   3.701   0.425   0.637 -1.4275  0.3160 -1.6636
14745TIP3    H265651   3.699   0.279   0.678  0.6007  1.2142  2.0788
14746TIP3   OH265652   5.724   2.492  12.589  0.0370 -0.0883 -0.0762
14746TIP3    H165653   5.677   2.550  12.530 -0.4858  0.2296  0.6454
14746TIP3    H265654   5.748   2.547  12.663 -1.0035 -0.9088  0.9058
14747TIP3   OH265655   1.302   1.516  11.370 -0.4727  0.0510 -0.1209
14747TIP3    H165656   1.258   1.484  11.449 -0.2718  2.0261  0.8809
14747TIP3    H265657   1.391   1.480  11.376 -0.5193  0.0185  0.4808
14748TIP3   OH265658   2.171   1.952   1.162 -0.2309  0.3090  0.6528
14748TIP3    H165659   2.260   1.924   1.181  0.7242  1.6867 -1.4270
14748TIP3    H265660   2.153   1.919   1.074 -1.5887  0.5012  0.8307
14749TIP3   OH265661   3.925   4.871  13.787  0.0030  0.0699 -0.0368
14749TIP3    H165662   3.965   4.956  13.772 -2.7589  1.6247  0.8543
14749TIP3    H265663   3.863   4.860  13.715 -1.3257 -0.0758  1.0932
14750TIP3   OH265664   5.526   0.202   5.141 -0.4116 -1.0882  0.5538
14750TIP3    H165665   5.587   0.140   5.101 -0.0024  0.4553 -1.3965
14750TIP3    H265666   5.454   0.208   5.077 -0.3712  0.5180  0.6329
14751TIP3   OH265667   1.344   2.269   6.143  0.0538  0.4369  0.3699
14751TIP3    H165668   1.255   2.239   6.161  0.5162 -1.0379  0.3124
14751TIP3    H265669   1.391   2.251   6.224  1.0895 -2.0796 -0.6767
14752TIP3   OH265670   5.048   6.226   0.671  0.7193  0.5628 -0.3894
14752TIP3    H165671   5.119   6.283   0.700  0.9125 -0.2401  0.7968
14752TIP3    H265672   5.067   6.141   0.710 -0.7776  0.2780 -0.1909
14753TIP3   OH265673   5.385   2.114  13.186 -0.7440 -1.0665 -0.1423
14753TIP3    H165674   5.463   2.111  13.132 -1.4374 -1.3391 -1.1585
14753TIP3    H265675   5.413   2.157  13.267  1.0307 -3.2327  0.5067
14754TIP3   OH265676   2.278   4.237  15.308 -0.4170  0.2438 -0.5692
14754TIP3    H165677   2.234   4.202  15.230 -0.7879 -1.1597  0.2345
14754TIP3    H265678   2.261   4.331  15.304 -0.1905  0.2575 -2.3227
14755TIP3   OH265679   0.706   1.890   5.415  0.1357  0.2886  0.2884
14755TIP3    H165680   0.672   1.809   5.452 -2.2937  1.0829  0.0162
14755TIP3    H265681   0.647   1.909   5.341  1.6089  1.4829 -0.6366
14756TIP3   OH265682   4.733   1.560   4.299 -0.1516 -0.1716  0.2769
14756TIP3    H165683   4.676   1.607   4.361  1.9034  1.7177  0.8872
14756TIP3    H265684   4.806   1.620   4.284 -0.6660 -0.3402 -4.3363
14757TIP3   OH265685   4.684   2.287   0.471 -0.5017  0.6040  1.1616
14757TIP3    H165686   4.599   2.309   0.433 -0.4758  0.5164  1.0526
14757TIP3    H265687   4.686   2.191   0.472  0.0618  0.5945  0.1215
14758TIP3   OH265688   3.497   2.606   1.824 -0.0643 -0.0963  0.2781
14758TIP3    H165689   3.441   2.676   1.856  1.0332  1.3499 -0.8622
14758TIP3    H265690   3.436   2.544   1.783 -0.8427  1.8707 -1.7480
14759TIP3   OH265691   3.320   6.632   1.110  0.0152  0.3530 -0.6931
14759TIP3    H165692   3.332   6.555   1.166 -0.0541  1.1547  0.4561
14759TIP3    H265693   3.393   6.629   1.049 -0.2726 -0.9010 -1.0091
14760TIP3   OH265694   2.199   5.679   3.931  0.3965 -0.1578 -0.4863
14760TIP3    H165695   2.137   5.607   3.921 -0.7654  0.8264 -0.6251
14760TIP3    H265696   2.276   5.639   3.971 -0.4733 -1.3422  0.0701
14761TIP3   OH265697   5.559   5.803  15.603  0.5707 -0.2651 -0.3378
14761TIP3    H165698   5.547   5.898  15.604 -1.0539 -0.4025  2.0929
14761TIP3    H265699   5.495   5.773  15.538  1.5319  0.2954 -1.5904
14762TIP3   OH265700   4.675   1.655  16.138  0.0782 -0.4189  0.7353
14762TIP3    H165701   4.764   1.666  16.172  0.2439 -0.6146  0.3719
14762TIP3    H265702   4.628   1.611  16.208  0.2042 -0.1132  1.0194
14763TIP3   OH265703   0.059   4.333   4.562 -0.1710  0.4584  0.0848
14763TIP3    H165704  -0.005   4.299   4.626 -0.4391 -0.5430 -0.6923
14763TIP3    H265705   0.041   4.284   4.482  2.9418 -1.4415  0.4061
14764TIP3   OH265706   4.354   3.820  15.625 -0.2341  0.1662 -0.4385
14764TIP3    H165707   4.412   3.761  15.578 -0.4895  0.8269 -1.6146
14764TIP3    H265708   4.407   3.898  15.640 -0.9209  0.9475 -1.9138
14765TIP3   OH265709   1.496   4.919   0.651 -0.4831  0.6570  0.2333
14765TIP3    H165710   1.416   4.887   0.610 -0.3820  0.9319 -0.1841
14765TIP3    H265711   1.562   4.852   0.634 -0.6011  0.4691  0.5064
14766TIP3   OH265712   4.098   1.337  11.075 -0.4782 -0.1492 -0.2963
14766TIP3    H165713   4.114   1.295  10.990 -0.2144  0.2269 -0.4312
14766TIP3    H265714   4.006   1.319  11.093  0.4855 -4.4468  1.6152
14767TIP3   OH265715   0.935   2.300  11.797  0.3153  0.2583  1.0454
14767TIP3    H165716   0.925   2.378  11.851 -2.2342 -0.2021  1.3737
14767TIP3    H265717   0.988   2.328  11.723 -1.2394  2.5794  0.7087
14768TIP3   OH265718   2.712   3.870   4.484  0.5587  1.0895  0.1198
14768TIP3    H165719   2.624   3.907   4.483 -0.1151 -0.4092 -1.8038
14768TIP3    H265720   2.726   3.840   4.395  3.0807  1.3422  0.3661
14769TIP3   OH265721   0.960   6.157  11.969  0.0289 -0.0695 -0.5602
14769TIP3    H165722   0.900   6.094  12.009 -2.3475  0.5593 -2.9035
14769TIP3    H265723   0.916   6.242  11.978  1.1693  0.6253 -1.2152
14770TIP3   OH265724   6.367   5.998  14.585  0.1379 -0.4509 -0.0805
14770TIP3    H165725   6.284   6.017  14.542  0.6501  1.7588 -0.2090
14770TIP3    H265726   6.418   5.950  14.519 -0.3018 -0.0453 -0.7209
14771TIP3   OH265727   2.078   4.815   4.217  0.6586 -0.1919  0.4498
14771TIP3    H165728   2.024   4.875   4.166  1.9448  0.4960 -0.1360
14771TIP3    H265729   2.116   4.870   4.286  1.3312 -0.4589  0.3023
14772TIP3   OH265730   6.615   2.095  11.226  0.7452 -0.4598 -0.9642
14772TIP3    H165731   6.582   2.097  11.136 -0.3397  1.9502 -0.5784
14772TIP3    H265732   6.540   2.066  11.278  1.4160 -2.0035 -0.8041
14773TIP3   OH265733   4.005   2.651  14.849  0.5796 -0.0649  0.4239
14773TIP3    H165734   3.935   2.606  14.801  0.4466  2.7941 -2.3805
14773TIP3    H265735   4.080   2.590  14.844 -0.1432 -0.8785 -1.4006
14774TIP3   OH265736   3.932   2.132   1.950 -0.1855 -0.1614  0.2624
14774TIP3    H165737   3.989   2.117   1.875  1.3492  2.6949  0.7265
14774TIP3    H265738   3.875   2.055   1.953  1.0322 -1.2914 -2.5825
14775TIP3   OH265739   2.298   5.309   1.434 -0.4111 -0.2005  0.2373
14775TIP3    H165740   2.269   5.231   1.480 -0.2794 -0.1298  0.4375
14775TIP3    H265741   2.246   5.310   1.353  1.1458 -1.7193 -0.8521
14776TIP3   OH265742   5.529   6.342   4.232 -0.7905 -0.1919  0.4419
14776TIP3    H165743   5.500   6.316   4.320  0.4712 -1.4447  0.5231
14776TIP3    H265744   5.624   6.349   4.240 -0.5435 -1.3600 -1.0774
14777TIP3   OH265745   3.176   5.360  14.836 -0.0655 -0.3460 -0.7661
14777TIP3    H165746   3.227   5.419  14.780 -0.8123  0.1091 -0.9795
14777TIP3    H265747   3.238   5.332  14.903  0.4426  0.2771 -0.9597
14778TIP3   OH265748   4.683   0.176  14.699 -0.4369  0.1094  0.5633
14778TIP3    H165749   4.625   0.201  14.628 -0.5388 -2.5642 -0.4206
14778TIP3    H265750   4.770   0.203  14.670 -0.5119 -0.7394 -0.5118
14779TIP3   OH265751   3.623   2.729  17.120 -0.1591  0.3095  0.1352
14779TIP3    H165752   3.529   2.711  17.112  0.0796 -0.6539 -0.7162
14779TIP3    H265753   3.662   2.681  17.047  1.2137 -0.9010  1.6124
14780TIP3   OH265754   1.283   2.347   1.322 -0.0839 -0.4986  0.5098
14780TIP3    H165755   1.375   2.359   1.297 -0.4017  0.3160 -0.3358
14780TIP3    H265756   1.235   2.408   1.266 -1.2319 -1.5202  0.3359
14781TIP3   OH265757   5.336   6.406  13.908  0.0853 -0.2339 -0.3202
14781TIP3    H165758   5.305   6.316  13.917  0.8699 -0.4951 -0.2113
14781TIP3    H265759   5.263   6.460  13.939  0.2863 -0.8825  1.3468
14782TIP3   OH265760   4.969   5.402  17.116  0.5273  0.2287 -0.4811
14782TIP3    H165761   5.030   5.450  17.173 -0.2886 -0.9159  1.4358
14782TIP3    H265762   4.914   5.471  17.078  1.7599  1.1109 -0.7552
14783TIP3   OH265763   4.953   2.754  15.500  0.6115 -0.3753  0.2549
14783TIP3    H165764   5.042   2.735  15.471  1.6063  0.2501  2.7048
14783TIP3    H265765   4.943   2.848  15.489  1.0676 -0.0966  1.9449
14784TIP3   OH265766   6.441   4.160   5.145  0.1723  0.8227 -0.2223
14784TIP3    H165767   6.413   4.097   5.212 -1.0221  2.3492  0.7723
14784TIP3    H265768   6.534   4.176   5.165  1.3336 -2.4922 -2.1016
14785TIP3   OH265769   5.414   0.816  13.219  0.4824 -0.0023  0.0435
14785TIP3    H165770   5.354   0.741  13.222  1.1188 -0.4888  1.2553
14785TIP3    H265771   5.418   0.839  13.126 -1.5968  0.0902 -0.0881
14786TIP3   OH265772   3.723   5.704  12.255 -0.0479 -0.3822  0.0983
14786TIP3    H165773   3.644   5.693  12.202  1.0379 -2.1652 -1.2540
14786TIP3    H265774   3.764   5.784  12.221  0.4111 -1.2691 -1.5511
14787TIP3   OH265775   3.833   3.277  12.290 -0.2213 -0.3376  0.1954
14787TIP3    H165776   3.923   3.248  12.277 -0.1539  0.3542 -1.0806
14787TIP3    H265777   3.839   3.341  12.361  0.5776  0.8298 -0.8682
14788TIP3   OH265778   2.185   3.325  15.638 -0.0022 -0.0181  0.2407
14788TIP3    H165779   2.224   3.283  15.562  0.9190 -0.2106  0.8075
14788TIP3    H265780   2.231   3.409  15.646 -0.9089  0.5285 -0.0962
14789TIP3   OH265781   5.443   3.699  12.164 -0.1803 -0.3369  0.1680
14789TIP3    H165782   5.421   3.668  12.252 -0.6986 -1.5377 -0.3577
14789TIP3    H265783   5.398   3.637  12.106  1.6774 -0.6857 -0.9470
14790TIP3   OH265784   3.450   5.835   5.929  0.6494  0.0760 -0.5519
14790TIP3    H165785   3.387   5.872   5.991  0.8196 -1.1298  0.3697
14790TIP3    H265786   3.423   5.744   5.919  1.1462  0.0297 -1.5917
14791TIP3   OH265787   2.255   4.068   3.518  0.2568 -0.7092  0.1733
14791TIP3    H165788   2.175   4.117   3.538  0.6784 -0.2836  0.8681
14791TIP3    H265789   2.299   4.121   3.452  0.5040 -0.3627  0.6112
14792TIP3   OH265790   3.431   5.461   0.131  0.6991 -0.1888 -0.6008
14792TIP3    H165791   3.483   5.441   0.053  0.5680 -0.8374 -0.5225
14792TIP3    H265792   3.496   5.472   0.201  0.7212 -1.2594 -0.4459
14793TIP3   OH265793   1.356   0.279  12.670 -0.0936  0.1570 -0.2592
14793TIP3    H165794   1.305   0.250  12.746  0.3199 -0.9419 -0.3756
14793TIP3    H265795   1.408   0.202  12.645  0.3449  0.7300 -1.1899
14794TIP3   OH265796   5.026   4.920  10.820  0.0050 -0.1940 -0.3151
14794TIP3    H165797   5.003   4.955  10.906 -0.7889  1.0441 -1.0143
14794TIP3    H265798   5.111   4.959  10.800 -0.7741  1.2121 -0.9945
14795TIP3   OH265799   1.006   3.378  11.160  0.5648  0.3365 -0.4322
14795TIP3    H165800   0.985   3.470  11.143 -0.4831  0.3417  0.7829
14795TIP3    H265801   0.931   3.330  11.126 -0.2205  0.1565  1.4149
14796TIP3   OH265802   1.032   2.556  11.181 -0.2784 -0.0232 -0.6979
14796TIP3    H165803   1.005   2.623  11.245 -0.8619 -2.5338  1.9153
14796TIP3    H265804   1.127   2.564  11.176 -0.3110  0.7959 -0.1816
14797TIP3   OH265805   5.395   0.804   2.123 -0.2214 -0.2089  0.4746
14797TIP3    H165806   5.416   0.717   2.089  0.7980  0.4060 -0.5473
14797TIP3    H265807   5.366   0.853   2.046  0.3755  0.6964  0.8146
14798TIP3   OH265808   0.754   2.895   1.451  0.0937 -0.3125  0.3231
14798TIP3    H165809   0.698   2.938   1.386 -1.0935  0.0488  1.5391
14798TIP3    H265810   0.756   2.955   1.525  2.2560 -0.2508  0.2788
14799TIP3   OH265811   5.539   6.396  13.479 -0.1333 -0.3352 -0.1044
14799TIP3    H165812   5.629   6.393  13.448 -0.7217  0.0268 -1.9958
14799TIP3    H265813   5.511   6.304  13.478 -0.1030 -0.3412 -0.5394
14800TIP3   OH265814   2.219   0.540   0.329  0.0560 -0.4455 -0.1656
14800TIP3    H165815   2.306   0.581   0.335  0.3194 -1.0729  0.4507
14800TIP3    H265816   2.201   0.509   0.417 -1.9407  1.9052  0.3529
14801TIP3   OH265817   0.530   0.605  13.190  0.4741  0.3902  0.4598
14801TIP3    H165818   0.518   0.697  13.216  1.9351  0.6658  0.2651
14801TIP3    H265819   0.594   0.609  13.119  0.9688 -0.8294  0.8143
14802TIP3   OH265820   1.821   0.400  14.372  0.0040  0.9442 -0.1689
14802TIP3    H165821   1.817   0.456  14.294 -1.5834  0.1109 -0.7461
14802TIP3    H265822   1.860   0.319  14.342  0.0125  0.8621  0.0597
14803TIP3   OH265823   3.025   3.172   3.834 -0.2386  0.1044  0.7031
14803TIP3    H165824   2.981   3.210   3.758 -0.1929  0.4559  0.8503
14803TIP3    H265825   3.108   3.139   3.800  0.6791  2.0404  0.9547
14804TIP3   OH265826   5.275   0.164   0.887  0.6649  0.2510 -0.3374
14804TIP3    H165827   5.260   0.241   0.832 -1.4283 -0.4680 -0.8743
14804TIP3    H265828   5.227   0.183   0.967  0.8834 -0.1347 -0.1122
14805TIP3   OH265829   2.628   2.736  12.442 -0.2664  0.2006 -0.2944
14805TIP3    H165830   2.665   2.789  12.512 -0.0966 -1.9977  1.3751
14805TIP3    H265831   2.611   2.799  12.371 -0.4698  2.5204  1.6833
14806TIP3   OH265832   4.343   0.486   0.805  0.1693  0.4577  0.0210
14806TIP3    H165833   4.390   0.430   0.742 -2.1294 -1.9889  0.2762
14806TIP3    H265834   4.273   0.527   0.753 -0.0922  0.5499  0.4390
14807TIP3   OH265835   6.651   3.765  11.936 -0.7557 -0.3759  0.2385
14807TIP3    H165836   6.629   3.673  11.946  0.9579 -0.7792  0.6731
14807TIP3    H265837   6.643   3.782  11.842 -2.9184 -0.4193  0.3562
14808TIP3   OH265838   6.106   6.060  14.484  0.5838 -0.1580  0.6154
14808TIP3    H165839   6.130   6.140  14.531 -0.8460  1.6171 -1.4423
14808TIP3    H265840   6.013   6.072  14.463  0.1546 -2.7133  0.8212
14809TIP3   OH265841   4.545   2.897  15.565  0.1414 -0.0734  0.1506
14809TIP3    H165842   4.493   2.901  15.646 -0.6417 -0.9605 -0.2872
14809TIP3    H265843   4.623   2.847  15.589 -0.6016 -1.2914  0.1143
14810TIP3   OH265844   5.444   3.211  11.772 -0.0001  0.0713 -0.4934
14810TIP3    H165845   5.479   3.214  11.861 -0.3101 -0.7200 -0.3423
14810TIP3    H265846   5.451   3.301  11.741  1.3373  0.1128 -0.1475
14811TIP3   OH265847   5.371   0.327  11.744 -0.1203 -0.2381 -0.5145
14811TIP3    H165848   5.338   0.277  11.670  2.4066 -0.9436 -1.2670
14811TIP3    H265849   5.326   0.411  11.739 -2.4919 -1.4510 -0.7945
14812TIP3   OH265850   6.738   5.260  15.007  0.4703  0.3826  0.1767
14812TIP3    H165851   6.670   5.208  14.964  1.7067 -0.4232 -0.8897
14812TIP3    H265852   6.816   5.246  14.954  0.7730  3.7980 -0.4641
14813TIP3   OH265853   1.975   5.620  15.564 -0.7741 -0.6474  0.7246
14813TIP3    H165854   1.956   5.641  15.472 -1.2691 -0.4607  0.8695
14813TIP3    H265855   1.946   5.697  15.613 -5.3580 -2.5464  1.5710
14814TIP3   OH265856   5.631   6.635   6.601  0.7305 -0.1274 -0.4665
14814TIP3    H165857   5.572   6.618   6.528 -0.4384  0.1659  0.3576
14814TIP3    H265858   5.693   6.700   6.568 -0.4756  0.8544 -0.8824
14815TIP3   OH265859   4.039   0.732   0.308  0.4789 -0.0688 -0.2582
14815TIP3    H165860   4.003   0.650   0.343  1.9459 -0.7567 -0.3022
14815TIP3    H265861   3.967   0.795   0.317 -0.6983 -1.3607 -0.2774
14816TIP3   OH265862   0.382   2.576   5.429  0.3535 -0.2070 -0.7310
14816TIP3    H165863   0.348   2.649   5.481  1.9126  0.3100 -0.3656
14816TIP3    H265864   0.307   2.519   5.415 -0.3056  0.0225  1.4642
14817TIP3   OH265865   4.594   3.979   4.530 -0.1670 -0.0456  0.0044
14817TIP3    H165866   4.636   3.992   4.445  0.3720  2.0018  0.5248
14817TIP3    H265867   4.653   4.022   4.593 -0.2723 -1.9946  1.5111
14818TIP3   OH265868   3.111   3.836   5.072 -0.9050 -0.3577  0.5931
14818TIP3    H165869   3.019   3.826   5.048 -1.1534  3.0012 -0.5073
14818TIP3    H265870   3.109   3.859   5.165 -1.3349  0.8176  0.3124
14819TIP3   OH265871   2.526   5.910  11.785  0.0228  0.2486 -0.6343
14819TIP3    H165872   2.554   5.941  11.699 -0.6573  0.1172 -0.9062
14819TIP3    H265873   2.515   5.815  11.775 -0.8027  0.3321 -0.6240
14820TIP3   OH265874   5.641   1.254  12.708 -0.4530  0.5024  0.0556
14820TIP3    H165875   5.644   1.245  12.803 -0.3163 -2.4713 -0.1487
14820TIP3    H265876   5.548   1.258  12.687 -0.4969  0.6192  0.2755
14821TIP3   OH265877   4.350   3.030  11.468 -0.5251 -0.2769 -0.3572
14821TIP3    H165878   4.380   2.944  11.437  0.5037 -1.2265  2.8656
14821TIP3    H265879   4.428   3.072  11.502 -1.4543  0.7757  0.5727
14822TIP3   OH265880   6.362   3.038  14.030 -0.1414 -0.4358 -0.0554
14822TIP3    H165881   6.306   3.022  13.954  0.6705 -0.0737 -0.7525
14822TIP3    H265882   6.335   2.973  14.095  0.1665 -1.7585 -1.2033
14823TIP3   OH265883   5.961   0.131  16.701 -0.5382  0.1735 -0.7178
14823TIP3    H165884   6.000   0.104  16.785 -2.9440 -0.0201  0.4251
14823TIP3    H265885   6.022   0.197  16.666  1.1544 -0.6409  0.5540
14824TIP3   OH265886   4.471   2.754   2.022 -0.1474 -0.3041  0.0886
14824TIP3    H165887   4.389   2.774   1.977 -0.3687  0.0937  0.6618
14824TIP3    H265888   4.522   2.705   1.958 -0.9603 -0.8447 -0.1698
14825TIP3   OH265889   0.981   6.733   4.194 -0.0629  0.1057 -0.0666
14825TIP3    H165890   0.954   6.641   4.193  0.8047 -0.1824  1.4886
14825TIP3    H265891   1.071   6.733   4.160  0.4929  0.1645  1.3441
14826TIP3   OH265892   2.450   6.642  10.999  0.3016 -0.0168 -0.3877
14826TIP3    H165893   2.515   6.643  10.929  0.0105 -0.7261 -0.6723
14826TIP3    H265894   2.498   6.674  11.076  0.5878  0.8924 -0.9237
14827TIP3   OH265895   3.897   5.103  11.829  0.5391 -0.2228  0.3704
14827TIP3    H165896   3.894   5.164  11.756  1.8685 -0.9490 -0.3278
14827TIP3    H265897   3.887   5.016  11.789  1.6912 -0.6635  0.9752
14828TIP3   OH265898   2.723   6.757  16.306  0.3873  0.2979  0.0527
14828TIP3    H165899   2.673   6.825  16.261  1.3620  0.7817 -0.3374
14828TIP3    H265900   2.767   6.802  16.377  0.2700 -0.1223  0.3991
14829TIP3   OH265901   2.495   4.972   6.085  0.6931  0.5296  0.4730
14829TIP3    H165902   2.585   4.969   6.052  0.2872  1.5669 -0.8459
14829TIP3    H265903   2.488   5.056   6.130  0.5691  0.1452  1.1876
14830TIP3   OH265904   5.009   1.488  14.831  0.2914  0.0360  0.0417
14830TIP3    H165905   4.920   1.489  14.866 -0.0465  0.8400 -0.7746
14830TIP3    H265906   5.065   1.511  14.905 -0.2883  0.5075  0.3407
14831TIP3   OH265907   4.182   6.165   4.819  0.6638  0.0066  0.3083
14831TIP3    H165908   4.187   6.187   4.726  2.7123 -3.3045 -0.5483
14831TIP3    H265909   4.134   6.082   4.821  0.9788 -0.1671  2.1724
14832TIP3   OH265910   3.680   4.096   0.436 -0.6356 -0.0857  0.2103
14832TIP3    H165911   3.690   4.159   0.366 -1.1663 -0.3442 -0.1023
14832TIP3    H265912   3.700   4.011   0.395 -2.3759 -0.4152 -0.0136
14833TIP3   OH265913   4.436   2.925  16.707  0.1365 -0.0234  0.4221
14833TIP3    H165914   4.356   2.946  16.755  0.9136 -0.5922  2.0513
14833TIP3    H265915   4.500   2.991  16.736  1.2382 -1.6587  1.9441
14834TIP3   OH265916   6.694   4.251  13.598  0.1709 -0.1789  0.3860
14834TIP3    H165917   6.730   4.242  13.510  0.0267  1.1964  0.1570
14834TIP3    H265918   6.683   4.345  13.609 -2.6487 -0.4727  0.7366
14835TIP3   OH265919   3.149   6.760  16.325 -0.7082  0.4919 -0.0164
14835TIP3    H165920   3.095   6.712  16.262 -1.7178  1.1470  0.3185
14835TIP3    H265921   3.088   6.785  16.394  0.3692 -0.1701  1.2241
14836TIP3   OH265922   2.155   2.376   0.130  0.4689 -0.0469 -0.2975
14836TIP3    H165923   2.213   2.442   0.168  0.6545  0.5016 -1.4804
14836TIP3    H265924   2.164   2.300   0.188  0.0329  1.0424  1.2477
14837TIP3   OH265925   0.194   1.254   2.880 -0.2049  0.0952  0.0465
14837TIP3    H165926   0.176   1.223   2.791  0.1012  1.8122 -0.6428
14837TIP3    H265927   0.157   1.342   2.883  1.5008  0.8234  0.9713
14838TIP3   OH265928   3.761   6.038   1.605  1.1084  0.0094  0.5133
14838TIP3    H165929   3.817   5.978   1.556  0.1282 -1.9162  1.5857
14838TIP3    H265930   3.778   6.124   1.568  3.1702 -0.8102 -0.5984
14839TIP3   OH265931   5.078   4.517   3.594 -0.1641  0.5541  0.4259
14839TIP3    H165932   5.147   4.454   3.570  1.7163  1.6442  2.5141
14839TIP3    H265933   5.117   4.602   3.577 -1.4826  1.2074  0.5717
14840TIP3   OH265934   3.984   2.650  16.661 -0.0506 -0.0049 -0.0749
14840TIP3    H165935   4.067   2.602  16.662  0.0757  0.2131  0.3325
14840TIP3    H265936   3.972   2.679  16.752 -0.1182  0.7403 -0.3098
14841TIP3   OH265937   2.997   0.936   3.242 -0.0715 -0.0702  0.0295
14841TIP3    H165938   3.042   0.983   3.171  0.2588 -1.5123 -0.7730
14841TIP3    H265939   2.908   0.971   3.241 -0.0120  0.1050 -0.9709
14842TIP3   OH265940   3.133   5.800   5.988  0.5755  0.2719  0.1138
14842TIP3    H165941   3.192   5.748   5.933 -0.1026  1.9543 -2.3683
14842TIP3    H265942   3.183   5.879   6.009 -0.0776  0.7914 -0.2770
14843TIP3   OH265943   1.172   2.403   0.808 -0.0471 -0.7951  0.6824
14843TIP3    H165944   1.110   2.436   0.873 -0.0763 -1.5111  1.0241
14843TIP3    H265945   1.181   2.475   0.745 -0.8716 -0.5183  0.8686
14844TIP3   OH265946   0.006   0.649  15.161  0.0503 -0.6087 -0.1048
14844TIP3    H165947  -0.037   0.579  15.112 -0.4269  0.5021 -1.3418
14844TIP3    H265948   0.005   0.620  15.252 -0.0279 -2.2404 -0.6078
14845TIP3   OH265949   2.690   1.304  14.052  0.1397  0.2834 -0.1700
14845TIP3    H165950   2.724   1.392  14.037 -1.0318  0.8535  0.3728
14845TIP3    H265951   2.755   1.262  14.108  0.2759  1.1262  0.3223
14846TIP3   OH265952   5.629   4.400  14.544 -0.5642  0.0315  0.1924
14846TIP3    H165953   5.665   4.488  14.534  1.6100 -0.6493  1.4472
14846TIP3    H265954   5.572   4.388  14.467  3.0422  0.6427 -2.8560
14847TIP3   OH265955   2.391   2.410  11.804  0.0116 -0.3702  0.0934
14847TIP3    H165956   2.436   2.418  11.888 -1.1233 -0.8828  0.7789
14847TIP3    H265957   2.457   2.374  11.744  0.9657  0.4527  0.6246
14848TIP3   OH265958   6.357   5.474   2.151 -0.6500 -0.0699  0.4132
14848TIP3    H165959   6.328   5.520   2.073 -1.3644 -0.0788  0.6605
14848TIP3    H265960   6.398   5.542   2.205 -1.3333  0.2022  0.5989
14849TIP3   OH265961   2.727   4.817  15.155 -0.5653 -0.0606  0.6951
14849TIP3    H165962   2.808   4.850  15.116 -1.3393  2.3811  0.9748
14849TIP3    H265963   2.748   4.729  15.185  0.5593 -1.6032 -3.7606
14850TIP3   OH265964   6.567   6.690   3.599 -0.0730 -0.8872  0.2613
14850TIP3    H165965   6.632   6.754   3.628  0.3001  0.6983 -3.4706
14850TIP3    H265966   6.555   6.632   3.674  1.8888  1.7126  2.8024
14851TIP3   OH265967   5.313   1.429   0.198  0.0487  0.4251  0.5497
14851TIP3    H165968   5.378   1.359   0.199  0.0801  0.4254 -0.5480
14851TIP3    H265969   5.346   1.494   0.260  0.5925 -0.0251  0.7304
14852TIP3   OH265970   1.912   1.195   4.659 -0.2851  0.6493  0.0410
14852TIP3    H165971   1.992   1.217   4.706 -0.8426 -0.4858  1.5816
14852TIP3    H265972   1.941   1.179   4.569  1.0216  1.3880  0.3040
14853TIP3   OH265973   0.387   0.293   1.357  0.1267  0.2628 -0.2642
14853TIP3    H165974   0.351   0.291   1.445 -1.0413  0.8842 -0.6932
14853TIP3    H265975   0.315   0.328   1.303  0.9310  0.2337 -1.3924
14854TIP3   OH265976   4.839   0.788  16.735  0.2282 -0.1226  0.2107
14854TIP3    H165977   4.840   0.693  16.727 -0.4336 -0.0071 -2.2158
14854TIP3    H265978   4.903   0.818  16.670  2.3305  1.0887  2.6788
14855TIP3   OH265979   1.299   5.364  12.101  0.1654 -0.2183  0.0291
14855TIP3    H165980   1.337   5.450  12.119  0.5338 -0.5624  0.9310
14855TIP3    H265981   1.357   5.324  12.037  0.1491  0.0876 -0.1790
14856TIP3   OH265982   0.813   2.910   2.811  0.2791  0.6273 -0.1211
14856TIP3    H165983   0.752   2.951   2.750  0.5729 -0.1673 -0.9762
14856TIP3    H265984   0.839   2.829   2.767 -0.4702 -0.6137  1.5939
14857TIP3   OH265985   2.293   6.747  16.579  0.2966 -0.9857  0.0565
14857TIP3    H165986   2.318   6.709  16.494 -0.7127  0.3422 -0.8775
14857TIP3    H265987   2.198   6.751  16.575  0.2854 -0.2371  0.9680
14858TIP3   OH265988   2.966   1.972   3.431  0.0830 -0.2553  0.1638
14858TIP3    H165989   2.876   2.000   3.445  0.0805  0.3014 -0.8468
14858TIP3    H265990   3.014   2.054   3.418  0.2444 -0.6474 -1.9594
14859TIP3   OH265991   3.062   0.597  11.930  0.5081  0.2997  0.1814
14859TIP3    H165992   2.988   0.620  11.987 -0.9811 -0.4179 -1.3583
14859TIP3    H265993   3.140   0.621  11.980 -0.7419  0.4761  2.1472
14860TIP3   OH265994   1.988   3.551   3.148 -0.4212  0.0229 -0.0197
14860TIP3    H165995   1.921   3.502   3.101 -0.0237 -0.3434 -0.2060
14860TIP3    H265996   1.957   3.642   3.145  0.4223  0.3045 -2.4676
14861TIP3   OH265997   2.859   0.253  15.765 -0.0961 -0.2890  0.4458
14861TIP3    H165998   2.948   0.223  15.751  0.1635 -0.1599  1.7259
14861TIP3    H265999   2.808   0.173  15.781  0.5014 -0.2062  3.3477
14862TIP3   OH266000   2.166   4.406   0.900  0.4010  0.0068 -0.2220
14862TIP3    H166001   2.232   4.351   0.942 -2.1653 -1.7988  1.8261
14862TIP3    H266002   2.131   4.460   0.972 -0.3323  0.9370 -1.2416
14863TIP3   OH266003   4.805   2.125   0.264 -0.5358  0.4932  0.2109
14863TIP3    H166004   4.773   2.067   0.334  1.4466  1.3372  1.9209
14863TIP3    H266005   4.726   2.148   0.214 -1.7081 -1.7859  0.8878
14864TIP3   OH266006   4.941   6.488  14.566 -0.6919  0.1214  0.6830
14864TIP3    H166007   4.876   6.524  14.506 -0.2800  1.1707  0.8467
14864TIP3    H266008   4.905   6.505  14.653  0.2648  1.6722  0.8060
14865TIP3   OH266009   1.044   3.426  16.450 -0.3827  0.0508 -0.1306
14865TIP3    H166010   1.029   3.520  16.446 -1.0656 -0.0499  0.0020
14865TIP3    H266011   1.081   3.404  16.364  0.3200  0.5247  0.0393
14866TIP3   OH266012   4.442   5.389   1.606  0.1324  0.7160 -0.4628
14866TIP3    H166013   4.366   5.426   1.651  0.8375  0.2687  1.1423
14866TIP3    H266014   4.469   5.316   1.661  0.6592 -0.2550 -1.9566
14867TIP3   OH266015   1.066   3.534   3.574 -0.0365  0.6908  1.0185
14867TIP3    H166016   1.083   3.563   3.484  0.5713  2.2260  1.5947
14867TIP3    H266017   1.098   3.444   3.577  0.5847  0.8616 -0.1183
14868TIP3   OH266018   1.092   5.694   1.446  0.4971  0.0830 -0.2162
14868TIP3    H166019   1.148   5.753   1.497  2.0211 -1.8496  0.4360
14868TIP3    H266020   1.148   5.621   1.422 -1.3636 -1.2187 -0.8532
14869TIP3   OH266021   1.611   4.339  10.596  0.0797  0.2018 -0.0804
14869TIP3    H166022   1.531   4.319  10.644  1.4396  0.4753  2.4855
14869TIP3    H266023   1.643   4.255  10.565 -0.8907  0.0321 -0.6617
14870TIP3   OH266024   3.159   2.446  17.029 -0.2895  0.2636  0.1843
14870TIP3    H166025   3.078   2.412  17.068  0.0910 -2.0513 -0.8562
14870TIP3    H266026   3.212   2.473  17.104 -1.1014 -0.4072  1.0355
14871TIP3   OH266027   2.033   6.667  16.584 -0.5168  0.2833  0.5698
14871TIP3    H166028   2.014   6.590  16.638 -0.0971 -0.9257 -0.9232
14871TIP3    H266029   1.981   6.654  16.505  1.6090  0.0894 -0.8995
14872TIP3   OH266030   0.198   2.868   0.178  0.8504  0.2172 -0.5711
14872TIP3    H166031   0.232   2.950   0.214  2.1702 -0.4198 -0.3056
14872TIP3    H266032   0.274   2.810   0.174  0.4595 -0.2699 -2.8940
14873TIP3   OH266033   4.957   0.488  12.491 -0.3508  0.1367  0.2438
14873TIP3    H166034   4.873   0.526  12.516 -1.2689 -1.5995 -0.0122
14873TIP3    H266035   4.934   0.406  12.448  1.4250  0.3182 -1.1731
14874TIP3   OH266036   3.440   2.743   3.671  0.1444  0.6967  0.6365
14874TIP3    H166037   3.413   2.667   3.619 -1.0254  2.5037 -1.5677
14874TIP3    H266038   3.381   2.742   3.746 -0.3929 -0.1057  0.2245
14875TIP3   OH266039   4.986   0.147  14.207  0.5318  0.1600  0.3860
14875TIP3    H166040   5.044   0.137  14.132  1.0658  0.1441  0.7863
14875TIP3    H266041   5.045   0.173  14.279 -0.1323  1.3153  0.5259
14876TIP3   OH266042   4.321   6.006  11.296  0.0990 -0.4602  0.0689
14876TIP3    H166043   4.376   6.068  11.250  0.0310 -0.7514 -0.4066
14876TIP3    H266044   4.330   5.924  11.248 -1.2424 -0.3599 -0.4051
14877TIP3   OH266045   1.010   6.719  11.314  0.2301 -0.1011  0.7037
14877TIP3    H166046   0.965   6.637  11.296 -0.4489  0.6392 -1.3001
14877TIP3    H266047   1.072   6.728  11.241 -0.6148  1.7435  0.1482
14878TIP3   OH266048   0.403   6.391  13.414 -0.0246  0.1622 -0.0844
14878TIP3    H166049   0.474   6.357  13.359 -0.0449 -0.2838  0.1573
14878TIP3    H266050   0.338   6.320  13.416  0.2011 -0.0410  0.9130
14879TIP3   OH266051   3.335   3.479   3.257 -0.5282  0.4549 -0.2096
14879TIP3    H166052   3.402   3.477   3.189  0.2101 -0.9693  0.5102
14879TIP3    H266053   3.346   3.564   3.300  1.3130 -0.0315  0.3548
14880TIP3   OH266054   1.169   1.741  15.888  0.1293 -0.2931  0.1073
14880TIP3    H166055   1.124   1.657  15.888 -0.0961 -0.1838  0.9594
14880TIP3    H266056   1.253   1.723  15.932 -0.1862  0.0499  0.8737
14881TIP3   OH266057   1.633   0.779  16.345 -0.4412 -0.1337 -0.0063
14881TIP3    H166058   1.595   0.863  16.321  1.0899  0.6290  0.1172
14881TIP3    H266059   1.684   0.797  16.424  1.5537 -0.7044 -1.1038
14882TIP3   OH266060   2.814   6.459   0.497 -0.3482 -0.2166 -0.0398
14882TIP3    H166061   2.753   6.493   0.562  1.4643  3.6674 -0.0424
14882TIP3    H266062   2.885   6.421   0.549 -0.9868 -1.2869  0.0693
14883TIP3   OH266063   6.044   1.488  12.021  0.4924 -0.2893 -0.4684
14883TIP3    H166064   6.120   1.496  12.078 -0.5524 -1.5334  1.2151
14883TIP3    H266065   6.070   1.421  11.957  0.1147 -2.4984  1.5225
14884TIP3   OH266066   0.032   2.229  13.492 -0.2023  0.4232 -0.2840
14884TIP3    H166067  -0.032   2.279  13.545  0.4628  1.4032 -0.3765
14884TIP3    H266068   0.047   2.149  13.543 -1.4752  0.1751 -0.2436
14885TIP3   OH266069   5.190   2.082   4.295  0.1583  0.0371  0.0803
14885TIP3    H166070   5.108   2.122   4.324 -0.1052  0.0784 -0.6975
14885TIP3    H266071   5.192   1.997   4.339 -0.1961  0.1335  0.2800
14886TIP3   OH266072   0.237   6.314  17.082 -0.0095  0.1488 -0.0055
14886TIP3    H166073   0.186   6.241  17.048 -1.0802  0.7678  0.2518
14886TIP3    H266074   0.200   6.331  17.168  1.4913 -0.2251  0.7501
14887TIP3   OH266075   6.787   5.125  11.781 -0.5923 -0.7501 -0.0326
14887TIP3    H166076   6.754   5.061  11.717 -1.0829 -1.4876  0.9376
14887TIP3    H266077   6.877   5.140  11.755 -1.3196  0.4620 -2.0845
14888TIP3   OH266078   5.061   1.256   1.723 -0.4633  0.0102 -0.1000
14888TIP3    H166079   4.998   1.233   1.655 -0.0560 -1.4438 -0.0033
14888TIP3    H266080   5.041   1.198   1.796  0.7583 -0.2397  0.0558
14889TIP3   OH266081   4.862   4.891  16.395 -0.1019  0.2969 -0.5064
14889TIP3    H166082   4.784   4.871  16.449 -0.6281  1.2697 -0.8926
14889TIP3    H266083   4.826   4.926  16.314  0.7188 -0.4856 -1.2158
14890TIP3   OH266084   2.335   5.670   6.375  0.8126 -0.1377  0.3178
14890TIP3    H166085   2.373   5.619   6.447  2.1122 -0.4367 -0.5698
14890TIP3    H266086   2.338   5.761   6.406  0.4443 -0.3605  1.0345
14891TIP3   OH266087   4.565   0.199  14.936  0.0472 -0.2154  0.5095
14891TIP3    H166088   4.605   0.205  14.849 -1.9716  1.8224 -0.3864
14891TIP3    H266089   4.634   0.227  14.996  0.4883  1.6574 -0.7978
14892TIP3   OH266090   4.246   4.743  13.269  0.1061  0.0350 -0.3547
14892TIP3    H166091   4.187   4.759  13.195  0.5591 -0.7005 -0.8906
14892TIP3    H266092   4.245   4.648  13.280  2.1082 -0.1392 -1.1751
14893TIP3   OH266093   2.418   5.348  14.067  0.4276 -0.1986 -0.3070
14893TIP3    H166094   2.380   5.420  14.016  0.8214  1.3674  1.5060
14893TIP3    H266095   2.500   5.384  14.101  1.0615 -1.8227 -0.0489
14894TIP3   OH266096   6.456   0.432  12.175 -0.2146 -0.2886  0.0092
14894TIP3    H166097   6.406   0.477  12.243  2.2394 -0.5008  2.1061
14894TIP3    H266098   6.493   0.355  12.219  2.2095  0.0579 -1.2425
14895TIP3   OH266099   3.164   5.429  13.746 -0.8693  0.2048  0.3285
14895TIP3    H166100   3.090   5.418  13.806 -1.3309 -1.5186 -0.4736
14895TIP3    H266101   3.145   5.369  13.674  0.7134  0.6453 -0.5058
14896TIP3   OH266102   4.386   4.291  15.456  0.6500 -0.4245  0.0091
14896TIP3    H166103   4.400   4.385  15.451  0.4919 -0.2141  2.3916
14896TIP3    H266104   4.471   4.256  15.487  0.4119 -0.9272  0.1123
14897TIP3   OH266105   3.955   4.501  13.554  0.2471 -0.2245 -0.0259
14897TIP3    H166106   3.873   4.466  13.518 -0.8953  0.7011  1.5238
14897TIP3    H266107   3.991   4.429  13.605  0.2029 -0.5127 -0.3940
14898TIP3   OH266108   5.785   1.071   5.445 -0.3647  0.3701  0.2490
14898TIP3    H166109   5.789   1.142   5.381 -0.7230 -1.6239 -2.1620
14898TIP3    H266110   5.700   1.030   5.430 -0.7406  0.2184  2.5244
14899TIP3   OH266111   0.686   1.271   5.904  0.0129  0.4955 -0.0699
14899TIP3    H166112   0.591   1.262   5.914  0.2401 -1.1819  0.9069
14899TIP3    H266113   0.713   1.192   5.858  1.0780  0.4219  0.6512
14900TIP3   OH266114   3.954   4.417  12.881  0.0036 -0.7111 -0.2366
14900TIP3    H166115   3.975   4.471  12.957  2.4867 -1.8581 -0.0378
14900TIP3    H266116   3.885   4.467  12.835 -0.7587  0.5404  2.1055
14901TIP3   OH266117   2.296   6.207  13.360  0.0913 -0.2463  0.1303
14901TIP3    H166118   2.347   6.240  13.434  1.4979  0.3537 -1.0654
14901TIP3    H266119   2.310   6.272  13.290 -2.5673  0.1277 -0.1803
14902TIP3   OH266120   6.075   0.992  13.970 -0.2755  0.3967  0.2294
14902TIP3    H166121   6.039   1.074  14.004 -1.4536 -0.0319  0.0522
14902TIP3    H266122   6.122   0.954  14.044  0.4464  1.3256  0.2544
14903TIP3   OH266123   6.630   3.478  15.384  0.2064  0.1894 -0.1352
14903TIP3    H166124   6.625   3.502  15.291 -2.9380 -2.5084 -0.8512
14903TIP3    H266125   6.576   3.543  15.428 -1.3502 -0.6018 -0.8057
14904TIP3   OH266126   4.615   6.314   2.901  0.2490  0.1365 -0.2878
14904TIP3    H166127   4.705   6.343   2.886 -0.0323  1.6775  0.7095
14904TIP3    H266128   4.565   6.355   2.831  0.0684  0.9129  0.2741
14905TIP3   OH266129   3.180   3.536   1.883  0.1096  0.2911  0.2411
14905TIP3    H166130   3.212   3.446   1.892  0.3084  0.4285  0.9821
14905TIP3    H266131   3.191   3.556   1.790 -1.2614 -0.9334 -0.2151
14906TIP3   OH266132   3.732   4.324  13.033 -0.6350  0.5624 -0.0242
14906TIP3    H166133   3.652   4.295  12.989 -0.4923 -2.8482  1.6461
14906TIP3    H266134   3.802   4.305  12.971 -0.8475  0.1157 -0.1337
14907TIP3   OH266135   3.443   3.933   1.829  0.1819 -0.2464  0.1028
14907TIP3    H166136   3.526   3.981   1.829 -0.9646  1.8528  0.4777
14907TIP3    H266137   3.416   3.931   1.738  0.5927 -0.8831 -0.0123
14908TIP3   OH266138   4.817   5.133  14.334 -0.6693 -0.1278 -0.1262
14908TIP3    H166139   4.908   5.119  14.309 -0.6776 -0.7771  0.1842
14908TIP3    H266140   4.792   5.053  14.380 -0.4182  1.3019  2.6967
14909TIP3   OH266141   6.787   4.598  11.946  0.2478  0.1929  0.6020
14909TIP3    H166142   6.819   4.577  11.858  0.7264 -0.0067  0.8240
14909TIP3    H266143   6.703   4.553  11.952  0.1692  0.2824  0.2149
14910TIP3   OH266144   0.327   5.052   3.323 -0.7926  0.3998  0.3442
14910TIP3    H166145   0.404   5.062   3.380  0.0658  2.4127 -1.0677
14910TIP3    H266146   0.360   5.006   3.246 -0.7824  1.8820 -0.5761
14911TIP3   OH266147   2.829   2.425   1.577  0.0393  0.2786  0.0898
14911TIP3    H166148   2.892   2.357   1.555 -0.1559 -0.3418  1.3355
14911TIP3    H266149   2.785   2.393   1.656 -0.0584  1.8567  0.7270
14912TIP3   OH266150   1.924   3.227   0.176  0.0069 -0.2276  0.7599
14912TIP3    H166151   1.960   3.138   0.172  0.6411  0.0436  0.2325
14912TIP3    H266152   1.924   3.248   0.269 -0.0805 -0.7546  0.8851
14913TIP3   OH266153   2.088   3.801  17.001 -0.0508 -0.2309  0.3392
14913TIP3    H166154   2.069   3.749  17.079  1.1180 -1.1939  0.0285
14913TIP3    H266155   2.036   3.761  16.932  0.9216 -1.1085  0.0793
14914TIP3   OH266156   5.203   0.587  12.560 -0.1833  0.0334  0.2524
14914TIP3    H166157   5.162   0.674  12.559 -0.2244  0.0170 -0.6584
14914TIP3    H266158   5.132   0.528  12.535  0.1917 -0.0876 -0.5492
14915TIP3   OH266159   2.717   6.708   1.769  0.4109 -0.0685  0.0398
14915TIP3    H166160   2.625   6.682   1.771  0.0776  1.0875  1.7077
14915TIP3    H266161   2.724   6.778   1.834  2.4304  0.0259 -0.2075
14916TIP3   OH266162   0.637   3.090  16.548  0.0156  0.2985  0.0332
14916TIP3    H166163   0.569   3.157  16.538  0.0243  0.0368 -2.3447
14916TIP3    H266164   0.715   3.131  16.511 -0.0554 -1.0924 -1.7723
14917TIP3   OH266165   6.081   3.357  12.448  0.4588  0.1299  0.3509
14917TIP3    H166166   6.168   3.323  12.427  1.2246  2.1018  0.1836
14917TIP3    H266167   6.035   3.359  12.364  0.5828  0.0165  0.2783
14918TIP3   OH266168   1.124   3.829  13.369 -0.5324 -0.1623  0.4348
14918TIP3    H166169   1.208   3.850  13.326 -0.3617 -1.1419  0.2577
14918TIP3    H266170   1.145   3.828  13.462 -0.5207  0.3272  0.4393
14919TIP3   OH266171   6.500   3.791  12.292 -0.0565 -0.4252 -0.1509
14919TIP3    H166172   6.594   3.801  12.275  0.2428  0.1610  1.5719
14919TIP3    H266173   6.489   3.698  12.311  0.3203 -0.3794  0.3180
14920TIP3   OH266174   3.742   1.276   4.787 -0.0581 -0.0647 -0.1828
14920TIP3    H166175   3.756   1.360   4.831 -2.2873 -0.2009  0.9274
14920TIP3    H266176   3.647   1.266   4.785  0.0573 -1.2535 -2.8935
14921TIP3   OH266177   4.599   1.360  14.480 -1.0741 -0.3588 -0.0844
14921TIP3    H166178   4.597   1.280  14.532 -1.0098 -0.7775 -0.7111
14921TIP3    H266179   4.564   1.333  14.394  1.5924 -0.4323 -1.2559
14922TIP3   OH266180   2.125   0.409   1.447  0.7956 -0.5296  0.0133
14922TIP3    H166181   2.094   0.345   1.382 -1.3358  0.0299  0.3787
14922TIP3    H266182   2.130   0.361   1.529 -2.0191 -0.0979  0.5633
14923TIP3   OH266183   4.884   5.781   1.687  0.0025  0.6610  0.1126
14923TIP3    H166184   4.909   5.850   1.748  1.9562  1.0510 -1.0236
14923TIP3    H266185   4.839   5.827   1.615  0.4344  0.6348 -0.1797
14924TIP3   OH266186   4.257   5.602   2.122  0.3630 -0.8918 -0.4357
14924TIP3    H166187   4.262   5.652   2.203  0.2184 -0.3748 -0.7397
14924TIP3    H266188   4.209   5.659   2.061 -0.4013 -1.6692 -0.5922
14925TIP3   OH266189   5.710   2.946   1.385 -0.3575  0.2814 -0.6855
14925TIP3    H166190   5.747   3.032   1.367  0.0254  0.1352 -0.5919
14925TIP3    H266191   5.762   2.885   1.333 -0.1680  0.0257 -0.2078
14926TIP3   OH266192   2.975   5.853  12.289  0.1525 -0.1949 -0.2373
14926TIP3    H166193   2.915   5.885  12.356 -0.6731 -1.6302 -0.2595
14926TIP3    H266194   2.953   5.760  12.279  2.6816 -0.9164  0.0892
14927TIP3   OH266195   4.207   4.004   1.453  0.5103 -0.3848  0.1155
14927TIP3    H166196   4.158   4.085   1.454  0.6666 -0.2892  1.4384
14927TIP3    H266197   4.298   4.031   1.441  0.7184 -0.2481  1.8179
14928TIP3   OH266198   2.769   1.038  16.139 -0.6442  0.5101 -0.2262
14928TIP3    H166199   2.778   0.950  16.176  0.0068  0.1228 -1.2751
14928TIP3    H266200   2.859   1.068  16.125 -0.8641  1.2781 -0.0508
14929TIP3   OH266201   4.294   5.798   6.088 -0.2171  0.4707 -0.5740
14929TIP3    H166202   4.244   5.855   6.145 -1.0821 -1.3843  0.6361
14929TIP3    H266203   4.384   5.828   6.096 -0.6796  1.8041 -0.1999
14930TIP3   OH266204   0.333   0.327   2.787 -0.1380 -0.2216  0.4159
14930TIP3    H166205   0.277   0.364   2.856 -0.4821 -1.7234  0.9774
14930TIP3    H266206   0.284   0.343   2.706  0.2772  1.5677  0.4841
14931TIP3   OH266207   1.722   1.489  14.077  0.3141 -0.6044 -0.0482
14931TIP3    H166208   1.741   1.583  14.081 -0.5239 -0.4547  0.8490
14931TIP3    H266209   1.782   1.455  14.011  1.4292  0.3683  0.4294
14932TIP3   OH266210   3.047   4.482   1.935  0.1642  0.3629 -0.4641
14932TIP3    H166211   3.084   4.395   1.924  1.0146  0.8446 -1.6785
14932TIP3    H266212   2.960   4.477   1.896 -0.1742 -0.1762  0.3334
14933TIP3   OH266213   6.375   5.850   1.145 -0.2532  0.7443  0.2810
14933TIP3    H166214   6.329   5.794   1.081  2.0720 -0.4050 -0.5073
14933TIP3    H266215   6.465   5.854   1.113  1.0561  0.1237  3.4537
14934TIP3   OH266216   1.708   0.321   2.453  0.3871 -0.7007  0.1665
14934TIP3    H166217   1.693   0.247   2.393  0.0728 -0.5233  0.0257
14934TIP3    H266218   1.698   0.283   2.540 -0.0332 -0.7689  0.0895
14935TIP3   OH266219   5.031   3.381  15.064 -0.4363  0.3140  0.2855
14935TIP3    H166220   4.940   3.368  15.038 -0.5963 -0.4733  1.2051
14935TIP3    H266221   5.034   3.470  15.099 -0.5058  0.8995 -1.1254
14936TIP3   OH266222   4.899   4.507  14.946  0.2822  0.1034  0.2217
14936TIP3    H166223   4.901   4.412  14.933  0.4681  0.0033  0.8989
14936TIP3    H266224   4.969   4.523  15.009  0.4065  0.7226 -0.0756
14937TIP3   OH266225   1.782   4.281   5.612  0.2647 -0.2284  0.5443
14937TIP3    H166226   1.865   4.272   5.657 -0.2253 -0.3544  1.4440
14937TIP3    H266227   1.802   4.332   5.534  0.9144  1.0669  1.5334
14938TIP3   OH266228   4.928   4.139   0.712  0.1793  0.3196 -0.7705
14938TIP3    H166229   4.947   4.057   0.667  0.2048  0.9255 -1.9084
14938TIP3    H266230   4.917   4.203   0.641 -3.2958  0.6177 -0.1712
14939TIP3   OH266231   5.929   0.177   1.104 -0.6990  0.6468  0.1855
14939TIP3    H166232   5.883   0.248   1.059 -0.9284 -0.6673 -1.7733
14939TIP3    H266233   5.860   0.128   1.148 -1.0697 -0.4250 -1.4848
14940TIP3   OH266234   3.693   1.802  13.988 -0.1216  0.5025 -0.2750
14940TIP3    H166235   3.775   1.834  13.950  0.5681  0.5629  1.1544
14940TIP3    H266236   3.711   1.799  14.082 -1.3763 -0.6382 -0.0432
14941TIP3   OH266237   4.891   3.160   0.994  0.3514  0.2163  0.2019
14941TIP3    H166238   4.970   3.108   0.983  0.3709 -0.0997  1.6788
14941TIP3    H266239   4.861   3.177   0.905  1.2435 -0.9430 -0.3388
14942TIP3   OH266240   4.373   2.802  14.410 -0.4512  0.0156  0.3852
14942TIP3    H166241   4.337   2.841  14.331 -0.1044 -2.0908 -0.9032
14942TIP3    H266242   4.299   2.760  14.453 -0.4178  0.0409  0.4674
14943TIP3   OH266243   0.351   5.927  13.201  0.8277  0.5911  0.0845
14943TIP3    H166244   0.281   5.864  13.220 -0.3772  2.0929  0.9246
14943TIP3    H266245   0.430   5.874  13.191 -0.3775 -1.1432 -0.6197
14944TIP3   OH266246   2.889   0.826  15.633  0.0975 -0.0918 -0.2036
14944TIP3    H166247   2.840   0.841  15.713  0.6289  0.1000  0.0932
14944TIP3    H266248   2.897   0.731  15.627 -1.8766 -0.2482 -1.2295
14945TIP3   OH266249   4.798   4.214  11.612 -0.1007  0.2301 -0.3853
14945TIP3    H166250   4.860   4.208  11.539 -1.6707 -1.2315 -1.6988
14945TIP3    H266251   4.766   4.304  11.609  0.8399  0.5630 -0.6454
14946TIP3   OH266252   6.777   5.978   1.794  0.3331 -0.0053  0.5057
14946TIP3    H166253   6.758   6.071   1.804 -2.2626 -0.1918 -1.6735
14946TIP3    H266254   6.855   5.975   1.740 -0.4886  0.9485 -0.7782
14947TIP3   OH266255   5.498   0.165   2.232  0.4839 -0.8602 -0.5064
14947TIP3    H166256   5.411   0.163   2.191 -0.8545 -0.2158  2.1061
14947TIP3    H266257   5.554   0.117   2.170 -1.6086 -0.9721 -2.4675
14948TIP3   OH266258   2.478   2.181   4.492  0.3983  0.3959 -0.1972
14948TIP3    H166259   2.435   2.147   4.413 -2.2922 -0.3986  1.4819
14948TIP3    H266260   2.457   2.274   4.493  0.4395  0.4081 -0.3944
14949TIP3   OH266261   6.570   3.216   6.553  0.5153 -0.3975  0.1559
14949TIP3    H166262   6.539   3.298   6.591  2.9076  0.0991  1.2354
14949TIP3    H266263   6.566   3.153   6.625 -1.1819 -1.2571 -0.6319
14950TIP3   OH266264   5.185   2.869   1.280  0.1069  0.3108  0.7245
14950TIP3    H166265   5.280   2.885   1.284  0.0355  0.7825  0.6259
14950TIP3    H266266   5.150   2.922   1.351 -0.0610 -0.0566  0.9159
14951TIP3   OH266267   6.725   1.853  14.905  0.5280 -0.0071  0.2819
14951TIP3    H166268   6.718   1.937  14.860  1.0798  0.1229  0.4300
14951TIP3    H266269   6.708   1.873  14.997 -1.1393 -0.3603  0.0765
14952TIP3   OH266270   0.254   0.107   0.955  0.6339  0.1592 -0.1028
14952TIP3    H166271   0.329   0.088   1.011  0.1320 -0.1153  0.4838
14952TIP3    H266272   0.238   0.026   0.907  0.7163  0.2218 -0.2371
14953TIP3   OH266273   0.400   6.502   2.313  0.0103 -0.7164  0.5853
14953TIP3    H166274   0.477   6.501   2.369  1.1768  0.8635 -0.8612
14953TIP3    H266275   0.403   6.588   2.270 -2.2074 -0.8735 -0.0052
14954TIP3   OH266276   2.422   4.599  13.141  0.0537  0.1744  0.3569
14954TIP3    H166277   2.357   4.668  13.155  2.0153  2.4093 -0.8267
14954TIP3    H266278   2.506   4.645  13.146  1.4174 -1.9540 -1.4895
14955TIP3   OH266279   4.245   0.899  14.869  0.0079  0.2041 -1.0934
14955TIP3    H166280   4.206   0.826  14.917  1.5011 -1.3057 -2.0593
14955TIP3    H266281   4.234   0.974  14.927  0.4019 -1.2254  0.9488
14956TIP3   OH266282   5.817   2.718   3.372 -0.1434 -0.4248  0.4925
14956TIP3    H166283   5.730   2.693   3.342  0.1887 -1.6318  0.4982
14956TIP3    H266284   5.814   2.814   3.375 -1.1863 -0.4067 -0.3328
14957TIP3   OH266285   6.035   6.149   1.811  0.0991 -0.3706  0.4257
14957TIP3    H166286   6.128   6.158   1.831  0.1937 -1.3689  0.4716
14957TIP3    H266287   6.002   6.086   1.875 -0.0372 -2.0432 -1.2154
14958TIP3   OH266288   4.383   2.203   4.178 -0.0612 -0.4910  0.0122
14958TIP3    H166289   4.293   2.233   4.164 -0.0992  0.0861  1.3491
14958TIP3    H266290   4.434   2.251   4.113 -0.8587 -1.9092 -1.7752
14959TIP3   OH266291   5.269   0.748  12.221  0.4698  0.3649 -0.2052
14959TIP3    H166292   5.301   0.811  12.156  0.6247 -1.5224 -2.1022
14959TIP3    H266293   5.313   0.666  12.197  0.1862 -0.5074  2.0716
14960TIP3   OH266294   2.361   2.571  11.257 -0.1464 -0.2395  0.2487
14960TIP3    H166295   2.398   2.649  11.298 -2.0347  0.5338  0.5805
14960TIP3    H266296   2.421   2.551  11.185  1.1444  0.6444  1.0215
14961TIP3   OH266297   5.140   3.687  14.952  0.0077  0.4333  0.1066
14961TIP3    H166298   5.047   3.676  14.933  0.3787 -0.6341 -1.2206
14961TIP3    H266299   5.160   3.616  15.013  0.2911 -0.4101 -0.9301
14962TIP3   OH266300   3.466   6.216   1.488  0.0658  0.2905  0.1962
14962TIP3    H166301   3.450   6.124   1.468  1.0207  0.1005  0.2619
14962TIP3    H266302   3.436   6.227   1.578  0.0654  0.0059  0.2319
14963TIP3   OH266303   4.042   2.001  14.947  0.1762 -0.3611 -0.5470
14963TIP3    H166304   4.084   1.923  14.910 -1.1736 -2.1956  1.5398
14963TIP3    H266305   4.113   2.049  14.989  0.5549 -2.5882  1.5819
14964TIP3   OH266306   5.877   1.824  11.431 -0.5018 -0.0139 -0.5575
14964TIP3    H166307   5.929   1.777  11.365  0.5168 -3.0197  2.0799
14964TIP3    H266308   5.940   1.843  11.501 -2.0570  0.4169  0.7754
14965TIP3   OH266309   2.126   1.720   1.002  0.7374 -0.2888  0.1247
14965TIP3    H166310   2.182   1.684   0.933  1.2077  0.1366  0.2805
14965TIP3    H266311   2.038   1.721   0.964  1.0853  0.4791 -0.6826
14966TIP3   OH266312   0.027   4.594   2.189  0.2653  0.3051  0.1682
14966TIP3    H166313  -0.060   4.563   2.163  0.1138 -0.4780  1.4974
14966TIP3    H266314   0.056   4.530   2.255  1.9666  0.3995 -0.4405
14967TIP3   OH266315   5.386   4.680  13.683 -1.0339 -0.6779  0.0643
14967TIP3    H166316   5.474   4.682  13.646 -1.0240  0.8322  0.1153
14967TIP3    H266317   5.330   4.649  13.612 -0.7299  0.2906 -0.6209
14968TIP3   OH266318   2.627   6.119   4.575 -0.0992 -0.2804  0.7458
14968TIP3    H166319   2.623   6.170   4.656 -0.6551  0.6104  0.1734
14968TIP3    H266320   2.561   6.159   4.518  0.0097 -1.1420 -0.0131
14969TIP3   OH266321   2.147   3.784  11.372 -0.4859  0.0560  0.8066
14969TIP3    H166322   2.146   3.879  11.371  1.7568  0.1142 -0.1161
14969TIP3    H266323   2.238   3.760  11.388 -0.2321 -1.8942 -2.5351
14970TIP3   OH266324   6.293   4.270   4.173  0.1137 -0.0049 -0.8833
14970TIP3    H166325   6.276   4.178   4.191 -0.4032 -0.2619 -2.4928
14970TIP3    H266326   6.216   4.299   4.122  1.0381  0.8392 -1.8477
14971TIP3   OH266327   1.024   5.723  13.945 -0.3600  0.2324  0.3228
14971TIP3    H166328   0.956   5.752  14.007  0.1418  1.0049  0.5245
14971TIP3    H266329   1.061   5.645  13.985 -1.0036 -0.0998  0.2951
14972TIP3   OH266330   2.806   5.100  11.294 -0.0415 -0.1999 -0.7043
14972TIP3    H166331   2.761   5.156  11.230  1.2324  1.9142  0.1445
14972TIP3    H266332   2.860   5.041  11.240 -0.3701  0.3067 -1.6175
14973TIP3   OH266333   0.864   2.727  15.984 -0.3524 -0.1896 -0.6295
14973TIP3    H166334   0.775   2.700  16.005 -0.4963 -0.6934 -1.8157
14973TIP3    H266335   0.919   2.658  16.021 -0.3857  0.4672  0.7076
14974TIP3   OH266336   4.128   1.316   3.252  0.3937 -0.4796 -0.3780
14974TIP3    H166337   4.163   1.311   3.341 -1.5645  0.3070  0.4964
14974TIP3    H266338   4.068   1.242   3.245  0.8775 -0.8127 -1.2358
14975TIP3   OH266339   0.525   3.241   3.125 -0.5911 -0.6658 -0.1555
14975TIP3    H166340   0.470   3.216   3.199 -1.2824 -1.6546 -0.9668
14975TIP3    H266341   0.615   3.233   3.158 -0.8984  0.3696  0.9975
14976TIP3   OH266342   3.550   5.459  15.614  0.1486  0.3078 -0.3918
14976TIP3    H166343   3.507   5.387  15.660  2.0219 -0.5573  0.1009
14976TIP3    H266344   3.479   5.518  15.590 -1.2623 -0.9269  0.5842
14977TIP3   OH266345   2.705   0.703  14.023  0.2416  0.2622 -0.5190
14977TIP3    H166346   2.740   0.615  14.034  1.5541  0.6447 -1.3666
14977TIP3    H266347   2.612   0.690  14.006 -0.3116 -0.7505  2.7240
14978TIP3   OH266348   1.190   1.325  11.082  0.2774  0.6738 -0.2380
14978TIP3    H166349   1.165   1.397  11.140 -0.2702  1.3591 -1.2803
14978TIP3    H266350   1.127   1.330  11.010 -1.2135 -2.2864  0.7416
14979TIP3   OH266351   5.301   4.845  10.850 -0.1050  0.0889 -0.7461
14979TIP3    H166352   5.332   4.905  10.782  3.0341 -0.2888  0.2060
14979TIP3    H266353   5.261   4.773  10.801  3.1615 -0.7935 -2.4565
14980TIP3   OH266354   1.685   2.948   4.936 -0.6407 -0.7914  0.0202
14980TIP3    H166355   1.688   2.972   4.844 -3.0750  0.1106  0.0914
14980TIP3    H266356   1.676   2.853   4.936 -0.2043 -0.8390 -0.6498
14981TIP3   OH266357   4.980   2.654  14.993 -0.4904 -0.2217  0.4174
14981TIP3    H166358   5.004   2.746  14.994 -0.1299 -0.3091  0.0950
14981TIP3    H266359   4.909   2.647  15.057 -0.5326  0.2789  0.4285
14982TIP3   OH266360   5.475   1.568  11.743  0.4024  0.1187 -0.0055
14982TIP3    H166361   5.490   1.480  11.779 -0.2668 -0.0794 -0.1887
14982TIP3    H266362   5.389   1.592  11.776  0.5426  0.6711 -0.0377
14983TIP3   OH266363   4.184   0.257   6.390  0.0682 -0.4022 -0.3204
14983TIP3    H166364   4.125   0.229   6.460  0.0246 -0.1401 -0.2506
14983TIP3    H266365   4.174   0.352   6.387  2.0614 -0.0815  1.1479
14984TIP3   OH266366   1.004   3.002  11.020 -0.2525 -0.2955  0.6711
14984TIP3    H166367   0.971   3.037  10.937  0.1477 -2.7378 -0.6348
14984TIP3    H266368   0.929   3.004  11.079 -1.0877 -0.2920 -0.3706
14985TIP3   OH266369   5.074   0.845  13.406  0.0911 -0.2365 -0.8477
14985TIP3    H166370   5.153   0.863  13.457  0.5231  1.4799 -1.9999
14985TIP3    H266371   5.105   0.798  13.329 -0.1147 -0.2077 -0.9493
14986TIP3   OH266372   5.483   5.484  13.222 -0.1041 -0.4668 -0.1101
14986TIP3    H166373   5.409   5.522  13.269 -1.2966 -2.0024 -0.6591
14986TIP3    H266374   5.443   5.439  13.148  1.6798  1.7679 -2.6111
14987TIP3   OH266375   4.972   2.003   5.050  1.3398  0.4158  0.4103
14987TIP3    H166376   4.910   2.004   5.123  1.6495  0.1088  0.6791
14987TIP3    H266377   4.921   1.972   4.975  1.5404 -1.3539  0.9730
14988TIP3   OH266378   4.100   5.002   4.570  0.2228 -0.1927 -0.0474
14988TIP3    H166379   4.113   5.094   4.589  2.1340 -0.5963  0.8760
14988TIP3    H266380   4.176   4.977   4.518  0.8891 -1.6964  1.5385
14989TIP3   OH266381   4.513   1.216  16.049  0.2688  0.5302  0.7651
14989TIP3    H166382   4.472   1.269  15.981  0.0445 -0.2764  0.2485
14989TIP3    H266383   4.532   1.277  16.120 -2.9185  0.7826  1.5717
14990TIP3   OH266384   3.299   2.285   5.528  0.1554 -0.2449  0.1617
14990TIP3    H166385   3.255   2.238   5.457  2.0787  0.1179 -1.3531
14990TIP3    H266386   3.231   2.296   5.595 -0.8839 -3.4832 -0.1841
14991TIP3   OH266387   5.536   2.464   4.163  0.8038  0.6043  0.7410
14991TIP3    H166388   5.592   2.510   4.100  1.1256  0.4640  0.9179
14991TIP3    H266389   5.453   2.512   4.161 -0.3451 -1.2256 -2.1115
14992TIP3   OH266390   1.143   5.460  15.396 -0.0519  0.2668  0.2083
14992TIP3    H166391   1.198   5.417  15.462  0.5084  1.0818  0.2879
14992TIP3    H266392   1.192   5.539  15.372 -0.2380 -0.0189 -1.1952
14993TIP3   OH266393   4.984   5.411   6.298  0.0338  0.1993  0.0468
14993TIP3    H166394   4.929   5.358   6.357  0.7565 -0.7285 -0.0923
14993TIP3    H266395   5.073   5.383   6.317  0.4588  1.5590  0.1364
14994TIP3   OH266396   1.506   5.565  16.781 -0.1598 -0.9429 -0.4249
14994TIP3    H166397   1.505   5.629  16.710 -1.0376 -0.4847 -0.0111
14994TIP3    H266398   1.433   5.590  16.837  1.0420 -0.7358  1.1420
14995TIP3   OH266399   2.761   4.832   1.347  0.2064 -0.1657  0.3509
14995TIP3    H166400   2.838   4.779   1.332  0.3989  0.0216  0.6667
14995TIP3    H266401   2.726   4.802   1.430 -0.3546 -0.5961 -0.0298
14996TIP3   OH266402   3.463   4.196  16.255 -0.0970 -0.6169 -0.0411
14996TIP3    H166403   3.432   4.143  16.329 -0.9655  0.7418  0.6201
14996TIP3    H266404   3.449   4.286  16.284 -1.2595 -0.0423 -2.1925
14997TIP3   OH266405   3.228   0.349  11.731  0.2837  0.2759 -0.2426
14997TIP3    H166406   3.281   0.427  11.716  0.7230  0.0422  0.0535
14997TIP3    H266407   3.269   0.282  11.677 -0.4206  0.3761 -0.9220
14998TIP3   OH266408   1.765   5.607  15.973  0.0988 -0.4411  0.1401
14998TIP3    H166409   1.753   5.558  15.892 -1.2661  0.2808 -0.1260
14998TIP3    H266410   1.711   5.560  16.037 -1.3492  0.7371 -0.1545
14999TIP3   OH266411   2.082   2.390   6.047  0.2627  0.2474  0.2493
14999TIP3    H166412   2.029   2.318   6.082  0.3747 -0.7811 -1.5326
14999TIP3    H266413   2.062   2.465   6.103  0.1326 -1.1588  2.1672
15000TIP3   OH266414   1.716   5.728  14.659 -0.5513 -0.0461 -0.3350
15000TIP3    H166415   1.640   5.764  14.613 -2.2790 -0.2981  2.0997
15000TIP3    H266416   1.747   5.800  14.713  0.4760 -0.1941 -0.7101
15001TIP3   OH266417   2.260   5.573  15.062  0.7310  0.1425 -0.0714
15001TIP3    H166418   2.329   5.572  15.128  0.4210  0.2537  0.2629
15001TIP3    H266419   2.263   5.487  15.021  1.1225  0.1787 -0.1153
15002TIP3   OH266420   2.826   5.936   4.564 -0.1803 -0.3489  0.6417
15002TIP3    H166421   2.903   5.987   4.535  1.3063 -1.8597  1.7405
15002TIP3    H266422   2.757   6.001   4.575  0.8198  1.0296 -0.7225
15003TIP3   OH266423   5.603   5.833   0.021  0.4307  0.0385 -0.0909
15003TIP3    H166424   5.533   5.884  -0.020 -0.6044 -1.2036  0.0584
15003TIP3    H266425   5.610   5.755  -0.034  0.4341 -0.6936  0.9248
15004TIP3   OH266426   3.911   5.147   4.168  0.2397  0.3523 -0.2130
15004TIP3    H166427   3.878   5.111   4.250 -0.4292  1.9428  0.2559
15004TIP3    H266428   3.851   5.113   4.102  0.0146  0.0775  0.1282
15005TIP3   OH266429   3.405   4.647  17.143 -0.2716 -0.4125  0.1337
15005TIP3    H166430   3.482   4.693  17.176 -0.5148  0.7710 -0.9086
15005TIP3    H266431   3.356   4.713  17.094 -1.0420 -1.5744 -0.7195
15006TIP3   OH266432   3.400   3.423  13.267  0.2140  0.0950 -0.3191
15006TIP3    H166433   3.342   3.396  13.196 -1.1898  0.4272  0.6788
15006TIP3    H266434   3.366   3.379  13.345  0.6769  1.0989  0.4741
15007TIP3   OH266435   4.618   3.280   2.698  0.3794 -0.5588  0.2788
15007TIP3    H166436   4.598   3.189   2.678  2.1401 -0.8235 -0.4025
15007TIP3    H266437   4.588   3.329   2.621  1.3897 -0.8325 -0.3023
15008TIP3   OH266438   6.229   4.183   1.453  0.2212  0.8281 -0.2394
15008TIP3    H166439   6.151   4.180   1.398  0.0850 -1.0981 -0.0045
15008TIP3    H266440   6.301   4.159   1.394  0.1834 -0.4435  0.2035
15009TIP3   OH266441   4.505   5.325   6.001  0.6183  0.5016  0.0537
15009TIP3    H166442   4.524   5.251   6.059  1.2272  0.5203 -0.1187
15009TIP3    H266443   4.449   5.382   6.054  0.0515 -0.1281  0.1496
15010TIP3   OH266444   5.826   5.878   5.777  0.2248  0.1614 -0.4657
15010TIP3    H166445   5.892   5.927   5.728  1.3200  0.8719  1.6027
15010TIP3    H266446   5.867   5.793   5.792 -0.0750 -0.0268 -0.7138
15011TIP3   OH266447   6.150   6.297  11.047 -0.5726  0.2942  0.8888
15011TIP3    H166448   6.236   6.285  11.007 -0.8629  0.2198  0.2817
15011TIP3    H266449   6.096   6.226  11.011 -0.5887 -0.3616  2.1350
15012TIP3   OH266450   5.728   1.258  15.778  0.1633  0.0355  0.0221
15012TIP3    H166451   5.760   1.167  15.776 -0.2036 -0.1041  0.4273
15012TIP3    H266452   5.665   1.260  15.850  0.6026  0.7583  0.3986
15013TIP3   OH266453   5.124   0.146   1.468 -0.2566  0.0616  0.1146
15013TIP3    H166454   5.099   0.054   1.479 -0.2812 -0.0657 -0.9254
15013TIP3    H266455   5.150   0.174   1.556 -0.6898 -0.8029  0.5359
15014TIP3   OH266456   2.048   1.509   4.346  0.2343 -0.0270 -0.3927
15014TIP3    H166457   2.019   1.574   4.410  1.8068  1.9094 -1.5263
15014TIP3    H266458   2.054   1.427   4.396 -0.0523  1.0835  1.5476
15015TIP3   OH266459   4.803   5.068  11.436  0.3448  0.3486  0.9261
15015TIP3    H166460   4.803   4.973  11.452  1.0063  0.4804  1.7743
15015TIP3    H266461   4.769   5.077  11.347  3.7180 -0.9774 -0.7002
15016TIP3   OH266462   1.681   0.380  12.366 -0.2381  0.3692 -0.1935
15016TIP3    H166463   1.720   0.392  12.453 -1.8570  0.5379  0.5591
15016TIP3    H266464   1.701   0.289  12.344 -1.0320 -0.1478  1.0512
15017TIP3   OH266465   3.544   4.519  11.297 -0.5912 -0.0867  0.1843
15017TIP3    H166466   3.587   4.523  11.211 -0.4731 -0.7386  0.2126
15017TIP3    H266467   3.496   4.602  11.303 -1.4508 -0.4706 -0.9637
15018TIP3   OH266468   3.780   1.112   3.244  0.0338 -0.0312 -0.2301
15018TIP3    H166469   3.799   1.120   3.338 -1.6506  2.7146 -0.0335
15018TIP3    H266470   3.747   1.022   3.235  1.4051 -0.7944  1.5161
15019TIP3   OH266471   1.131   2.372   5.746 -0.0189 -0.4423  0.8443
15019TIP3    H166472   1.109   2.335   5.831  0.7312  1.4809  1.9436
15019TIP3    H266473   1.049   2.370   5.697 -0.3028 -2.2355  1.3115
15020TIP3   OH266474   5.647   0.791  16.999 -0.2343 -0.7522 -0.6111
15020TIP3    H166475   5.594   0.836  16.934 -1.9251 -1.8741 -0.0593
15020TIP3    H266476   5.658   0.703  16.965 -0.0355 -0.9757  0.0166
15021TIP3   OH266477   0.975   5.231  14.601 -0.3726 -0.3282  0.0765
15021TIP3    H166478   1.051   5.177  14.621  0.4804  0.9234  0.3649
15021TIP3    H266479   0.924   5.232  14.681 -0.1099 -0.2762  0.2455
15022TIP3   OH266480   5.267   0.767  14.167  0.1568 -0.3789  0.3537
15022TIP3    H166481   5.224   0.799  14.246 -0.8382 -1.6294  0.3396
15022TIP3    H266482   5.204   0.784  14.097 -1.0287 -3.4586  0.5225
15023TIP3   OH266483   4.840   6.504  13.517  0.3286  0.1928 -0.8325
15023TIP3    H166484   4.845   6.475  13.609 -0.0002  0.1446 -0.8290
15023TIP3    H266485   4.753   6.478  13.489  0.2465  0.6583 -1.0111
15024TIP3   OH266486   2.284   5.974   0.434 -0.2165  0.2344 -0.1616
15024TIP3    H166487   2.284   5.898   0.376  0.4059 -1.0665  1.4837
15024TIP3    H266488   2.376   5.995   0.447 -0.3283  0.2557  0.6599
15025TIP3   OH266489   3.906   2.230   1.632  0.3169  0.2062 -0.4094
15025TIP3    H166490   3.832   2.170   1.624 -0.0633  0.7518 -1.1718
15025TIP3    H266491   3.868   2.313   1.660  0.9625 -0.1328  1.6616
15026TIP3   OH266492   3.051   2.555   1.684 -0.4594 -0.0867  0.2144
15026TIP3    H166493   3.053   2.649   1.663  0.8233 -0.3443 -1.0306
15026TIP3    H266494   2.978   2.521   1.632  0.5526 -0.1321 -1.2604
15027TIP3   OH266495   2.812   5.995   1.601  0.4873  0.2679 -0.0517
15027TIP3    H166496   2.861   5.981   1.520  0.5251 -1.3964  0.2223
15027TIP3    H266497   2.754   6.068   1.581  1.5941  0.9140 -1.0627
15028TIP3   OH266498   3.670   1.077   4.545  0.0256  0.1068  0.6414
15028TIP3    H166499   3.649   1.058   4.636  0.5561  0.6881  0.8895
15028TIP3    H266500   3.726   1.154   4.548 -0.5024  0.5454 -0.2219
15029TIP3   OH266501   4.603   4.832   0.430 -0.1790 -0.9531 -0.5057
15029TIP3    H166502   4.650   4.880   0.361  0.3227 -1.0410 -0.2292
15029TIP3    H266503   4.563   4.900   0.484 -1.9387 -0.8842 -1.7798
15030TIP3   OH266504   2.239   4.767   0.632 -0.6037  0.3071 -0.2712
15030TIP3    H166505   2.275   4.837   0.578 -0.7775 -0.2445 -1.1265
15030TIP3    H266506   2.295   4.692   0.615 -1.1438 -0.0955 -0.3282
15031TIP3   OH266507   4.086   5.072  13.040 -0.3697 -0.9131 -0.4969
15031TIP3    H166508   4.082   5.022  13.122 -1.0153 -1.8853 -1.0958
15031TIP3    H266509   4.087   5.005  12.971 -1.6024 -0.1174 -1.3404
15032TIP3   OH266510   4.429   2.566  12.213 -0.5657  0.1467 -0.2239
15032TIP3    H166511   4.505   2.550  12.268  0.3886 -1.1040 -1.8356
15032TIP3    H266512   4.355   2.563  12.274  0.6130  1.0847  1.3203
15033TIP3   OH266513   5.484   3.536  16.939  0.0228  0.5051  0.2541
15033TIP3    H166514   5.410   3.551  16.998 -1.1875 -1.3241 -0.6738
15033TIP3    H266515   5.503   3.621  16.902 -2.5759  0.8494 -0.4959
15034TIP3   OH266516   1.831   1.526  14.838  0.6372 -0.2321  0.2191
15034TIP3    H166517   1.774   1.452  14.816  0.1814 -0.3103  1.5866
15034TIP3    H266518   1.863   1.507  14.926 -0.2338  1.6361  0.9945
15035TIP3   OH266519   4.872   0.943  11.310  0.5050 -0.2895  0.3852
15035TIP3    H166520   4.807   0.931  11.241  1.7520 -0.9665 -0.7207
15035TIP3    H266521   4.837   0.894  11.385 -0.5242 -0.1501  0.0124
15036TIP3   OH266522   2.412   2.033   6.514 -0.0974 -0.0371  0.3156
15036TIP3    H166523   2.457   1.983   6.582 -2.0953  1.2281  2.7179
15036TIP3    H266524   2.321   2.039   6.545 -0.4085  3.2238 -0.8971
15037TIP3   OH266525   1.240   0.552   0.604 -0.2831  0.1018 -0.1155
15037TIP3    H166526   1.145   0.566   0.604 -0.5713 -1.6070  0.9333
15037TIP3    H266527   1.270   0.585   0.689 -0.7904 -3.8350  1.8412
15038TIP3   OH266528   5.181   5.900  14.160 -0.3992  0.0781 -0.2732
15038TIP3    H166529   5.087   5.903  14.141 -0.5945  3.3671  0.5565
15038TIP3    H266530   5.187   5.916  14.254  0.9842  1.3912 -0.5389
15039TIP3   OH266531   3.010   2.332  16.830 -0.0659 -0.4997 -0.0233
15039TIP3    H166532   3.020   2.250  16.878  0.4288 -0.2433  0.3141
15039TIP3    H266533   3.092   2.379  16.845 -0.2425 -0.0555 -0.4302
15040TIP3   OH266534   1.108   2.866   4.483 -0.4600  0.3267 -0.7025
15040TIP3    H166535   1.053   2.876   4.405 -2.0183  0.2195  0.3461
15040TIP3    H266536   1.075   2.788   4.527  0.1195  0.6147  0.2883
15041TIP3   OH266537   0.338   4.973   0.704  0.1669 -0.3575 -0.6625
15041TIP3    H166538   0.289   4.894   0.680  0.6919 -0.6024 -0.9500
15041TIP3    H266539   0.304   5.041   0.648 -0.3104 -0.3732 -0.3951
15042TIP3   OH266540   1.674   3.894   5.855  0.1305  0.3524 -0.0427
15042TIP3    H166541   1.754   3.871   5.809  0.7333  1.3999  0.4365
15042TIP3    H266542   1.604   3.880   5.791  0.5191 -1.8987 -0.0278
15043TIP3   OH266543   2.020   0.815  13.818  0.6097  0.0824  0.3612
15043TIP3    H166544   1.974   0.749  13.870 -0.9725 -0.4149 -1.5511
15043TIP3    H266545   1.952   0.877  13.792  1.5706  0.9548 -0.1567
15044TIP3   OH266546   1.604   2.259  10.936  0.7126  0.1224  0.3466
15044TIP3    H166547   1.520   2.223  10.909 -1.1233  2.3306  2.5166
15044TIP3    H266548   1.630   2.205  11.010  1.1343 -0.4522 -0.2137
15045TIP3   OH266549   5.156   3.292   2.227 -0.3943  0.5365 -0.3264
15045TIP3    H166550   5.073   3.246   2.237  0.6726 -1.2655  0.7591
15045TIP3    H266551   5.195   3.290   2.314  1.0197  0.8888 -0.9234
15046TIP3   OH266552   2.709   0.443  12.770 -0.2274  0.2197 -0.3432
15046TIP3    H166553   2.788   0.413  12.814  0.2297  1.5040 -0.2447
15046TIP3    H266554   2.638   0.390  12.807  0.3094  0.4735  1.0918
15047TIP3   OH266555   5.583   0.697   0.520 -0.1774  0.0790 -0.5365
15047TIP3    H166556   5.530   0.776   0.523  1.7587  1.4921 -1.3155
15047TIP3    H266557   5.563   0.651   0.601 -0.8235  1.7244  0.2773
15048TIP3   OH266558   1.159   6.453   2.726  0.2866 -0.1133  0.0984
15048TIP3    H166559   1.079   6.416   2.763  0.2861 -0.8634 -0.6295
15048TIP3    H266560   1.137   6.468   2.634  0.9644 -0.2490 -0.0841
15049TIP3   OH266561   1.721   0.276   4.248  0.0962  0.3487 -0.1159
15049TIP3    H166562   1.674   0.239   4.174  1.4619  2.0765 -1.9291
15049TIP3    H266563   1.652   0.305   4.308 -1.0283 -0.8166 -0.7985
15050TIP3   OH266564   5.660   6.766  15.657  0.0637 -0.5987  0.6918
15050TIP3    H166565   5.722   6.778  15.729  1.9868  1.6912 -1.1715
15050TIP3    H266566   5.715   6.748  15.581 -1.4701  1.7538 -1.1037
15051TIP3   OH266567   3.469   4.900   2.206 -0.1061 -0.1941  0.1787
15051TIP3    H166568   3.412   4.824   2.197  1.2325 -1.1724 -0.4527
15051TIP3    H266569   3.477   4.914   2.300 -1.8218  0.3467  0.2802
15052TIP3   OH266570   6.461   1.654  16.305  1.0481 -0.1341 -0.1615
15052TIP3    H166571   6.441   1.608  16.224  1.9990  0.9418 -1.0327
15052TIP3    H266572   6.384   1.709  16.320  1.2450  0.3360 -0.8303
15053TIP3   OH266573   5.326   0.088   4.974 -0.0361 -0.2003  0.1637
15053TIP3    H166574   5.256   0.048   5.025  1.1742 -0.6232  1.5773
15053TIP3    H266575   5.349   0.021   4.909 -0.7937 -0.1348 -0.1792
15054TIP3   OH266576   4.160   5.727   4.738  0.2519  0.6253 -0.2973
15054TIP3    H166577   4.088   5.699   4.682  0.1176  1.0189 -0.3277
15054TIP3    H266578   4.122   5.796   4.793 -0.0398 -0.7900  1.3577
15055TIP3   OH266579   0.097   2.814  17.039  0.3003 -0.1679 -0.0709
15055TIP3    H166580   0.090   2.765  16.957 -0.5814  0.7228 -0.5658
15055TIP3    H266581   0.179   2.863  17.031 -0.5471  1.1541 -1.1770
15056TIP3   OH266582   4.128   4.919  16.951  0.2589  0.1603  0.0127
15056TIP3    H166583   4.185   4.856  16.995 -0.3426  0.4159  1.2282
15056TIP3    H266584   4.054   4.930  17.012 -1.2383 -0.3715 -1.6046
15057TIP3   OH266585   2.109   4.768   6.623 -0.1295  0.2038  0.0694
15057TIP3    H166586   2.034   4.808   6.578  0.4507  0.8152 -0.3919
15057TIP3    H266587   2.086   4.771   6.716 -1.3683 -1.1106 -0.1726
15058TIP3   OH266588   5.384   3.549  14.336  0.0759 -0.4980 -0.4588
15058TIP3    H166589   5.340   3.525  14.254  0.5270  0.2876 -0.9419
15058TIP3    H266590   5.378   3.470  14.390  0.0922 -1.1464 -1.3816
15059TIP3   OH266591   6.172   4.018  13.708 -0.4183  0.0680  0.5399
15059TIP3    H166592   6.242   4.071  13.669  0.5715 -1.3146  0.3302
15059TIP3    H266593   6.210   3.930  13.713 -1.8517 -0.5342  1.2487
15060TIP3   OH266594   5.123   3.038   5.084  0.0303  0.4376  0.1965
15060TIP3    H166595   5.070   3.018   5.007 -0.2649  0.0372  0.4987
15060TIP3    H266596   5.085   3.119   5.119  0.3633  0.7881 -0.2576
15061TIP3   OH266597   3.832   5.403   4.229  0.3793  0.0779 -0.3117
15061TIP3    H166598   3.863   5.468   4.166 -1.7393 -0.1594 -1.6703
15061TIP3    H266599   3.870   5.320   4.198 -0.1991  0.0508 -0.9642
15062TIP3   OH266600   0.222   1.430  12.950 -0.3074 -0.7023  0.1722
15062TIP3    H166601   0.253   1.421  13.040  1.6342 -0.6557 -0.4467
15062TIP3    H266602   0.170   1.511  12.951  1.2233  0.3254  0.9030
15063TIP3   OH266603   5.555   2.175  15.045  0.1170  0.3629 -0.0832
15063TIP3    H166604   5.472   2.195  15.003 -0.5848  0.4105  1.2574
15063TIP3    H266605   5.598   2.114  14.985 -0.5217  0.9563 -1.1747
15064TIP3   OH266606   2.341   0.111   3.800 -0.0068  0.3481 -0.0457
15064TIP3    H166607   2.259   0.064   3.813  0.7790 -1.0502  0.0896
15064TIP3    H266608   2.359   0.104   3.706  0.5818 -0.4720  0.1165
15065TIP3   OH266609   6.651   5.176  11.278 -1.0969 -0.5209 -0.3295
15065TIP3    H166610   6.698   5.259  11.269 -0.1696 -1.0720 -0.7140
15065TIP3    H266611   6.674   5.144  11.365 -0.6307 -0.8611 -0.5737
15066TIP3   OH266612   4.658   0.040   6.163 -0.4573  0.3321  0.1806
15066TIP3    H166613   4.593   0.096   6.205  0.7347  1.5060  0.5481
15066TIP3    H266614   4.673   0.081   6.078  1.1766  1.2510  0.8562
15067TIP3   OH266615   4.058   1.860   5.132  0.4060 -0.2396  0.1439
15067TIP3    H166616   3.985   1.922   5.142  0.4271 -0.4127  1.5554
15067TIP3    H266617   4.135   1.911   5.156  0.6234 -0.3510 -0.3196
15068TIP3   OH266618   5.571   5.375  14.004  0.4201 -0.3205 -0.2309
15068TIP3    H166619   5.624   5.345  14.078  1.2654  0.4423 -0.5104
15068TIP3    H266620   5.564   5.470  14.015 -1.3203 -0.4360  0.0610
15069TIP3   OH266621   2.845   1.718  13.081 -0.1093  0.1871  0.0605
15069TIP3    H166622   2.767   1.664  13.093 -0.3211  0.1159 -1.4927
15069TIP3    H266623   2.814   1.796  13.036  0.6495  0.3441 -0.2099
15070TIP3   OH266624   6.763   3.971   5.074 -0.0717  0.5141 -0.5127
15070TIP3    H166625   6.714   3.911   5.131 -0.5921 -0.0994 -1.5593
15070TIP3    H266626   6.834   3.918   5.039  0.6580  1.0814  0.0943
15071TIP3   OH266627   4.404   6.348  11.711 -0.6828  0.5058 -0.0415
15071TIP3    H166628   4.419   6.284  11.642  0.1297  0.8421 -0.1915
15071TIP3    H266629   4.423   6.302  11.792 -0.9695  0.3020 -0.0929
15072TIP3   OH266630   3.147   2.191   3.412 -0.3066  0.1465 -0.1749
15072TIP3    H166631   3.221   2.141   3.376 -0.7588 -0.8905  0.2718
15072TIP3    H266632   3.187   2.269   3.449  0.4180  0.1963 -1.0112
15073TIP3   OH266633   5.474   2.039   0.785  0.3168 -0.1339 -0.2297
15073TIP3    H166634   5.550   1.980   0.789  0.6609  0.2635 -0.9033
15073TIP3    H266635   5.424   2.018   0.865  1.2248 -0.2641  0.3145
15074TIP3   OH266636   6.610   4.691   3.481 -0.3078 -0.1477 -0.0392
15074TIP3    H166637   6.641   4.655   3.398  1.0987  0.3901  0.2264
15074TIP3    H266638   6.552   4.763   3.455  0.7956  0.5716 -0.5735
15075TIP3   OH266639   1.039   0.516  13.415 -0.2400 -0.1995  0.1414
15075TIP3    H166640   1.039   0.594  13.360 -1.5328 -0.0565  0.2984
15075TIP3    H266641   1.099   0.456  13.372  0.4167  0.7058 -0.2360
15076TIP3   OH266642   0.940   2.887  14.424  0.2893  0.0065  0.2821
15076TIP3    H166643   1.000   2.943  14.473  0.3397  0.0777  0.1371
15076TIP3    H266644   0.858   2.891  14.473 -0.0457  1.1073 -0.3567
15077TIP3   OH266645   0.259   5.413  17.146 -0.2695  0.3527  0.4169
15077TIP3    H166646   0.300   5.430  17.231  2.3826  1.9325 -1.0330
15077TIP3    H266647   0.299   5.331  17.117  1.5344  1.5485 -0.7013
15078TIP3   OH266648   0.277   0.550   6.862 -0.7590  0.0062  0.0919
15078TIP3    H166649   0.340   0.509   6.803  0.0579  0.9136  0.3042
15078TIP3    H266650   0.302   0.643   6.864 -1.9950  0.3624  0.3223
15079TIP3   OH266651   4.655   6.407  15.321 -0.4028 -0.0149  0.1070
15079TIP3    H166652   4.605   6.451  15.389  0.1349  1.0747 -0.1904
15079TIP3    H266653   4.627   6.315  15.326 -1.7924  0.4217  0.4973
15080TIP3   OH266654   5.552   2.912  14.831 -0.5006  0.2256  0.2814
15080TIP3    H166655   5.494   2.889  14.903  0.2553  0.0428  0.8424
15080TIP3    H266656   5.585   2.999  14.854 -1.1501  0.6803 -0.4313
15081TIP3   OH266657   1.626   0.794   0.146  0.2948  0.3497 -0.0431
15081TIP3    H166658   1.531   0.785   0.149  0.2978  0.0705 -0.6809
15081TIP3    H266659   1.656   0.716   0.099  0.7306  1.0790 -1.0229
15082TIP3   OH266660   4.569   5.977   4.717  0.2588 -0.1398 -0.0579
15082TIP3    H166661   4.615   5.894   4.702  0.6857  0.1367 -0.2979
15082TIP3    H266662   4.500   5.978   4.651 -1.2167 -1.3542  1.3961
15083TIP3   OH266663   6.038   5.789  14.529  0.1263  0.2970  0.1632
15083TIP3    H166664   6.051   5.755  14.618 -1.2514  1.9655  1.0652
15083TIP3    H266665   5.968   5.854  14.538  1.3845  2.0621 -1.7565
15084TIP3   OH266666   6.228   5.299   1.889 -0.1466  0.3262 -0.2398
15084TIP3    H166667   6.177   5.313   1.969 -0.7437  0.7132 -0.6822
15084TIP3    H266668   6.222   5.205   1.873 -1.0107  0.4139 -0.4720
15085TIP3   OH266669   0.797   3.421   3.933 -0.8776  0.4804 -0.6945
15085TIP3    H166670   0.836   3.353   3.878 -1.6410 -0.9870  0.4974
15085TIP3    H266671   0.871   3.458   3.981 -0.7137 -1.4443  0.6568
15086TIP3   OH266672   1.035   0.418   3.519 -0.2001 -0.4812 -0.1985
15086TIP3    H166673   1.083   0.407   3.601  0.7618 -0.1435 -0.6939
15086TIP3    H266674   1.075   0.355   3.460  1.6863  1.7227 -1.4732
15087TIP3   OH266675   3.851   1.836  11.440 -0.2029  0.0487  0.6428
15087TIP3    H166676   3.847   1.863  11.348  0.2261  0.7178  0.8126
15087TIP3    H266677   3.945   1.837  11.460 -0.2349 -0.8506  0.8721
15088TIP3   OH266678   0.146   2.763   0.429  0.6098 -0.1853  0.0955
15088TIP3    H166679   0.159   2.785   0.337 -0.3727 -0.6132 -0.1571
15088TIP3    H266680   0.119   2.846   0.469  1.9483  0.2232  0.2100
15089TIP3   OH266681   5.163   4.516   2.499  0.3010 -0.1279  0.1248
15089TIP3    H166682   5.177   4.574   2.425  0.5018 -2.0505 -1.4167
15089TIP3    H266683   5.163   4.574   2.576  2.8958  1.6197 -1.0576
15090TIP3   OH266684   0.018   0.293  11.416 -0.2499  0.0157 -0.2603
15090TIP3    H166685   0.101   0.334  11.440  0.4708  0.3496 -2.9113
15090TIP3    H266686   0.025   0.279  11.321 -2.8340 -0.8641 -0.4107
15091TIP3   OH266687   4.819   3.317   4.927 -0.5893  0.1983 -0.5362
15091TIP3    H166688   4.883   3.340   4.860  0.2424  0.0091  0.1803
15091TIP3    H266689   4.734   3.341   4.889 -0.0805  0.6073 -1.4252
15092TIP3   OH266690   1.452   1.613   1.391  0.5087  0.3168 -0.5325
15092TIP3    H166691   1.460   1.520   1.371 -1.2840  0.2218 -0.9831
15092TIP3    H266692   1.358   1.626   1.407  1.1082  1.3684  3.0344
15093TIP3   OH266693   4.873   6.674  12.587 -0.0835 -0.0488  0.0540
15093TIP3    H166694   4.933   6.744  12.561 -0.7774  0.7487  0.5476
15093TIP3    H266695   4.881   6.669  12.682 -0.5754 -0.1252  0.0962
15094TIP3   OH266696   2.593   1.306  16.419 -0.3257  0.1631  0.4147
15094TIP3    H166697   2.637   1.326  16.502 -1.1387 -0.1614  0.9326
15094TIP3    H266698   2.510   1.353  16.424  0.2082  1.2917 -0.8345
15095TIP3   OH266699   5.237   5.293   3.210 -0.0410 -0.2936 -0.3213
15095TIP3    H166700   5.145   5.283   3.232  0.0149  1.1589  0.6485
15095TIP3    H266701   5.241   5.368   3.151  0.5844 -0.0107  0.0709
15096TIP3   OH266702   2.444   6.484   2.694 -0.1381 -0.3317  0.3744
15096TIP3    H166703   2.490   6.545   2.752 -0.6512 -1.4207  2.0026
15096TIP3    H266704   2.428   6.534   2.614  0.9772  1.0978  1.0066
15097TIP3   OH266705   5.327   2.868  14.474 -0.4339  1.2428  0.4525
15097TIP3    H166706   5.358   2.956  14.496  1.6540  0.5812  0.4004
15097TIP3    H266707   5.386   2.838  14.405 -0.4978 -0.5471  1.1102
15098TIP3   OH266708   2.801   5.541   4.886 -0.1190 -0.3615 -0.1016
15098TIP3    H166709   2.895   5.561   4.877 -0.3782  0.4960 -1.0578
15098TIP3    H266710   2.786   5.539   4.980  0.6533  0.5504  0.0522
15099TIP3   OH266711   6.743   1.566   4.914 -0.3845 -0.5081 -0.3597
15099TIP3    H166712   6.759   1.572   5.009  0.9658  0.2105 -0.6138
15099TIP3    H266713   6.705   1.479   4.902  0.9845 -1.2832  0.6374
15100TIP3   OH266714   0.605   3.649  15.580 -0.1646 -0.1330 -0.7916
15100TIP3    H166715   0.684   3.597  15.563  0.0331 -1.0254  2.2721
15100TIP3    H266716   0.533   3.589  15.565 -0.0465 -0.5929  0.4379
15101TIP3   OH266717   6.770   2.829   2.584  0.1409 -0.4842 -0.1243
15101TIP3    H166718   6.698   2.871   2.630 -0.5724  0.5752 -2.1295
15101TIP3    H266719   6.731   2.752   2.542  0.7102 -1.2435  0.6950
15102TIP3   OH266720   2.910   2.342   0.929 -0.0339 -0.0857 -0.1813
15102TIP3    H166721   2.908   2.282   1.003 -0.8550 -2.0300 -1.6701
15102TIP3    H266722   2.903   2.285   0.852 -0.1278  1.8889 -1.7203
15103TIP3   OH266723   5.601   4.241   5.537  0.1784 -0.3989  0.3725
15103TIP3    H166724   5.625   4.160   5.492 -1.6100 -1.0346  0.4856
15103TIP3    H266725   5.566   4.212   5.621  0.1988  0.5498  0.7213
15104TIP3   OH266726   5.579   3.120  11.178  0.1637  0.2182 -0.1492
15104TIP3    H166727   5.530   3.167  11.246 -0.8334 -1.1243  0.0994
15104TIP3    H266728   5.565   3.171  11.098 -1.4893 -0.0303 -0.0365
15105TIP3   OH266729   5.897   3.164  12.807 -0.3224  0.3933  0.0355
15105TIP3    H166730   5.967   3.128  12.753  0.5967  0.5249  1.1043
15105TIP3    H266731   5.941   3.196  12.885 -1.4534  1.4203  0.2852
15106TIP3   OH266732   3.330   4.806   1.036 -0.2352 -0.4528 -0.1502
15106TIP3    H166733   3.344   4.781   1.127 -1.1572  0.6986  0.3389
15106TIP3    H266734   3.417   4.835   1.006 -0.2695  0.9117  0.9515
15107TIP3   OH266735   0.831   2.685   1.862  0.5864 -0.2544 -0.3370
15107TIP3    H166736   0.799   2.767   1.826  1.8220  0.3263 -0.1571
15107TIP3    H266737   0.860   2.707   1.951  0.7653 -0.9271 -0.2205
15108TIP3   OH266738   3.350   5.152   4.628  0.2418  0.1865 -0.2180
15108TIP3    H166739   3.318   5.216   4.564 -0.9917  0.2134  0.3824
15108TIP3    H266740   3.277   5.092   4.640  0.1429  0.6056  1.6944
15109TIP3   OH266741   0.312   4.951  13.861 -0.1527  0.2078  0.2511
15109TIP3    H166742   0.391   4.994  13.827 -0.0524  0.4155  0.7276
15109TIP3    H266743   0.280   5.012  13.929 -0.8255  0.2153 -0.0670
15110TIP3   OH266744   2.199   0.783   0.168  0.1198  0.4220 -0.5664
15110TIP3    H166745   2.162   0.697   0.189  0.8645  0.1349 -0.3988
15110TIP3    H266746   2.192   0.832   0.250  0.9555  0.0536 -0.2634
15111TIP3   OH266747   3.894   4.218   5.556  0.1191 -0.3736 -0.1862
15111TIP3    H166748   3.862   4.161   5.487 -1.3785  0.0171  0.1518
15111TIP3    H266749   3.869   4.306   5.528  0.2096 -0.1368  0.4552
15112TIP3   OH266750   3.821   2.439  10.554  0.8380  0.0938 -0.0352
15112TIP3    H166751   3.820   2.525  10.596  0.1585  0.7517 -1.3532
15112TIP3    H266752   3.914   2.421  10.538  1.0336  0.2707  0.8456
15113TIP3   OH266753   1.821   3.351   3.738 -0.0172  0.2168  0.0373
15113TIP3    H166754   1.904   3.393   3.761 -0.6776  1.8142 -0.3562
15113TIP3    H266755   1.820   3.271   3.790  1.3167  0.6667  0.8229
15114TIP3   OH266756   5.904   1.466  12.269  0.2788  0.6212  0.5485
15114TIP3    H166757   5.923   1.477  12.176 -0.2148  0.1893  0.3932
15114TIP3    H266758   5.857   1.383  12.274  0.5674  0.4955  1.2217
15115TIP3   OH266759   3.327   0.328   5.228  0.0880 -0.0267  0.1335
15115TIP3    H166760   3.293   0.379   5.302 -2.1125 -0.4288 -0.5388
15115TIP3    H266761   3.395   0.273   5.267  0.2912  1.1289  1.4840
15116TIP3   OH266762   1.670   2.316   2.800 -0.0688 -0.0965 -0.0346
15116TIP3    H166763   1.692   2.296   2.891 -0.9203  0.8106  0.3898
15116TIP3    H266764   1.597   2.257   2.779 -1.8068  1.6478  0.8408
15117TIP3   OH266765   6.534   0.292  12.501 -0.0187 -0.5110  0.3704
15117TIP3    H166766   6.553   0.385  12.502  1.1698 -0.7031 -1.1494
15117TIP3    H266767   6.614   0.251  12.534 -0.2068 -1.0281  0.1951
15118TIP3   OH266768   6.543   3.333  16.452 -0.0643 -0.6694  0.2381
15118TIP3    H166769   6.545   3.247  16.494  1.7319 -0.3047  1.0332
15118TIP3    H266770   6.635   3.355  16.439 -0.3341  1.9823  1.9252
15119TIP3   OH266771   6.589   1.599   1.362  0.0878 -0.1719  0.3465
15119TIP3    H166772   6.580   1.603   1.457  1.4195 -1.6654  0.5821
15119TIP3    H266773   6.666   1.653   1.343 -0.4587  0.5109  0.0609
15120TIP3   OH266774   6.592   0.204   5.787 -0.0567  0.7320  0.3040
15120TIP3    H166775   6.604   0.278   5.847 -1.4380  2.1862 -1.1282
15120TIP3    H266776   6.498   0.200   5.771  0.1888 -0.0809 -1.1879
15121TIP3   OH266777   4.931   4.313   5.704 -0.2182  0.5971  0.2677
15121TIP3    H166778   5.025   4.291   5.704 -0.5478 -0.9349  0.6427
15121TIP3    H266779   4.928   4.404   5.673  1.4130  0.7975  0.5831
15122TIP3   OH266780   0.154   5.524   2.752  0.1677 -0.2960 -0.5944
15122TIP3    H166781   0.239   5.558   2.781  1.4291 -1.8249 -2.3208
15122TIP3    H266782   0.149   5.548   2.660 -2.2503  1.5419 -0.0924
15123TIP3   OH266783   2.996   5.733   1.946 -0.1113 -0.2780  0.1667
15123TIP3    H166784   3.075   5.775   1.912 -0.7634  1.1095  0.2782
15123TIP3    H266785   3.007   5.640   1.925  0.5979  0.1798 -1.6485
15124TIP3   OH266786   4.563   1.848  14.564 -0.0611  0.1342 -0.2603
15124TIP3    H166787   4.474   1.813  14.557  0.3024 -0.5679 -1.7652
15124TIP3    H266788   4.617   1.773  14.585  0.4264  0.1944 -1.2547
15125TIP3   OH266789   4.825   0.923  13.444  0.1756  0.4415 -0.5592
15125TIP3    H166790   4.917   0.899  13.446 -0.0092 -0.3581  1.8658
15125TIP3    H266791   4.822   1.002  13.390  1.7515 -1.2306 -3.3912
15126TIP3   OH266792   0.532   4.093  16.250 -0.6559  0.1635  0.1192
15126TIP3    H166793   0.606   4.148  16.223 -0.8148 -0.1630 -1.0451
15126TIP3    H266794   0.518   4.115  16.342 -0.5071  1.8147 -0.2237
15127TIP3   OH266795   2.861   4.228   2.192 -0.1603  0.0765  0.0738
15127TIP3    H166796   2.952   4.207   2.175 -0.9518 -2.0549 -2.0298
15127TIP3    H266797   2.845   4.199   2.282  0.3714 -2.9948 -0.7256
15128TIP3   OH266798   5.026   0.015   4.750  0.3470 -0.2535  0.0591
15128TIP3    H166799   5.060   0.093   4.794 -0.5033  0.1528  0.0086
15128TIP3    H266800   5.100  -0.019   4.700  0.5699  0.8562 -0.3910
15129TIP3   OH266801   2.073   5.000  16.413 -1.1217 -0.1138  0.0543
15129TIP3    H166802   2.048   5.092  16.400  0.7346  0.4545  0.1942
15129TIP3    H266803   2.107   4.972  16.328 -2.1530 -0.8654 -0.1343
15130TIP3   OH266804   1.270   0.110   4.614 -0.1702 -0.2625  0.1178
15130TIP3    H166805   1.233   0.039   4.561 -0.2706 -0.9732  1.0972
15130TIP3    H266806   1.212   0.117   4.689 -0.9375  1.8250 -0.6094
15131TIP3   OH266807   6.578   2.500   0.343 -0.1871 -0.1589 -0.3145
15131TIP3    H166808   6.657   2.446   0.356  0.7577  0.4677 -2.7584
15131TIP3    H266809   6.601   2.585   0.379 -0.2608 -0.3443  0.1759
15132TIP3   OH266810   0.381   4.576   5.091 -0.0792 -0.1570  0.3692
15132TIP3    H166811   0.291   4.541   5.092 -0.1413 -0.0699 -0.6879
15132TIP3    H266812   0.414   4.561   5.179 -1.2982  0.2314  0.9157
15133TIP3   OH266813   2.178   4.698   3.910  0.0351  0.2656  0.1347
15133TIP3    H166814   2.252   4.757   3.925  0.6285 -0.3445 -0.3517
15133TIP3    H266815   2.210   4.612   3.937 -1.8214  0.5362  4.0066
15134TIP3   OH266816   1.648   1.336   4.126  0.3336 -0.0773 -0.0781
15134TIP3    H166817   1.616   1.364   4.040 -2.9393  0.1080  1.0923
15134TIP3    H266818   1.605   1.252   4.142 -0.7740  0.8507  2.1984
15135TIP3   OH266819   0.016   0.368   0.507  0.3318 -0.0855  0.3163
15135TIP3    H166820  -0.048   0.351   0.438  0.7826  2.1985 -0.7481
15135TIP3    H266821  -0.001   0.458   0.534  2.6780  0.3760  0.4368
15136TIP3   OH266822   6.776   1.589  14.271  0.2890 -0.1818 -0.5230
15136TIP3    H166823   6.802   1.667  14.223  1.0503 -0.4090 -0.4896
15136TIP3    H266824   6.825   1.518  14.229 -0.4275 -0.6508 -0.5831
15137TIP3   OH266825   3.327   1.389   3.548 -0.0758  0.4445  0.2289
15137TIP3    H166826   3.286   1.317   3.500  1.5436 -0.0394 -0.4688
15137TIP3    H266827   3.311   1.466   3.493  1.7750 -0.1053 -1.1837
15138TIP3   OH266828   4.024   0.419   3.780  0.4047  0.0715  0.0944
15138TIP3    H166829   3.931   0.397   3.785  0.1400  0.0820 -3.0314
15138TIP3    H266830   4.042   0.465   3.862 -2.4285  0.3798  0.6468
15139TIP3   OH266831   4.884   2.541  11.083 -0.0685 -0.2293 -0.0680
15139TIP3    H166832   4.870   2.590  11.165  0.1869  0.1624 -0.2494
15139TIP3    H266833   4.976   2.557  11.062  0.3928 -1.8655  0.5565
15140TIP3   OH266834   4.251   4.918  11.855  0.2011  0.2310  0.5489
15140TIP3    H166835   4.308   4.849  11.887  0.9832  0.7911  0.3979
15140TIP3    H266836   4.229   4.892  11.766 -3.9603 -2.6061  2.0664
15141TIP3   OH266837   1.424   6.219  13.557  0.0577  0.2371 -0.1155
15141TIP3    H166838   1.339   6.252  13.585  0.3724 -0.3844  1.6554
15141TIP3    H266839   1.409   6.126  13.539  0.2883  0.2027 -0.1329
15142TIP3   OH266840   3.152   2.458  15.368  0.7146  0.1433 -0.2381
15142TIP3    H166841   3.068   2.486  15.331  0.5916  0.1771  0.0639
15142TIP3    H266842   3.128   2.399  15.440  0.9334  0.5439  0.1750
15143TIP3   OH266843   0.782   1.686   4.240  0.8967  0.0606  0.1809
15143TIP3    H166844   0.836   1.616   4.204 -0.2795 -0.0210 -1.5656
15143TIP3    H266845   0.703   1.685   4.186  0.4174  2.0903  0.7587
15144TIP3   OH266846   0.524   2.657   3.667  0.5528  0.3416 -0.4240
15144TIP3    H166847   0.548   2.750   3.673  0.0748  0.3741  1.4832
15144TIP3    H266848   0.470   2.641   3.744  0.0225 -1.3618 -1.1127
15145TIP3   OH266849   3.910   3.829   0.780 -0.5547 -0.2083 -0.0810
15145TIP3    H166850   3.953   3.915   0.784 -1.3358  0.2877 -1.5542
15145TIP3    H266851   3.924   3.801   0.690 -1.1117 -1.2136  0.1409
15146TIP3   OH266852   0.503   1.555  11.751  0.6243  0.1260 -0.2463
15146TIP3    H166853   0.542   1.596  11.828  0.2110  0.2624 -0.1066
15146TIP3    H266854   0.561   1.580  11.679  1.0249 -0.0213  0.0190
15147TIP3   OH266855   2.309   0.774   2.136 -0.6505 -0.7146  0.2044
15147TIP3    H166856   2.333   0.861   2.103  0.1825 -1.2039 -0.5086
15147TIP3    H266857   2.305   0.785   2.231  0.9910 -0.2537  0.2468
15148TIP3   OH266858   1.749   0.422  15.746  0.1774  0.1084  0.2452
15148TIP3    H166859   1.741   0.504  15.795  0.1781 -0.2426  0.8440
15148TIP3    H266860   1.836   0.389  15.769  0.2067 -0.0247 -0.0520
15149TIP3   OH266861   3.615   2.145  13.818 -0.3027  0.0792 -0.4491
15149TIP3    H166862   3.560   2.138  13.739  0.5360  1.4340 -1.1952
15149TIP3    H266863   3.701   2.170  13.784 -0.6348  3.8242  1.0538
15150TIP3   OH266864   1.843   3.731  15.366  0.4306 -0.3119 -0.3366
15150TIP3    H166865   1.872   3.817  15.338 -1.1815 -0.2749 -2.0876
15150TIP3    H266866   1.842   3.736  15.461  0.8409  1.4220 -0.3888
15151TIP3   OH266867   4.672   4.586   2.597  0.5524 -0.4732 -0.1761
15151TIP3    H166868   4.685   4.677   2.622 -0.0339 -0.8103  1.4721
15151TIP3    H266869   4.663   4.588   2.501 -4.2173  1.8839  0.0192
15152TIP3   OH266870   5.607   2.859   5.089  0.3179 -0.5399 -0.6370
15152TIP3    H166871   5.615   2.774   5.047  0.6217 -0.0977 -1.4914
15152TIP3    H266872   5.560   2.913   5.026 -0.0315 -0.1159 -0.0300
15153TIP3   OH266873   1.309   3.145  14.385  0.1487  0.2611  0.2539
15153TIP3    H166874   1.248   3.192  14.328 -0.7588 -0.3779  0.6814
15153TIP3    H266875   1.346   3.076  14.330  0.3290  0.5054  0.0615
15154TIP3   OH266876   0.921   2.056  13.070 -0.6047  0.0635 -0.2940
15154TIP3    H166877   0.873   2.040  13.152  0.6442 -1.3265  0.2174
15154TIP3    H266878   0.928   1.969  13.030  0.7749  0.3640 -0.7434
15155TIP3   OH266879   3.629   5.404  15.338  0.5279  0.2663 -0.3104
15155TIP3    H166880   3.585   5.445  15.413  0.5588  1.7919 -1.0920
15155TIP3    H266881   3.650   5.315  15.369 -2.1656 -0.2023  0.4269
15156TIP3   OH266882   0.351   3.134   3.359 -0.0250 -0.8787 -0.4254
15156TIP3    H166883   0.327   3.220   3.394 -0.2526 -0.4987 -1.4861
15156TIP3    H266884   0.359   3.078   3.436  2.6726  0.6852  0.5496
15157TIP3   OH266885   4.899   5.061  13.457  0.1505 -0.4477 -0.4132
15157TIP3    H166886   4.917   5.059  13.551  0.0716  0.8240 -0.3541
15157TIP3    H266887   4.977   5.025  13.416 -0.3506 -2.3265  0.1815
15158TIP3   OH266888   2.596   5.284  15.331 -0.1202 -0.1144 -0.2074
15158TIP3    H166889   2.683   5.260  15.362  0.1966 -1.1444 -1.7744
15158TIP3    H266890   2.539   5.216  15.367  0.2924 -1.4831 -2.0000
15159TIP3   OH266891   2.018   2.398   5.522 -0.2699 -0.0106  0.1434
15159TIP3    H166892   2.050   2.429   5.437  1.4956 -0.1951  0.7035
15159TIP3    H266893   2.060   2.313   5.535 -0.5623 -0.0181  1.1784
15160TIP3   OH266894   0.738   1.348  11.670  0.0856  0.3416  0.1627
15160TIP3    H166895   0.811   1.407  11.686 -0.0530  0.6763 -0.4345
15160TIP3    H266896   0.689   1.349  11.752 -0.3573  1.6877 -0.0912
15161TIP3   OH266897   4.985   5.621   4.341 -0.0780  0.2750  0.0227
15161TIP3    H166898   4.996   5.568   4.262  1.9912  0.2603  0.2522
15161TIP3    H266899   4.947   5.562   4.405  2.4578 -1.1307  0.3717
15162TIP3   OH266900   6.038   0.451   2.127 -0.9330  0.0874 -0.2902
15162TIP3    H166901   6.120   0.482   2.166  0.1349 -2.5543 -0.2137
15162TIP3    H266902   5.985   0.529   2.117  1.1062  1.7155  0.8555
15163TIP3   OH266903   3.774   5.134  16.192  0.0584 -0.3345  0.0520
15163TIP3    H166904   3.869   5.142  16.192  0.4746 -3.5158  2.1538
15163TIP3    H266905   3.749   5.138  16.100  2.4259 -1.1238 -0.6990
15164TIP3   OH266906   4.008   0.738   2.783 -0.1440  0.0523 -0.2563
15164TIP3    H166907   4.058   0.819   2.773 -1.7257  1.1050 -0.0166
15164TIP3    H266908   4.062   0.671   2.742  2.1033  0.8424  1.2013
15165TIP3   OH266909   0.560   3.498  16.767 -0.1700  0.3532 -0.2039
15165TIP3    H166910   0.625   3.504  16.697  0.4398 -0.7890  0.2395
15165TIP3    H266911   0.487   3.449  16.728 -0.3711  0.8008 -0.4037
15166TIP3   OH266912   0.858   5.686  14.382  0.0957  0.0085 -0.0325
15166TIP3    H166913   0.838   5.677  14.476 -1.9691 -1.0675 -0.5193
15166TIP3    H266914   0.926   5.753  14.379 -0.7426  1.0657  2.1424
15167TIP3   OH266915   3.037   4.102  11.985  0.4236  0.2101  0.5483
15167TIP3    H166916   3.048   4.064  11.897  0.4287  1.1411  0.1378
15167TIP3    H266917   3.126   4.121  12.014  0.4895 -0.8712  1.1260
15168TIP3   OH266918   4.435   5.717  14.310 -0.0067 -0.1410 -0.2499
15168TIP3    H166919   4.490   5.742  14.385  2.4813  0.4457 -2.1474
15168TIP3    H266920   4.391   5.798  14.285  1.1137  0.2921 -0.9056
15169TIP3   OH266921   3.239   2.781  14.820  0.2636  1.0533  0.2333
15169TIP3    H166922   3.319   2.734  14.797 -1.1245 -0.4879 -1.8688
15169TIP3    H266923   3.240   2.787  14.915  2.0903 -0.3269  0.3399
15170TIP3   OH266924   2.197   6.222  12.443 -0.8824 -0.7187 -0.0189
15170TIP3    H166925   2.123   6.241  12.385  0.3934 -0.6391 -1.6925
15170TIP3    H266926   2.271   6.267  12.403  0.5173 -2.4755  0.4629
15171TIP3   OH266927   0.865   1.048   0.135 -0.3608  0.3063 -0.7215
15171TIP3    H166928   0.872   1.076   0.227 -0.2671  0.0066 -0.6361
15171TIP3    H266929   0.772   1.046   0.117 -0.3672  0.7337 -0.7466
15172TIP3   OH266930   3.862   3.312  13.377 -0.6819 -0.6010 -0.0660
15172TIP3    H166931   3.859   3.220  13.350  1.2880 -0.4708 -0.8171
15172TIP3    H266932   3.775   3.327  13.416 -1.1337 -2.6989 -0.1100
15173TIP3   OH266933   2.429   5.838  15.910 -0.2843 -0.1478  0.1953
15173TIP3    H166934   2.356   5.900  15.910 -0.4414 -0.3120 -0.8391
15173TIP3    H266935   2.497   5.880  15.858 -0.2998 -0.7314 -0.3059
15174TIP3   OH266936   3.923   5.458   3.456  0.3070 -0.0328  0.0617
15174TIP3    H166937   3.905   5.550   3.475 -1.4908 -0.0230 -1.3827
15174TIP3    H266938   3.936   5.455   3.361 -0.3297 -1.3381 -0.0148
15175TIP3   OH266939   1.086   3.750   0.353 -0.1521 -0.2660 -0.0859
15175TIP3    H166940   1.065   3.747   0.259 -0.8815 -2.5709  0.1118
15175TIP3    H266941   1.174   3.712   0.358  0.3796  0.9431  0.0731
15176TIP3   OH266942   1.005   3.670  16.751 -0.0567 -0.7704 -0.4060
15176TIP3    H166943   1.094   3.639  16.736  0.5758  1.0918 -0.6818
15176TIP3    H266944   1.008   3.709  16.839 -0.3340  0.1700 -0.8032
15177TIP3   OH266945   4.210   3.703  13.892 -0.5821 -0.6618 -0.2457
15177TIP3    H166946   4.188   3.745  13.809  0.1089 -0.1240 -0.1669
15177TIP3    H266947   4.305   3.696  13.890 -0.4251  0.7305  1.1462
15178TIP3   OH266948   6.795   3.155   1.234  0.1708 -0.0766 -0.0167
15178TIP3    H166949   6.789   3.241   1.276 -0.8288 -0.2685  0.2592
15178TIP3    H266950   6.754   3.096   1.296 -0.4679 -0.5192 -0.8519
15179TIP3   OH266951   1.416   3.598  14.517 -0.2424  0.0413 -0.3618
15179TIP3    H166952   1.398   3.505  14.527 -0.7687  0.0353 -1.2463
15179TIP3    H266953   1.388   3.618  14.427  0.0287  1.0066 -0.2385
15180TIP3   OH266954   0.258   3.279   0.650 -0.0830  0.2493  0.3403
15180TIP3    H166955   0.181   3.267   0.593  0.5636 -4.1844  0.0394
15180TIP3    H266956   0.221   3.295   0.737 -1.3827 -0.6725 -0.0028
15181TIP3   OH266957   3.593   0.103  15.368 -0.0848 -0.0351  0.0770
15181TIP3    H166958   3.660   0.131  15.430  0.4199  0.1244 -0.5322
15181TIP3    H266959   3.638   0.100  15.283 -0.7073 -0.4623 -0.2482
15182TIP3   OH266960   1.567   6.164   2.142  0.4531 -0.2465  0.1949
15182TIP3    H166961   1.658   6.179   2.170  1.1002 -1.8764 -0.8631
15182TIP3    H266962   1.560   6.069   2.134 -0.9743 -0.0791 -0.9574
15183TIP3   OH266963   2.597   0.382   6.362  0.7934 -0.2455  0.4720
15183TIP3    H166964   2.513   0.428   6.356  0.8271 -0.0222  1.5083
15183TIP3    H266965   2.625   0.371   6.271  0.0920  0.5137  0.1530
15184TIP3   OH266966   4.985   2.394   6.097  0.3403  0.0215 -0.3634
15184TIP3    H166967   4.902   2.435   6.074  0.2188  1.5103  2.2273
15184TIP3    H266968   4.980   2.306   6.062 -2.2170  0.1610 -0.5214
15185TIP3   OH266969   3.847   4.084  11.620  0.0385 -0.0351  0.6299
15185TIP3    H166970   3.922   4.064  11.564 -0.9270  0.6254 -0.9721
15185TIP3    H266971   3.806   4.160  11.579 -2.5247 -1.4270  0.4246
15186TIP3   OH266972   4.693   4.814  11.467  0.1574  0.2423 -0.3700
15186TIP3    H166973   4.632   4.780  11.533 -0.3704  0.8326 -0.5355
15186TIP3    H266974   4.747   4.739  11.443 -0.6987 -0.3699 -0.4309
15187TIP3   OH266975   0.201   2.411  10.937 -0.0994 -0.1407  0.1004
15187TIP3    H166976   0.190   2.468  11.013 -0.9718 -0.0852 -0.0585
15187TIP3    H266977   0.221   2.470  10.865  1.2604 -0.2382  0.3836
15188TIP3   OH266978   6.429   5.123  14.575 -0.4326  0.0010 -0.2079
15188TIP3    H166979   6.479   5.178  14.515 -1.0635  1.6193  0.6937
15188TIP3    H266980   6.421   5.039  14.530  0.7747  0.5551 -1.5140
15189TIP3   OH266981   2.631   3.923  11.640  0.2056 -0.6547 -0.2151
15189TIP3    H166982   2.695   3.907  11.571 -0.2324 -0.2686 -0.7137
15189TIP3    H266983   2.565   3.978  11.599  0.8788  1.1697  1.0182
15190TIP3   OH266984   6.087   1.181  15.822  0.4992  0.3155  0.4757
15190TIP3    H166985   6.006   1.140  15.791  1.2591 -1.4070  0.6639
15190TIP3    H266986   6.092   1.158  15.914  0.9057  0.9584  0.6256
15191TIP3   OH266987   4.354   1.259  15.547  1.1026  0.2683  0.0802
15191TIP3    H166988   4.274   1.309  15.531  1.1433  0.5447  0.7150
15191TIP3    H266989   4.361   1.200  15.472 -1.4815 -2.1142  1.5191
15192TIP3   OH266990   5.111   4.624   1.093 -0.6468 -0.2473 -0.1913
15192TIP3    H166991   5.019   4.627   1.065 -0.3078 -2.9455 -1.8957
15192TIP3    H266992   5.108   4.579   1.178 -0.8631 -0.6559 -0.4149
15193TIP3   OH266993   1.844   2.323   3.309 -0.1127  0.3573  0.3301
15193TIP3    H166994   1.796   2.275   3.377  1.2622 -0.2465  0.9029
15193TIP3    H266995   1.810   2.286   3.227 -1.0672  0.3877  0.6905
15194TIP3   OH266996   1.305   2.430  11.543  0.1764  0.1976 -0.1681
15194TIP3    H166997   1.290   2.347  11.498 -0.1202 -1.0112  2.0284
15194TIP3    H266998   1.395   2.425  11.575 -0.0503  0.4290  0.5323
15195TIP3   OH266999   2.621   1.995   0.417  0.4078 -0.4054  0.1571
15195TIP3    H167000   2.685   1.932   0.449  2.7012  1.3042 -0.7766
15195TIP3    H267001   2.654   2.080   0.446 -1.3797  0.5795 -0.5088
15196TIP3   OH267002   6.748   6.767   5.781  0.1616  0.1409  0.5912
15196TIP3    H167003   6.710   6.853   5.765  0.0013 -0.0101  0.1340
15196TIP3    H267004   6.703   6.709   5.719  1.3610  0.0132 -0.1907
15197TIP3   OH267005   6.770   1.082   3.526 -0.1491 -0.5254 -0.1181
15197TIP3    H167006   6.675   1.073   3.528 -0.0466 -1.6119  0.8781
15197TIP3    H267007   6.792   1.129   3.607  0.1634 -0.2927 -0.3342
15198TIP3   OH267008   3.601   3.566  16.111  0.5454  0.6597 -0.3706
15198TIP3    H167009   3.534   3.498  16.112  1.0084  0.1962  0.9493
15198TIP3    H267010   3.556   3.646  16.137 -0.0648  0.9540 -2.2091
15199TIP3   OH267011   1.191   4.507  16.869 -0.4113  0.6565 -0.1178
15199TIP3    H167012   1.098   4.526  16.875 -0.4323  0.1834  2.7824
15199TIP3    H267013   1.212   4.462  16.951  2.5040  1.4385 -0.2864
15200TIP3   OH267014   3.314   2.336  15.679  0.0634 -0.0812 -0.0118
15200TIP3    H167015   3.231   2.329  15.631  1.2917 -0.2761 -2.2446
15200TIP3    H267016   3.380   2.310  15.616  1.9913  1.6298  1.1872
15201TIP3   OH267017   0.135   5.669  11.237 -0.1954 -0.1062  0.1935
15201TIP3    H167018   0.132   5.752  11.286  0.0404 -0.4350  0.7778
15201TIP3    H267019   0.087   5.687  11.157 -0.6032  0.4432  0.5531
15202TIP3   OH267020   3.726   3.661  12.246 -0.1136  0.4505  1.1869
15202TIP3    H167021   3.798   3.641  12.305 -0.2596  0.2137  1.2904
15202TIP3    H267022   3.767   3.677  12.161  0.0647  0.3951  1.2634
15203TIP3   OH267023   3.989   6.577  11.879 -0.9030 -0.6427  0.1199
15203TIP3    H167024   4.050   6.645  11.907  1.0014 -1.7850 -1.0790
15203TIP3    H267025   3.997   6.508  11.945 -1.0169 -0.7373  0.0345
15204TIP3   OH267026   4.972   4.835   1.532  0.4796 -0.5317  0.5196
15204TIP3    H167027   4.899   4.897   1.527  0.7478 -0.2073  0.5772
15204TIP3    H267028   4.992   4.814   1.441 -0.7179 -1.8627  0.5256
15205TIP3   OH267029   4.044   0.065  11.809  0.2609 -0.3032  0.1305
15205TIP3    H167030   3.961   0.103  11.838  0.1372  0.8052 -1.5104
15205TIP3    H267031   4.110   0.106  11.864 -0.1453  0.0500  0.3620
15206TIP3   OH267032   5.465   0.231  12.613  0.0835 -0.2392 -1.0374
15206TIP3    H167033   5.490   0.287  12.686  0.6983  0.0629 -1.4724
15206TIP3    H267034   5.547   0.212  12.568 -0.2420 -0.7248 -1.4369
15207TIP3   OH267035   2.460   6.622   0.784  0.4858  0.8387 -0.7737
15207TIP3    H167036   2.376   6.664   0.765 -2.0778 -2.7590  1.2979
15207TIP3    H267037   2.474   6.637   0.877  1.8850  0.9155 -0.9835
15208TIP3   OH267038   4.369   5.161  12.542  0.2710  0.9782  0.3809
15208TIP3    H167039   4.331   5.234  12.492 -0.4757  0.1788 -0.2471
15208TIP3    H267040   4.373   5.089  12.480 -1.9562 -0.4701  1.7749
15209TIP3   OH267041   0.303   1.132  13.200  0.0644 -0.1542  0.4487
15209TIP3    H167042   0.371   1.106  13.138 -0.2285  0.5095 -0.1588
15209TIP3    H267043   0.271   1.050  13.237 -1.2746 -0.7524 -1.8852
15210TIP3   OH267044   1.415   2.018   3.811  0.3570 -0.1038  0.3791
15210TIP3    H167045   1.343   1.979   3.861 -0.2802  0.0939 -0.3527
15210TIP3    H267046   1.393   2.112   3.807  1.3252  0.1784  1.2292
15211TIP3   OH267047   0.883   5.591   5.714  0.5787 -0.2957  0.4243
15211TIP3    H167048   0.971   5.556   5.697  0.4698 -0.4727  0.2259
15211TIP3    H267049   0.899   5.671   5.764  0.9076  0.3289 -0.6450
15212TIP3   OH267050   0.971   0.673  16.535  0.1760 -0.3651  0.7200
15212TIP3    H167051   0.911   0.740  16.503  1.1124  0.6682  1.0431
15212TIP3    H267052   0.933   0.645  16.618 -1.2443 -1.6663 -0.3376
15213TIP3   OH267053   3.724   4.980   1.037  0.2883  0.4477  0.1440
15213TIP3    H167054   3.764   4.895   1.055 -0.5982  0.2053  1.0418
15213TIP3    H267055   3.793   5.043   1.056  1.7742 -0.0834 -2.7921
15214TIP3   OH267056   4.236   1.783   3.884 -0.5540  0.1715  0.0837
15214TIP3    H167057   4.323   1.783   3.924 -0.7255 -1.9848  0.5475
15214TIP3    H267058   4.252   1.806   3.792  0.7242 -1.5799 -0.1753
15215TIP3   OH267059   6.085   1.046   1.071 -0.3018  0.5024  0.4641
15215TIP3    H167060   6.026   1.109   1.031  1.7692  0.5938 -2.8379
15215TIP3    H267061   6.063   0.963   1.029  2.6498  0.7991 -2.0537
15216TIP3   OH267062   1.185   0.228  14.420  0.5313  0.6059  0.3676
15216TIP3    H167063   1.255   0.219  14.484  0.5463  0.1470  0.2856
15216TIP3    H267064   1.113   0.268  14.469  1.2205  2.1418  0.1834
15217TIP3   OH267065   6.211   0.315   5.584  0.5947  0.9451 -0.2352
15217TIP3    H167066   6.283   0.315   5.521  0.7788 -0.4795 -0.0396
15217TIP3    H267067   6.142   0.265   5.541  0.1894  1.1983  0.1171
15218TIP3   OH267068   5.038   2.491   4.333  0.0125  0.1589  0.0664
15218TIP3    H167069   5.066   2.508   4.243  2.1165  0.6878  0.7666
15218TIP3    H267070   4.973   2.558   4.351  3.1684  3.3840  0.4930
15219TIP3   OH267071   6.251   0.012  13.642 -0.0117 -0.1498 -0.0176
15219TIP3    H167072   6.228   0.037  13.553  1.2568 -0.6801 -0.5126
15219TIP3    H267073   6.178   0.044  13.695 -1.0957 -0.3806 -1.3086
15220TIP3   OH267074   6.670   6.275  13.306 -0.3359 -0.2857  0.0523
15220TIP3    H167075   6.586   6.320  13.295 -0.9710 -1.4821 -0.0899
15220TIP3    H267076   6.672   6.249  13.398  0.4422  0.7756  0.3715
15221TIP3   OH267077   1.914   2.502  15.839  0.3821 -0.1677 -0.4735
15221TIP3    H167078   1.991   2.478  15.787  0.7409 -0.9965  0.3915
15221TIP3    H267079   1.879   2.418  15.870 -0.1651  0.2684  0.1249
15222TIP3   OH267080   5.342   2.648  12.872  0.0920  0.2940  0.5731
15222TIP3    H167081   5.298   2.586  12.931 -0.3694  1.2628  1.2765
15222TIP3    H267082   5.396   2.702  12.929 -0.2876  1.1927  0.1099
15223TIP3   OH267083   0.611   1.347  15.734 -0.8432  0.0466 -0.4074
15223TIP3    H167084   0.695   1.302  15.725 -0.2244  1.2329 -0.7198
15223TIP3    H267085   0.547   1.286  15.697  0.2099  0.1703 -2.6004
15224TIP3   OH267086   0.243   0.197   4.240  0.5676 -0.2527 -0.4388
15224TIP3    H167087   0.276   0.195   4.329 -2.0609  0.3299  0.6515
15224TIP3    H267088   0.172   0.132   4.239  0.9296 -0.7006 -2.3120
15225TIP3   OH267089   3.722   2.116  12.471 -0.5108 -0.5062 -0.2147
15225TIP3    H167090   3.756   2.135  12.384 -0.3061 -1.0055 -0.2475
15225TIP3    H267091   3.711   2.202  12.513 -0.5638 -0.2712 -0.7123
15226TIP3   OH267092   0.778   2.102  12.375 -0.5785  0.4982 -0.3167
15226TIP3    H167093   0.817   2.036  12.318 -0.3161 -1.6188  2.1325
15226TIP3    H267094   0.852   2.149  12.412 -0.5369 -0.2699  0.6282
15227TIP3   OH267095   5.500   6.187   4.917  0.1108 -0.1731 -0.0787
15227TIP3    H167096   5.408   6.198   4.943 -0.0058 -0.0098 -0.5577
15227TIP3    H267097   5.525   6.103   4.955 -0.6138 -0.8335 -1.0033
15228TIP3   OH267098   3.170   5.584  16.628 -0.0077  0.5315  0.4192
15228TIP3    H167099   3.164   5.491  16.609  0.3166  0.7128 -0.6370
15228TIP3    H267100   3.196   5.624  16.545  2.5913  1.2649  1.4866
15229TIP3   OH267101   5.609   2.481  14.678  0.1820 -0.2040  0.0169
15229TIP3    H167102   5.574   2.548  14.619  2.4544  0.8449 -0.2649
15229TIP3    H267103   5.673   2.434  14.624  1.4523  0.0074  1.2973
15230TIP3   OH267104   2.129   2.319   3.246 -0.2730 -0.5363 -0.2179
15230TIP3    H167105   2.038   2.345   3.261  0.2165  2.9456 -2.1742
15230TIP3    H267106   2.123   2.243   3.188 -1.9833  0.2576 -1.1613
15231TIP3   OH267107   5.066   3.474   1.628 -0.0836 -0.0660 -0.1128
15231TIP3    H167108   5.128   3.405   1.651  0.3965  0.5024  0.3261
15231TIP3    H267109   5.107   3.520   1.555  0.2651  0.6345  0.5135
15232TIP3   OH267110   4.076   1.229   4.581 -0.5843  0.6623 -0.4317
15232TIP3    H167111   4.116   1.214   4.666  0.6200 -1.5766 -1.3184
15232TIP3    H267112   4.149   1.244   4.521 -1.3373  1.0251 -1.2986
15233TIP3   OH267113   2.800   6.200  12.361  0.6835  0.4586  0.2999
15233TIP3    H167114   2.778   6.224  12.271  1.2741 -2.2344 -0.6719
15233TIP3    H267115   2.895   6.212  12.367  1.2147 -2.3662 -0.6155
15234TIP3   OH267116   4.465   1.786   4.069  0.1903  0.1550 -0.0725
15234TIP3    H167117   4.420   1.752   4.146  0.9353  1.2824  0.9040
15234TIP3    H267118   4.544   1.732   4.061  0.5585  0.5966  0.5014
15235TIP3   OH267119   4.165   1.330  12.497  0.2262 -0.1773 -0.2974
15235TIP3    H167120   4.209   1.349  12.581  3.1352 -0.6567 -1.5710
15235TIP3    H267121   4.235   1.293  12.442 -1.3092  1.0405 -3.2688
15236TIP3   OH267122   3.522   1.924   4.845 -0.3433  0.4483 -0.9518
15236TIP3    H167123   3.613   1.895   4.847 -0.5687 -0.2246 -0.4199
15236TIP3    H267124   3.472   1.850   4.878 -0.9765  1.2323 -0.1053
15237TIP3   OH267125   3.830   2.454  12.779  0.2537 -0.2632 -0.0099
15237TIP3    H167126   3.920   2.463  12.810  0.7219  0.8727 -1.5710
15237TIP3    H267127   3.780   2.434  12.858  1.7499 -0.1249  1.0286
15238TIP3   OH267128   5.250   2.561   3.132 -0.2477 -0.0950 -0.0325
15238TIP3    H167129   5.259   2.647   3.173  0.3518  0.1327 -0.6140
15238TIP3    H267130   5.160   2.535   3.149 -0.9758  1.4016 -1.2976
15239TIP3   OH267131   2.435   6.656   1.084  0.4181 -0.0727  0.1430
15239TIP3    H167132   2.399   6.572   1.059  0.4352 -0.4494  1.3056
15239TIP3    H267133   2.359   6.712   1.099  0.3644 -0.2894  0.6923
15240TIP3   OH267134   1.551   6.413  12.690 -0.1528  0.1425 -0.1203
15240TIP3    H167135   1.569   6.347  12.623  0.7371 -0.2808  0.5118
15240TIP3    H267136   1.487   6.472  12.650 -2.2656 -2.0236 -0.1443
15241TIP3   OH267137   3.797   2.565   6.428  0.2751  0.4591 -0.4618
15241TIP3    H167138   3.704   2.553   6.410 -0.1788 -1.8031  2.5471
15241TIP3    H267139   3.839   2.489   6.386 -0.0181 -1.3883  2.3292
15242TIP3   OH267140   1.428   0.272   5.672 -0.2810 -0.3720  0.6723
15242TIP3    H167141   1.466   0.230   5.595 -0.3080 -1.0833  1.0268
15242TIP3    H267142   1.455   0.363   5.667 -0.4538 -0.3629 -0.2803
15243TIP3   OH267143   2.199   1.714   4.532 -0.3486  0.3550  0.2598
15243TIP3    H167144   2.247   1.785   4.574 -0.2657 -0.3881  1.4628
15243TIP3    H267145   2.260   1.641   4.529 -0.5393  0.2246 -0.6627
15244TIP3   OH267146   1.248   5.040  11.688  0.1910 -0.5251  0.0792
15244TIP3    H167147   1.183   5.029  11.757 -0.1663  0.0986 -0.1506
15244TIP3    H267148   1.236   4.964  11.631 -1.8994  0.6831 -1.2076
15245TIP3   OH267149   1.908   4.954  15.083  0.0188  0.6759  0.6743
15245TIP3    H167150   1.874   4.912  15.162 -0.1118 -2.2902 -0.8125
15245TIP3    H267151   1.863   4.910  15.011  1.2384  2.1981 -1.1297
15246TIP3   OH267152   0.858   4.730   3.163 -0.6475  0.7130  0.6177
15246TIP3    H167153   0.821   4.752   3.249  0.3300  2.1672  0.7075
15246TIP3    H267154   0.807   4.655   3.133 -2.2259  1.3118  1.6646
15247TIP3   OH267155   1.151   0.860   1.675 -0.4435  0.0518  0.4184
15247TIP3    H167156   1.193   0.857   1.589 -0.9109  3.0861 -0.0222
15247TIP3    H267157   1.215   0.902   1.732 -0.1874 -1.8322  1.5885
15248TIP3   OH267158   0.153   3.148  12.007 -0.8149 -0.1043 -0.1428
15248TIP3    H167159   0.114   3.064  11.981 -0.8866 -0.5698  1.4043
15248TIP3    H267160   0.079   3.202  12.035 -0.4811 -0.9455  2.6721
15249TIP3   OH267161   0.453   1.535   5.624 -0.1090  0.1539  0.0905
15249TIP3    H167162   0.438   1.628   5.641 -0.4698 -0.1441  1.6135
15249TIP3    H267163   0.369   1.494   5.644  0.3545 -0.6076  0.5265
15250TIP3   OH267164   6.783   2.431  14.122  0.3385 -0.1135  0.5300
15250TIP3    H167165   6.717   2.484  14.078 -0.2593 -0.2316  1.2658
15250TIP3    H267166   6.862   2.444  14.071  0.2608  1.6200  0.7941
15251TIP3   OH267167   3.725   0.218  13.852 -0.7579 -0.1112  0.0467
15251TIP3    H167168   3.689   0.129  13.848 -3.6670  1.0028 -1.2967
15251TIP3    H267169   3.758   0.235  13.764 -1.1428  0.4760  0.0102
15252TIP3   OH267170   5.893   0.742  14.083  0.3486 -0.3384 -0.1826
15252TIP3    H167171   5.817   0.698  14.043 -0.5172  0.1149  0.9031
15252TIP3    H267172   5.921   0.805  14.017 -2.2314  1.7343  0.5475
15253TIP3   OH267173   0.809   3.110   4.148  0.6172  0.0947 -0.3536
15253TIP3    H167174   0.834   3.152   4.231  0.5058 -1.5599  0.5627
15253TIP3    H267175   0.875   3.140   4.085  0.3983  1.8003  0.1803
15254TIP3   OH267176   6.018   6.518   2.706  0.5216  0.3957 -0.1364
15254TIP3    H167177   5.962   6.460   2.758  1.0013  0.6588  0.6870
15254TIP3    H267178   6.107   6.499   2.735  0.7995  0.5535 -0.8627
15255TIP3   OH267179   1.811   3.897   6.350  0.0849  0.2237  0.6211
15255TIP3    H167180   1.892   3.885   6.399  1.7150  0.0107 -1.9173
15255TIP3    H267181   1.795   3.813   6.309  1.1223  1.3461 -2.3671
15256TIP3   OH267182   3.168   1.983  14.247  0.4392  0.2525  0.1673
15256TIP3    H167183   3.148   2.072  14.275  1.6122  0.3560  0.7368
15256TIP3    H267184   3.085   1.949  14.214 -0.9285  0.3773  3.1129
15257TIP3   OH267185   4.797   1.292   2.478  0.0310 -0.3503 -0.1567
15257TIP3    H167186   4.891   1.273   2.485 -0.0479 -0.6302  0.1747
15257TIP3    H267187   4.759   1.256   2.558 -0.2341  0.5808  0.1400
15258TIP3   OH267188   6.337   1.138  13.037  1.1719 -0.0220 -0.0027
15258TIP3    H167189   6.308   1.151  13.127 -0.5882 -1.2530 -0.3306
15258TIP3    H267190   6.255   1.129  12.987  2.0860  1.4373 -1.8644
15259TIP3   OH267191   0.836   1.296   4.293 -0.1677  0.5063  0.1534
15259TIP3    H167192   0.919   1.284   4.338 -0.9714  1.9898  2.2381
15259TIP3    H267193   0.854   1.363   4.227  0.6497 -0.4344 -0.6029
15260TIP3   OH267194   5.530   5.623  14.529  0.0764 -0.3122  0.1366
15260TIP3    H167195   5.479   5.625  14.448  0.6490 -1.8709 -0.3008
15260TIP3    H267196   5.515   5.536  14.565 -1.4457  0.8602  2.5949
15261TIP3   OH267197   4.893   0.228  12.997  0.4013  0.0263  0.0939
15261TIP3    H167198   4.802   0.208  13.020 -0.1015 -0.8592 -2.3933
15261TIP3    H267199   4.903   0.321  13.020 -1.7288  0.6617 -1.2422
15262TIP3   OH267200   2.931   1.257  12.924 -0.1623 -0.2570 -0.4345
15262TIP3    H167201   3.022   1.283  12.919 -0.5728  1.0473 -2.2171
15262TIP3    H267202   2.933   1.162  12.915  0.9563 -0.0932 -2.8598
15263TIP3   OH267203   6.131   3.373  15.649 -0.1164  0.2484 -0.0978
15263TIP3    H167204   6.098   3.425  15.722 -2.0817 -0.9820 -0.0140
15263TIP3    H267205   6.077   3.399  15.575 -1.7581 -2.1148  0.1305
15264TIP3   OH267206   5.683   2.590   0.308 -0.6419 -0.1895  0.2836
15264TIP3    H167207   5.684   2.685   0.303 -0.6112 -0.0706  2.1032
15264TIP3    H267208   5.774   2.565   0.322 -0.5170 -0.5764 -1.0243
15265TIP3   OH267209   5.464   3.274   2.652 -0.1968 -0.2061  0.3117
15265TIP3    H167210   5.502   3.358   2.629  1.2684 -0.6678  0.9188
15265TIP3    H267211   5.377   3.274   2.612  1.2154  0.0189 -3.0080
15266TIP3   OH267212   6.448   6.649  11.519 -0.3895 -0.1088  0.6771
15266TIP3    H167213   6.448   6.626  11.612 -0.7346 -1.7172  0.3155
15266TIP3    H267214   6.359   6.631  11.490 -0.5769  1.4166  0.2496
15267TIP3   OH267215   3.300   4.864   4.871  0.0509  0.3182 -0.0106
15267TIP3    H167216   3.227   4.906   4.826 -1.6383  0.2879  2.4948
15267TIP3    H267217   3.368   4.931   4.875 -1.2342  1.6375  0.7358
15268TIP3   OH267218   6.257   2.988  15.587 -0.1747  0.3280  0.5206
15268TIP3    H167219   6.265   3.021  15.676  0.3421  0.6204  0.3717
15268TIP3    H267220   6.306   3.052  15.534  0.9656 -0.7395  0.2406
15269TIP3   OH267221   4.135   1.985   2.694 -0.0398  0.1345 -0.1947
15269TIP3    H167222   4.177   2.071   2.690  0.3590 -0.0887 -0.9937
15269TIP3    H267223   4.048   1.998   2.657 -0.2464  0.3415  0.3530
15270TIP3   OH267224   1.234   2.101  13.158 -0.5116  0.2427 -0.0406
15270TIP3    H167225   1.195   2.092  13.071 -0.1573 -2.6767  0.0009
15270TIP3    H267226   1.228   2.013  13.196 -0.7797  1.4647  2.9741
15271TIP3   OH267227   3.469   4.889   3.676 -0.3917 -0.1468  0.0507
15271TIP3    H167228   3.388   4.895   3.627 -0.4773 -2.9720 -0.3378
15271TIP3    H267229   3.519   4.820   3.631  0.6390 -1.0218  2.3740
15272TIP3   OH267230   4.242   0.694   1.694  0.1404 -0.7414 -0.2811
15272TIP3    H167231   4.191   0.682   1.775 -0.8038 -1.5389 -0.9760
15272TIP3    H267232   4.257   0.789   1.689 -1.5596 -0.4421 -0.2089
15273TIP3   OH267233   2.875   6.682  15.607 -0.4966 -0.2415 -0.0417
15273TIP3    H167234   2.864   6.594  15.643  0.7995  1.0163  3.9773
15273TIP3    H267235   2.962   6.680  15.567 -0.3118 -0.7246  0.3590
15274TIP3   OH267236   1.895   3.744  12.611 -0.0135  0.6639  0.4125
15274TIP3    H167237   1.948   3.687  12.554 -0.9892  0.1786 -0.0331
15274TIP3    H267238   1.853   3.683  12.672 -1.8064  0.7717 -0.6595
15275TIP3   OH267239   4.846   6.677  13.954  0.1494  0.2391 -0.3716
15275TIP3    H167240   4.872   6.632  14.035  0.6013  0.1241 -0.5790
15275TIP3    H267241   4.831   6.767  13.980 -0.8575 -0.0329  0.0717
15276TIP3   OH267242   0.382   0.200  14.125  0.5327 -0.4741 -0.0820
15276TIP3    H167243   0.352   0.139  14.193  1.7803 -0.0921  0.8438
15276TIP3    H267244   0.476   0.205  14.137  0.6735  0.2551 -1.3209
15277TIP3   OH267245   5.455   6.320  16.158 -0.6845 -0.0290  0.3524
15277TIP3    H167246   5.450   6.228  16.132  1.8718 -0.1426  0.0049
15277TIP3    H267247   5.402   6.366  16.093 -1.4814 -1.1849  0.1552
15278TIP3   OH267248   6.466   5.319   5.525  0.1645  0.0372 -0.2382
15278TIP3    H167249   6.489   5.321   5.618 -0.7068  1.7801 -0.0222
15278TIP3    H267250   6.534   5.370   5.482  0.5918 -0.8053 -0.5991
15279TIP3   OH267251   4.200   5.261  14.727  0.1677  0.6137  0.0086
15279TIP3    H167252   4.157   5.272  14.642  0.9262 -2.1972 -0.8553
15279TIP3    H267253   4.293   5.252  14.706  0.6085  1.6411  1.3554
15280TIP3   OH267254   4.908   6.479   0.799 -0.4300 -0.2044  0.1194
15280TIP3    H167255   4.943   6.391   0.787 -0.1618 -0.0481 -0.2782
15280TIP3    H267256   4.870   6.502   0.714  1.6096  0.9695 -0.5574
15281TIP3   OH267257   5.526   1.668   4.070  0.1911 -0.3330 -0.3988
15281TIP3    H167258   5.454   1.681   4.132 -0.2294 -1.1624 -0.6996
15281TIP3    H267259   5.536   1.753   4.026  1.0160  0.5197  1.3279
15282TIP3   OH267260   3.899   1.952  13.879  0.0012 -0.4779  0.0846
15282TIP3    H167261   3.950   2.022  13.838 -0.4237 -0.4167 -0.3525
15282TIP3    H267262   3.903   1.970  13.973  0.4368 -0.2408  0.0217
15283TIP3   OH267263   0.223   3.076   3.113 -0.0177  0.5943 -0.2926
15283TIP3    H167264   0.248   3.107   3.200 -0.3725  2.3865 -0.7969
15283TIP3    H267265   0.149   3.131   3.088 -0.6694 -0.6736 -1.2724
15284TIP3   OH267266   2.491   6.782  17.069  0.1289  0.2837  0.2367
15284TIP3    H167267   2.464   6.722  17.139 -0.2438  0.5071  0.2875
15284TIP3    H267268   2.477   6.731  16.988 -0.6274  0.4590  0.2510
15285TIP3   OH267269   2.036   0.346  15.460  0.3997 -0.2602 -0.2386
15285TIP3    H167270   1.993   0.267  15.494 -0.8618 -0.6562 -2.5311
15285TIP3    H267271   2.098   0.370  15.528 -0.3556 -2.2591  1.2838
15286TIP3   OH267272   6.556   0.561   0.834 -0.4097 -0.5904 -0.2685
15286TIP3    H167273   6.632   0.509   0.859 -0.0640  0.0752  0.0844
15286TIP3    H267274   6.591   0.648   0.819 -1.1074 -0.2715 -0.0754
15287TIP3   OH267275   1.145   1.240   2.589  0.0349  0.2013  0.2129
15287TIP3    H167276   1.146   1.335   2.592 -2.7470  0.3241  0.1767
15287TIP3    H267277   1.122   1.213   2.678 -0.2848 -0.3612 -0.0343
15288TIP3   OH267278   2.666   0.018  14.651  0.8451 -0.1735 -0.2754
15288TIP3    H167279   2.618   0.088  14.694  0.9126 -1.3027  1.7330
15288TIP3    H267280   2.652   0.033  14.557 -0.8388  1.2982  0.1705
15289TIP3   OH267281   1.337   5.308  15.558 -0.3181 -0.3063 -0.1768
15289TIP3    H167282   1.428   5.337  15.566  0.3804 -2.0091 -1.3679
15289TIP3    H267283   1.307   5.298  15.649  1.3952 -1.7351  0.2907
15290TIP3   OH267284   2.445   3.959   4.424  0.5230  0.3443 -0.4846
15290TIP3    H167285   2.458   4.037   4.370 -0.8931  0.0523 -1.2830
15290TIP3    H267286   2.373   3.912   4.382  0.3849 -0.6577  0.8106
15291TIP3   OH267287   4.868   3.693  11.182 -0.0177  0.5320 -0.4301
15291TIP3    H167288   4.878   3.787  11.195  1.8193  0.4548 -0.9791
15291TIP3    H267289   4.953   3.664  11.150 -0.9174 -1.1214 -1.4870
15292TIP3   OH267290   3.520   6.789   5.621 -0.5231  0.0062 -0.0839
15292TIP3    H167291   3.585   6.859   5.628 -0.7580  0.2325 -0.1594
15292TIP3    H267292   3.513   6.754   5.710  0.6999 -0.9324 -0.3324
15293TIP3   OH267293   1.472   5.849   4.911 -0.5395 -0.7698  0.0223
15293TIP3    H167294   1.531   5.916   4.876  1.1409 -2.3821 -0.3730
15293TIP3    H267295   1.428   5.813   4.833 -0.5022 -0.9909  0.1035
15294TIP3   OH267296   1.172   1.180  14.721  0.3433  0.4487 -0.6846
15294TIP3    H167297   1.090   1.166  14.768 -0.1250  1.9347 -0.9927
15294TIP3    H267298   1.190   1.097  14.677 -0.1087 -0.4186  0.7311
15295TIP3   OH267299   3.171   3.309  15.961  0.7220  0.1673  0.4429
15295TIP3    H167300   3.265   3.288  15.964  0.9431  0.5961 -1.9826
15295TIP3    H267301   3.128   3.232  15.998  1.8848 -1.5501 -1.5985
15296TIP3   OH267302   3.079   5.907  15.578 -0.2830  0.0977 -0.4327
15296TIP3    H167303   3.063   5.812  15.580  0.3566 -0.0379 -1.1160
15296TIP3    H267304   3.146   5.918  15.510  1.0699  0.8235  0.9377
15297TIP3   OH267305   1.053   0.101   0.038 -0.4489  0.2690 -0.2773
15297TIP3    H167306   1.138   0.115  -0.004 -0.4421 -2.1199 -1.2363
15297TIP3    H267307   0.990   0.147  -0.019 -0.0127  0.3831 -0.6731
15298TIP3   OH267308   5.806   5.674   1.810  0.1344  0.0519 -0.3973
15298TIP3    H167309   5.733   5.722   1.769  0.4571  0.5065 -0.4457
15298TIP3    H267310   5.840   5.735   1.876  0.9295  0.1233 -0.8686
15299TIP3   OH267311   6.317   3.352   4.715 -0.0636  0.6068 -0.0057
15299TIP3    H167312   6.296   3.278   4.773  1.4020  0.1533 -0.0052
15299TIP3    H267313   6.284   3.429   4.762  1.2118  0.2694  1.5523
15300TIP3   OH267314   0.675   2.264  13.569  0.1791 -0.6874  0.1292
15300TIP3    H167315   0.717   2.253  13.483 -2.5839 -0.4961 -1.3407
15300TIP3    H267316   0.661   2.358  13.576 -0.5967 -0.8076  0.2592
15301TIP3   OH267317   6.171   2.481   0.808  0.3417 -0.8343  0.0690
15301TIP3    H167318   6.204   2.447   0.891  2.9434 -0.6091 -0.7729
15301TIP3    H267319   6.153   2.574   0.825 -4.8889 -1.8485  1.8366
15302TIP3   OH267320   2.599   2.503   4.485 -0.3549 -0.0002  0.3234
15302TIP3    H167321   2.628   2.445   4.415  0.7223  0.7833  0.1018
15302TIP3    H267322   2.637   2.588   4.463 -1.8673  0.7997  0.6582
15303TIP3   OH267323   1.331   1.540   2.191 -0.3082 -0.5010 -0.3107
15303TIP3    H167324   1.407   1.482   2.182 -0.0258 -0.4071  1.3414
15303TIP3    H267325   1.364   1.627   2.169 -0.0167 -0.5048  0.1166
15304TIP3   OH267326   2.149   5.069   1.480 -0.2097  0.2524 -0.5748
15304TIP3    H167327   2.122   4.986   1.520 -2.1620  0.8476 -0.5691
15304TIP3    H267328   2.174   5.046   1.391  0.6600 -0.5306 -0.1544
15305TIP3   OH267329   1.587   3.653   4.299  0.0810 -0.0362  0.1419
15305TIP3    H167330   1.538   3.682   4.222  0.2592 -0.7320 -0.2446
15305TIP3    H267331   1.659   3.600   4.263 -0.2966 -1.0376  0.8197
15306TIP3   OH267332   5.515   2.268  14.030 -0.3315  0.2209  0.1365
15306TIP3    H167333   5.598   2.272  13.982 -0.3708  0.4240  0.0852
15306TIP3    H267334   5.507   2.176  14.056 -0.7964 -0.1196 -1.1063
15307TIP3   OH267335   3.960   5.562  11.219  0.3694  0.1517  0.1403
15307TIP3    H167336   3.891   5.497  11.237 -1.0512  0.9520 -2.0108
15307TIP3    H267337   3.919   5.624  11.159  2.1042  2.3449  1.1015
15308TIP3   OH267338   3.620   6.427   3.042  0.0738  0.1140 -0.0149
15308TIP3    H167339   3.544   6.379   3.074 -1.0178  0.2417 -2.2178
15308TIP3    H267340   3.688   6.410   3.107 -0.9199 -2.5344  0.4676
15309TIP3   OH267341   0.491   5.620  15.118 -0.6372 -0.0693 -0.3326
15309TIP3    H167342   0.517   5.696  15.171  2.9845 -0.9895 -0.5164
15309TIP3    H267343   0.513   5.645  15.028 -2.7684 -0.0956 -0.9099
15310TIP3   OH267344   2.273   4.274   6.658  0.2339 -0.1244  0.2559
15310TIP3    H167345   2.278   4.356   6.608 -2.2622 -0.8053 -1.3017
15310TIP3    H267346   2.330   4.214   6.611  2.4746  0.7620  1.6913
15311TIP3   OH267347   6.747   3.372  12.550  0.1475 -0.3735  0.2660
15311TIP3    H167348   6.688   3.343  12.481  0.3126  1.7329 -0.8362
15311TIP3    H267349   6.733   3.309  12.621 -0.5139 -2.2146 -1.4065
15312TIP3   OH267350   2.437   2.886   1.102 -0.4542  0.7440  1.0870
15312TIP3    H167351   2.392   2.924   1.027  1.2963 -0.3962 -0.6380
15312TIP3    H267352   2.510   2.945   1.119  0.4093 -0.1057  0.4548
15313TIP3   OH267353   3.104   0.883  12.286 -0.6067  0.2425  0.0285
15313TIP3    H167354   3.059   0.942  12.226  1.1926  2.1323  0.4113
15313TIP3    H267355   3.197   0.902  12.274  0.1102 -2.7806 -0.0131
15314TIP3   OH267356   1.148   5.620   4.126  0.5333 -0.2456 -0.1889
15314TIP3    H167357   1.221   5.561   4.143  1.1925  0.7562  0.5407
15314TIP3    H267358   1.149   5.633   4.031 -0.6584 -2.6771 -0.6064
15315TIP3   OH267359   6.636   0.974  14.192  0.0241  0.1608 -0.2069
15315TIP3    H167360   6.686   1.050  14.220  1.2359 -0.8176  0.4112
15315TIP3    H267361   6.702   0.915  14.155 -0.7782 -0.8776 -0.0104
15316TIP3   OH267362   6.760   2.582  15.411 -0.4245  0.0858  0.5887
15316TIP3    H167363   6.839   2.564  15.461  0.2266  0.7978 -0.1541
15316TIP3    H267364   6.723   2.660  15.453  1.9289  2.7861 -1.9651
15317TIP3   OH267365   5.959   4.088   3.916  0.0845  0.3970 -0.1058
15317TIP3    H167366   5.967   4.012   3.858  1.1274  0.3592  0.0589
15317TIP3    H267367   5.897   4.146   3.872 -0.4405 -0.3839 -0.4171
15318TIP3   OH267368   2.794   2.643   3.075  0.8960 -0.5602  0.2171
15318TIP3    H167369   2.761   2.673   3.160  0.1602 -2.1663  0.5428
15318TIP3    H267370   2.722   2.660   3.014  0.8588 -0.7418  0.2093
15319TIP3   OH267371   2.146   2.728   3.924  0.3932 -0.3429 -0.0699
15319TIP3    H167372   2.107   2.657   3.874 -0.9505  1.6782 -2.1123
15319TIP3    H267373   2.240   2.718   3.912  0.1613 -0.9382 -1.5711
15320TIP3   OH267374   1.292   6.309   3.872  0.1414  0.0250  0.1008
15320TIP3    H167375   1.280   6.321   3.966  1.2252  2.3544  0.0117
15320TIP3    H267376   1.358   6.240   3.864  1.8453  1.4593  1.1709
15321TIP3   OH267377   2.314   5.933   6.457  0.3548 -0.5659 -0.6324
15321TIP3    H167378   2.322   6.012   6.405  0.7866  0.0446  0.3447
15321TIP3    H267379   2.220   5.926   6.477  0.4272  0.1973  0.0174
15322TIP3   OH267380   3.267   5.904  11.601 -0.7774 -0.5144 -0.1388
15322TIP3    H167381   3.200   5.954  11.554 -1.4651 -0.1575  1.1792
15322TIP3    H267382   3.228   5.886  11.686  0.9702  0.0930  0.8386
15323TIP3   OH267383   6.291   5.028  15.703  0.1905  0.1506 -0.5620
15323TIP3    H167384   6.380   4.993  15.692  0.2231  0.2176 -0.5183
15323TIP3    H267385   6.245   4.961  15.753  0.0447 -0.1449 -1.0940
15324TIP3   OH267386   3.289   0.544   5.699 -0.1442  0.5399 -0.3777
15324TIP3    H167387   3.294   0.639   5.689 -0.6808  0.5580 -0.4910
15324TIP3    H267388   3.258   0.531   5.789 -1.3432  0.5053 -0.7795
15325TIP3   OH267389   4.544   0.647  15.544 -0.7419 -0.5757 -0.3996
15325TIP3    H167390   4.596   0.603  15.611 -0.9220 -1.1470 -0.6298
15325TIP3    H267391   4.600   0.647  15.467  1.9901  5.2144  1.0649
15326TIP3   OH267392   5.694   2.145  17.163 -0.3661 -0.1718 -0.2490
15326TIP3    H167393   5.676   2.057  17.198  2.5816 -0.1169  1.7470
15326TIP3    H267394   5.614   2.168  17.115 -1.6915 -3.4534  0.0963
15327TIP3   OH267395   2.955   6.277   2.459 -0.1662 -0.1738 -0.0046
15327TIP3    H167396   2.863   6.301   2.468 -0.3846 -1.3969  1.2803
15327TIP3    H267397   2.960   6.228   2.377 -0.7980 -0.6589  0.2398
15328TIP3   OH267398   4.044   0.401  12.636  0.1842 -0.5145  0.0222
15328TIP3    H167399   3.951   0.382  12.622  0.0482 -0.1761  0.4293
15328TIP3    H267400   4.054   0.493  12.611  0.1811 -0.2457  0.9555
15329TIP3   OH267401   0.918   3.845  11.340  0.0564  0.0402 -0.0112
15329TIP3    H167402   0.979   3.913  11.311 -1.9641  2.0478  0.1666
15329TIP3    H267403   0.947   3.824  11.429  0.7555  0.6203 -0.0922
15330TIP3   OH267404   2.213   0.808  14.173  0.2403 -0.4144 -0.2217
15330TIP3    H167405   2.213   0.718  14.204 -0.4194  0.2693  1.9687
15330TIP3    H267406   2.151   0.853  14.231  1.3630  1.6778 -0.5527
15331TIP3   OH267407   2.046   4.602   0.724  0.2858 -0.2108 -0.3348
15331TIP3    H167408   2.105   4.549   0.778  0.6847 -1.1843 -1.6644
15331TIP3    H267409   2.101   4.672   0.688  0.1376  0.1331  0.1009
15332TIP3   OH267410   4.327   4.213   4.915 -0.4105  0.2162 -0.1583
15332TIP3    H167411   4.412   4.173   4.931 -1.1544 -0.6491  2.1890
15332TIP3    H267412   4.319   4.216   4.820  1.9189 -0.3287 -0.4341
15333TIP3   OH267413   4.222   2.247   0.869 -0.2543 -0.3318 -0.1882
15333TIP3    H167414   4.141   2.285   0.834  0.6763  0.5507 -1.5186
15333TIP3    H267415   4.251   2.309   0.935 -0.0711 -0.0392 -0.5387
15334TIP3   OH267416   0.015   6.520  12.233  0.0470 -0.2086  0.3873
15334TIP3    H167417   0.107   6.521  12.207  0.6067  0.9957  2.1989
15334TIP3    H267418   0.017   6.523  12.329 -1.8898 -1.3519  0.5310
15335TIP3   OH267419   4.184   5.645   4.039 -0.2634 -0.1793 -0.1228
15335TIP3    H167420   4.152   5.692   3.963 -1.1891 -1.3563 -0.4985
15335TIP3    H267421   4.122   5.573   4.052  0.0646 -0.2275  1.5301
15336TIP3   OH267422   4.454   3.145   5.009 -0.4270 -0.3086 -0.1463
15336TIP3    H167423   4.541   3.119   5.040 -0.0368  0.6386 -0.4062
15336TIP3    H267424   4.424   3.070   4.958 -0.8997 -1.7120  2.0728
15337TIP3   OH267425   0.835   6.231  12.297  0.0625  0.1308 -0.4763
15337TIP3    H167426   0.792   6.211  12.214  0.6717 -0.8040 -0.5844
15337TIP3    H267427   0.897   6.159  12.309  2.3351  1.9145 -0.8408
15338TIP3   OH267428   0.454   4.641  16.009  0.0888 -0.4959 -0.1579
15338TIP3    H167429   0.444   4.594  15.926  0.2276  0.3511 -0.6631
15338TIP3    H267430   0.392   4.713  16.004  0.3073 -0.2636  0.3542
15339TIP3   OH267431   3.422   5.778  16.779 -0.2747  0.2548  0.6131
15339TIP3    H167432   3.329   5.754  16.786 -0.0361 -0.5633  1.1179
15339TIP3    H267433   3.459   5.712  16.720  0.1887 -0.0300  1.2179
15340TIP3   OH267434   3.529   3.247   5.464 -0.1469  0.4595 -0.3288
15340TIP3    H167435   3.447   3.296   5.457  0.0076  0.6204 -1.1111
15340TIP3    H267436   3.525   3.183   5.394 -0.5438 -0.9842  0.9654
15341TIP3   OH267437   4.439   2.567   5.711 -0.5764 -0.0835  0.8066
15341TIP3    H167438   4.485   2.501   5.764  0.1904  0.3028  0.6417
15341TIP3    H267439   4.480   2.560   5.624 -2.0668 -0.9652  0.1402
15342TIP3   OH267440   1.907   0.192   6.485 -0.0962 -0.1728 -0.0400
15342TIP3    H167441   1.914   0.275   6.438  0.6438  0.4838  1.1815
15342TIP3    H267442   1.857   0.214   6.564 -1.5777 -1.3129 -0.6087
15343TIP3   OH267443   1.078   0.565   2.836 -0.0983 -0.4969  0.1003
15343TIP3    H167444   1.004   0.522   2.880 -1.5075  0.8128 -0.8630
15343TIP3    H267445   1.041   0.648   2.804  2.0624  0.6348  0.3910
15344TIP3   OH267446   4.781   5.896  15.443 -0.1780  0.1291 -0.1605
15344TIP3    H167447   4.818   5.918  15.529  0.7976  0.9462 -0.7788
15344TIP3    H267448   4.728   5.971  15.420 -0.0685  0.1069 -0.4838
15345TIP3   OH267449   0.273   5.391  13.422  0.1177  0.3861  0.2339
15345TIP3    H167450   0.324   5.343  13.357 -1.1551  0.4774 -0.8738
15345TIP3    H267451   0.182   5.365  13.406 -0.2772  0.7739  1.6764
15346TIP3   OH267452   0.671   0.376  12.853  0.0792 -0.6022 -0.1524
15346TIP3    H167453   0.577   0.375  12.838  0.1095 -1.6381 -0.3394
15346TIP3    H267454   0.685   0.312  12.923  0.6653 -0.5577 -0.2191
15347TIP3   OH267455   0.259   4.027  16.361 -0.1029 -0.5974 -0.2229
15347TIP3    H167456   0.350   4.055  16.355 -0.7405  2.0321  0.7199
15347TIP3    H267457   0.209   4.101  16.325 -1.9463 -0.7035  1.8748
15348TIP3   OH267458   6.221   4.305  12.045 -0.2777  0.0634 -0.5097
15348TIP3    H167459   6.226   4.329  11.953 -0.5342 -0.0128 -0.5431
15348TIP3    H267460   6.284   4.233  12.054 -0.5357 -0.1912 -0.7096
15349TIP3   OH267461   5.619   3.896   1.498  0.3940 -0.1514  0.3693
15349TIP3    H167462   5.562   3.929   1.566 -0.1561 -0.2006 -0.0589
15349TIP3    H267463   5.562   3.842   1.443  1.2071 -1.6606  0.9321
15350TIP3   OH267464   5.717   2.803  13.750 -0.3969  0.2327 -0.0712
15350TIP3    H167465   5.680   2.885  13.782  1.1277  0.6448  0.7418
15350TIP3    H267466   5.696   2.740  13.818 -0.4088  0.2474 -0.0610
15351TIP3   OH267467   1.938   3.823   3.182  0.3049 -0.1882 -0.3392
15351TIP3    H167468   1.913   3.878   3.108 -0.1536 -1.2982 -1.0434
15351TIP3    H267469   2.002   3.874   3.230  0.8191  0.4485 -1.6585
15352TIP3   OH267470   5.386   4.370  15.575  0.4775  0.3690  0.9770
15352TIP3    H167471   5.396   4.312  15.651  2.4383  0.3931  0.7787
15352TIP3    H267472   5.465   4.355  15.523  0.0730  1.7796 -0.0884
15353TIP3   OH267473   5.761   1.960   1.518  0.2048  0.0658  0.1540
15353TIP3    H167474   5.676   1.929   1.549  0.5282 -1.2655 -0.2004
15353TIP3    H267475   5.748   2.053   1.500 -1.3023 -0.2075 -0.3256
15354TIP3   OH267476   5.980   2.982   0.877  0.2269  0.1152  0.1549
15354TIP3    H167477   5.990   2.892   0.907  0.9598  0.4250  0.8758
15354TIP3    H267478   5.897   2.982   0.829 -0.0779 -0.8033  0.6546
15355TIP3   OH267479   2.069   5.214   0.273  0.5442 -0.1434 -0.5557
15355TIP3    H167480   2.031   5.196   0.187 -2.0929 -2.0439  0.8801
15355TIP3    H267481   2.017   5.287   0.307  0.4699 -0.4905  0.0803
15356TIP3   OH267482   4.609   4.137   2.981  0.0807 -0.3238 -0.3376
15356TIP3    H167483   4.628   4.206   2.916  0.6454 -1.3965 -1.3576
15356TIP3    H267484   4.568   4.068   2.930  1.5295 -1.6542  0.2259
15357TIP3   OH267485   1.719   2.929  13.466 -0.2874  0.5170  0.1700
15357TIP3    H167486   1.716   2.874  13.545 -0.7104 -1.2782 -1.0380
15357TIP3    H267487   1.697   2.869  13.394 -0.0741  2.1354 -1.3061
15358TIP3   OH267488   0.537   3.118  11.280  0.6547  0.1639  0.1346
15358TIP3    H167489   0.568   3.206  11.259  1.2599 -0.2537 -0.7982
15358TIP3    H267490   0.471   3.100  11.213  0.1748  0.0986  0.6246
15359TIP3   OH267491   2.414   0.383   5.619  0.1356 -0.5818  0.7501
15359TIP3    H167492   2.332   0.404   5.663  0.3636  1.3770  0.3548
15359TIP3    H267493   2.463   0.331   5.682 -0.9314 -0.7697  1.4529
15360TIP3   OH267494   6.306   0.622   2.030 -0.0376  0.2952  0.2981
15360TIP3    H167495   6.295   0.550   1.968  2.3966 -0.4597  0.6575
15360TIP3    H267496   6.228   0.676   2.018 -1.5605 -1.9480 -0.5519
15361TIP3   OH267497   6.431   3.101   0.683  0.5498  0.1995  0.5679
15361TIP3    H167498   6.405   3.192   0.679  1.4033  0.4287 -0.2035
15361TIP3    H267499   6.385   3.066   0.759 -0.7210  0.9580  0.1856
15362TIP3   OH267500   2.336   5.590  13.961  0.2648 -0.0647 -0.2954
15362TIP3    H167501   2.321   5.671  13.913  0.8949  0.5421  0.4932
15362TIP3    H267502   2.371   5.530  13.897 -2.6338 -0.6036 -1.5365
15363TIP3   OH267503   3.883   4.904  15.497  0.2493  0.4519 -0.2898
15363TIP3    H167504   3.855   4.987  15.536 -1.2337 -0.7331  1.3332
15363TIP3    H267505   3.870   4.839  15.566  0.4926 -1.2920 -1.7920
15364TIP3   OH267506   1.554   6.427   4.100 -0.0325  0.3739 -0.6960
15364TIP3    H167507   1.523   6.337   4.101  0.3137  0.2443  0.9632
15364TIP3    H267508   1.521   6.465   4.182  0.0751  1.6620 -1.2257
15365TIP3   OH267509   4.455   5.417   2.305 -0.0079  0.2449 -0.3363
15365TIP3    H167510   4.399   5.390   2.233  0.6485  0.4961 -0.9534
15365TIP3    H267511   4.524   5.350   2.309 -0.2914 -0.0119  0.3518
15366TIP3   OH267512   4.264   5.173   2.517  0.0288 -0.2577  0.2853
15366TIP3    H167513   4.293   5.263   2.500  0.7586 -0.3188  1.1341
15366TIP3    H267514   4.196   5.157   2.451  1.8996 -0.0965 -1.8171
15367TIP3   OH267515   1.149   2.196  14.589  0.0081  0.3366 -0.1265
15367TIP3    H167516   1.105   2.169  14.669  1.1123 -0.6500  0.1813
15367TIP3    H267517   1.198   2.118  14.561 -1.5331  0.1475 -2.6106
15368TIP3   OH267518   1.359   2.980  12.701  0.0583  0.0387 -0.1636
15368TIP3    H167519   1.357   2.971  12.796 -1.3764 -2.7972 -0.3383
15368TIP3    H267520   1.452   2.983  12.679  0.4116  0.4575  1.2822
15369TIP3   OH267521   6.617   2.491  16.404  0.1044 -0.2935  0.5802
15369TIP3    H167522   6.666   2.418  16.367 -0.4497  0.5530 -2.0096
15369TIP3    H267523   6.682   2.557  16.424  0.2936 -0.1867 -0.3556
15370TIP3   OH267524   5.068   4.005   1.696  0.3557 -0.3539  0.5295
15370TIP3    H167525   5.066   3.911   1.714 -0.1134 -0.2771  0.9091
15370TIP3    H267526   4.986   4.038   1.733 -0.5393 -0.1406 -1.5182
15371TIP3   OH267527   2.761   5.530  16.448  0.2291  0.4648 -0.5366
15371TIP3    H167528   2.801   5.577  16.521  2.4692  0.2420 -1.5204
15371TIP3    H267529   2.699   5.592  16.410  0.2504  1.1746  0.5611
15372TIP3   OH267530   4.601   4.633  13.692  0.2719  0.6677  0.0057
15372TIP3    H167531   4.661   4.615  13.764  0.5510 -1.9297 -0.7575
15372TIP3    H267532   4.589   4.728  13.693  1.5860  0.8764  2.3797
15373TIP3   OH267533   3.830   2.119   3.153 -0.0655  0.1320  0.0974
15373TIP3    H167534   3.776   2.198   3.154 -0.0374  0.1738  1.9392
15373TIP3    H267535   3.767   2.047   3.148 -0.2035  0.2366  0.2960
15374TIP3   OH267536   0.431   0.185  15.550  0.5468 -0.2691 -0.0943
15374TIP3    H167537   0.520   0.217  15.564 -0.1289  1.5620  0.2508
15374TIP3    H267538   0.440   0.117  15.482  2.2165 -0.2911  0.1232
15375TIP3   OH267539   3.056   4.177  14.346 -0.3101 -0.3329  0.0532
15375TIP3    H167540   3.001   4.208  14.417 -0.4330  0.9465 -0.5717
15375TIP3    H267541   3.011   4.100  14.312 -1.1157  0.0172  0.2983
15376TIP3   OH267542   2.617   2.800  15.159  0.0948 -0.1969 -0.1062
15376TIP3    H167543   2.553   2.863  15.127 -0.1407 -0.3654  0.0321
15376TIP3    H267544   2.615   2.728  15.095 -0.2239 -0.4369  0.1752
15377TIP3   OH267545   5.027   4.225  11.419  0.2121  0.4758 -0.2636
15377TIP3    H167546   5.111   4.180  11.418  0.8724  1.5812  1.5218
15377TIP3    H267547   5.001   4.229  11.327  2.2707  0.4044 -0.8977
15378TIP3   OH267548   4.945   4.001  16.917 -0.6174 -1.0762  0.6755
15378TIP3    H167549   4.937   4.080  16.863 -0.2096 -1.4937 -0.0129
15378TIP3    H267550   4.978   3.934  16.857  1.3374 -1.1829  1.7643
15379TIP3   OH267551   3.009   6.355   1.567  0.2530  0.0648 -0.1219
15379TIP3    H167552   3.059   6.280   1.600  0.8823 -0.5175 -2.1965
15379TIP3    H267553   3.028   6.426   1.628  2.3106 -0.6055  0.1012
15380TIP3   OH267554   1.956   5.466  13.295 -0.3463  0.4544  0.9436
15380TIP3    H167555   1.986   5.492  13.382  0.3501 -0.4948  1.0039
15380TIP3    H267556   2.037   5.452  13.246 -0.6917  2.6861 -0.4154
15381TIP3   OH267557   3.673   5.431   3.861  0.6530 -0.7867 -0.8139
15381TIP3    H167558   3.608   5.476   3.916  2.5652 -0.5812  1.4454
15381TIP3    H267559   3.668   5.476   3.777 -2.2799 -0.9632 -0.8452
15382TIP3   OH267560   2.951   0.557  15.601  0.5227  0.1546  0.0041
15382TIP3    H167561   3.000   0.575  15.520  0.5378 -0.2935 -0.0889
15382TIP3    H267562   3.019   0.537  15.665  0.4617 -0.9287 -0.2401
15383TIP3   OH267563   4.367   2.372  14.232  0.1858 -0.8893  0.2542
15383TIP3    H167564   4.376   2.462  14.199 -0.1214 -0.9621 -0.0277
15383TIP3    H267565   4.438   2.363  14.295  1.0102 -0.8749 -0.6528
15384TIP3   OH267566   0.966   2.876   4.238 -0.8247 -0.1487 -0.2874
15384TIP3    H167567   0.902   2.806   4.228 -1.9812  0.9319 -0.7198
15384TIP3    H267568   0.914   2.956   4.241  0.4213  0.6677  0.7619
15385TIP3   OH267569   5.855   6.031  15.626 -0.6588 -0.3567  0.2911
15385TIP3    H167570   5.930   5.977  15.603 -0.3412 -0.2957  1.1583
15385TIP3    H267571   5.863   6.046  15.720 -0.4717  1.5957  0.0090
15386TIP3   OH267572   4.770   1.584   0.454  0.1979 -0.0962 -0.3529
15386TIP3    H167573   4.791   1.496   0.424 -2.2336 -0.5913 -0.7844
15386TIP3    H267574   4.696   1.573   0.513 -0.9690  1.7276 -1.3722
15387TIP3   OH267575   5.437   6.272   5.345  0.1860  0.2508 -0.8255
15387TIP3    H167576   5.438   6.348   5.403  0.5010  0.2435 -0.8226
15387TIP3    H267577   5.351   6.232   5.361  1.1591 -1.1391  1.4469
15388TIP3   OH267578   5.224   4.261   3.042  0.1025  0.9861  0.0381
15388TIP3    H167579   5.312   4.265   3.078  0.3518  1.8126 -0.6549
15388TIP3    H267580   5.187   4.347   3.059 -0.2115  0.9775 -0.5900
15389TIP3   OH267581   0.776   4.192  16.215  0.0180  1.2060  0.3480
15389TIP3    H167582   0.840   4.232  16.275 -1.3289  2.5151  0.9970
15389TIP3    H267583   0.824   4.181  16.133  1.6563  0.2104  1.3692
15390TIP3   OH267584   6.648   6.172  16.750  0.0961 -1.2859  0.1904
15390TIP3    H167585   6.570   6.185  16.697  0.7012  1.4516 -0.1892
15390TIP3    H267586   6.721   6.191  16.691  0.7937  2.2829  1.9434
15391TIP3   OH267587   5.388   4.548  11.932  0.2712  0.4666  0.2953
15391TIP3    H167588   5.479   4.565  11.957  0.5382  0.3545 -0.5646
15391TIP3    H267589   5.352   4.496  12.004  0.5177  1.5405  1.2268
15392TIP3   OH267590   6.027   5.742   3.246  0.1536  0.2633 -0.2487
15392TIP3    H167591   5.988   5.742   3.159  0.7911 -0.0781 -0.5451
15392TIP3    H267592   6.092   5.672   3.242 -0.1180 -0.0520  0.6412
15393TIP3   OH267593   5.816   3.781  14.340  0.4766 -0.2489 -0.5805
15393TIP3    H167594   5.758   3.856  14.327 -1.1035 -1.2843  0.2067
15393TIP3    H267595   5.757   3.706  14.349  2.0344 -1.8415 -2.6961
15394TIP3   OH267596   6.463   3.736   2.036 -0.2446  0.0663 -0.2059
15394TIP3    H167597   6.467   3.671   2.106 -0.4462 -1.0295 -1.1597
15394TIP3    H267598   6.372   3.737   2.009  0.0557 -0.5134 -1.3106
15395TIP3   OH267599   0.546   6.457   1.175  0.6144 -0.1850  0.1889
15395TIP3    H167600   0.541   6.420   1.087  0.6364  1.0540 -0.3526
15395TIP3    H267601   0.631   6.427   1.209  3.0358  3.3208 -2.1350
15396TIP3   OH267602   2.958   2.055   2.849  0.3211  0.0302  0.3332
15396TIP3    H167603   2.872   2.058   2.890  0.9470 -1.1764  1.8053
15396TIP3    H267604   3.007   2.126   2.891  0.4289 -0.0667  0.3698
15397TIP3   OH267605   4.003   4.973  15.858 -0.0187  0.1017 -0.5431
15397TIP3    H167606   4.068   4.917  15.899 -0.0889  0.7254  0.4599
15397TIP3    H267607   4.035   5.062  15.874 -1.7721  0.4841  1.1569
15398TIP3   OH267608   1.967   4.787  12.295  0.2628 -0.1199  0.3159
15398TIP3    H167609   1.893   4.847  12.303  0.5616  0.8479 -2.9828
15398TIP3    H267610   1.932   4.703  12.323 -2.0192  0.3679 -0.8112
15399TIP3   OH267611   3.627   5.163  17.124 -1.1987  0.1177 -0.4812
15399TIP3    H167612   3.719   5.155  17.150 -1.2152 -4.4893 -1.0487
15399TIP3    H267613   3.578   5.143  17.204 -1.5461 -1.8352 -1.1547
15400TIP3   OH267614   6.734   5.360  10.906  0.1896 -0.1425 -0.0199
15400TIP3    H167615   6.785   5.300  10.852  0.6208  0.4917 -0.3229
15400TIP3    H267616   6.743   5.445  10.864 -1.5217 -0.0923 -0.3521
15401TIP3   OH267617   1.594   6.320  13.033  0.2229  0.4113 -0.4736
15401TIP3    H167618   1.509   6.277  13.024  0.9550 -1.1572 -0.2292
15401TIP3    H267619   1.592   6.390  12.967 -1.4506  0.7650 -0.0934
15402TIP3   OH267620   3.115   5.545   4.196 -0.0116  0.0241  0.5679
15402TIP3    H167621   3.115   5.632   4.235 -2.2655 -0.4127  1.6863
15402TIP3    H267622   3.080   5.558   4.108 -1.8794  0.0728  1.2920
15403TIP3   OH267623   2.682   5.317  12.942 -0.0131 -0.0922 -0.0781
15403TIP3    H167624   2.720   5.383  12.885  1.4563 -1.9561 -1.3895
15403TIP3    H267625   2.648   5.250  12.882 -0.7222 -0.9329  1.2009
15404TIP3   OH267626   2.588   5.624  17.137  0.7400 -0.2946  0.0418
15404TIP3    H167627   2.606   5.689  17.068 -1.3724 -1.1966 -1.4703
15404TIP3    H267628   2.526   5.668  17.195 -0.9618 -0.9516 -1.1718
15405TIP3   OH267629   5.356   2.440  11.490 -0.0634 -0.1411 -0.1280
15405TIP3    H167630   5.451   2.434  11.475 -0.3518 -0.2436 -2.1550
15405TIP3    H267631   5.323   2.354  11.464 -0.8709  0.3829 -0.8670
15406TIP3   OH267632   4.795   4.015  10.358 -0.1074  0.4309 -0.0584
15406TIP3    H167633   4.775   3.922  10.347 -0.9614  0.3074  2.0776
15406TIP3    H267634   4.712   4.060  10.339 -0.0750  0.6265  0.2444
15407TIP3   OH267635   2.155   0.202  12.448 -0.0614 -0.5495 -0.0283
15407TIP3    H167636   2.070   0.209  12.404  0.2978  0.4660 -0.5848
15407TIP3    H267637   2.146   0.257  12.526 -0.3758 -1.5904  0.6991
15408TIP3   OH267638   6.503   1.925  12.102 -0.3185  0.1329 -0.1336
15408TIP3    H167639   6.445   1.953  12.173 -0.4712  1.7463 -0.8466
15408TIP3    H267640   6.498   1.996  12.038  1.7710 -0.0914 -0.6132
15409TIP3   OH267641   1.417   0.759  12.483  0.3223 -0.5610  0.1050
15409TIP3    H167642   1.366   0.720  12.412 -1.0269  2.6100 -0.8523
15409TIP3    H267643   1.501   0.782  12.442 -0.7044  1.8976 -0.7975
15410TIP3   OH267644   1.631   6.192  15.131 -0.5519  0.0180  0.7687
15410TIP3    H167645   1.575   6.232  15.065  1.9156  3.1849  0.3488
15410TIP3    H267646   1.611   6.240  15.212 -2.1238 -2.4813  1.9970
15411TIP3   OH267647   6.202   1.585  16.656 -0.4246 -0.0907 -0.3102
15411TIP3    H167648   6.232   1.667  16.616 -3.4762  2.6639  2.5021
15411TIP3    H267649   6.170   1.533  16.582  2.6467  0.6023 -2.3203
15412TIP3   OH267650   4.024   0.229   0.729  0.0822  0.1143 -0.3334
15412TIP3    H167651   3.957   0.268   0.675 -1.5367  0.0190  1.4833
15412TIP3    H267652   4.008   0.134   0.723  0.5806  0.0366 -0.5216
15413TIP3   OH267653   4.268   0.349   1.634 -0.0554  0.2479  0.0825
15413TIP3    H167654   4.227   0.385   1.556  0.8172 -0.8697 -0.9275
15413TIP3    H267655   4.196   0.335   1.696 -0.9187  0.0392 -0.9568
15414TIP3   OH267656   6.260   5.066  11.937 -0.3271  0.1928  0.1940
15414TIP3    H167657   6.211   5.039  12.015 -0.4017  0.0162  0.0859
15414TIP3    H267658   6.346   5.092  11.970 -0.2074 -0.3152  0.2776
15415TIP3   OH267659   0.422   3.943  12.483 -0.3662  0.2801 -0.4816
15415TIP3    H167660   0.498   3.955  12.541 -0.2045 -0.2312 -0.5745
15415TIP3    H267661   0.352   3.994  12.524 -0.1252  0.3020 -0.0873
15416TIP3   OH267662   6.181   5.349   1.630  0.0725 -0.1307 -0.3710
15416TIP3    H167663   6.125   5.418   1.665  0.8192  0.1339  0.3207
15416TIP3    H267664   6.206   5.297   1.706 -0.4878 -1.1811 -0.8821
15417TIP3   OH267665   1.192   4.206  11.479 -0.1214  0.4395 -0.1788
15417TIP3    H167666   1.245   4.271  11.525 -1.1792  2.7892 -1.9915
15417TIP3    H267667   1.106   4.211  11.520  0.0753 -0.6771  0.3966
15418TIP3   OH267668   2.012   5.268   2.468  0.2190  0.2006 -0.2764
15418TIP3    H167669   2.093   5.316   2.448 -0.1783  1.1188  0.2451
15418TIP3    H267670   2.009   5.264   2.563 -0.3499  0.1736 -0.2914
15419TIP3   OH267671   1.457   3.450  12.440  0.0417 -0.5858  0.2789
15419TIP3    H167672   1.466   3.543  12.420 -0.1630 -0.2282  1.7347
15419TIP3    H267673   1.535   3.410  12.401  0.3273  0.2489 -0.0350
15420TIP3   OH267674   1.555   6.320  10.836  0.4741  0.1880  0.1848
15420TIP3    H167675   1.646   6.347  10.844  0.6210 -0.2403 -0.0087
15420TIP3    H267676   1.531   6.341  10.746  1.2426 -2.2259 -0.6623
15421TIP3   OH267677   5.385   4.188   2.641  0.1307 -0.6508  0.8426
15421TIP3    H167678   5.446   4.114   2.642  1.4230  0.3520 -0.2808
15421TIP3    H267679   5.408   4.237   2.562 -1.9979 -0.0960  0.5035
15422TIP3   OH267680   1.570   2.459   4.431  0.1237  0.0850  0.7063
15422TIP3    H167681   1.618   2.426   4.355  0.4019  2.1907 -0.1042
15422TIP3    H267682   1.479   2.435   4.414  0.5107 -1.7880  1.0573
15423TIP3   OH267683   6.070   0.122   3.460  0.4327 -0.0556 -0.2674
15423TIP3    H167684   6.126   0.054   3.497  0.5585  0.1089 -0.1545
15423TIP3    H267685   6.131   0.184   3.420  0.3318  0.1321 -0.1315
15424TIP3   OH267686   2.934   5.272   0.728  0.5180 -0.0644 -0.2984
15424TIP3    H167687   2.859   5.301   0.677  1.0133  0.2737 -0.8475
15424TIP3    H267688   3.009   5.286   0.670  1.1441  0.7452  0.6703
15425TIP3   OH267689   3.703   6.532   5.582 -0.3847 -0.1094  0.1570
15425TIP3    H167690   3.793   6.507   5.605 -0.9658 -2.6032  0.0288
15425TIP3    H267691   3.654   6.450   5.589 -1.7576  0.1096 -4.3415
15426TIP3   OH267692   2.075   6.331   1.537  0.3852 -0.3934  0.4228
15426TIP3    H167693   2.060   6.318   1.631 -1.6355  0.2630  0.2459
15426TIP3    H267694   1.991   6.308   1.497  0.7276  0.8289 -1.0669
15427TIP3   OH267695   1.144   4.638   5.737 -0.2028  0.1380 -0.2720
15427TIP3    H167696   1.218   4.584   5.711  1.1713  1.2918  1.0984
15427TIP3    H267697   1.183   4.720   5.767 -2.0479  0.8828  0.2228
15428TIP3   OH267698   1.196   6.370   5.721 -0.0155 -0.0329 -0.4867
15428TIP3    H167699   1.232   6.306   5.659 -0.5322  0.3032 -1.1530
15428TIP3    H267700   1.268   6.387   5.782 -0.0526 -1.6927  0.0727
15429TIP3   OH267701   1.226   5.376   1.976  0.5906 -0.1161  0.0492
15429TIP3    H167702   1.166   5.321   1.926 -0.4642 -0.2211  1.3819
15429TIP3    H267703   1.255   5.321   2.049 -0.5464  1.0456  1.4561
15430TIP3   OH267704   1.495   1.385   3.210 -0.2981  0.2297 -0.0875
15430TIP3    H167705   1.503   1.332   3.131 -0.5063 -0.4802  0.3580
15430TIP3    H267706   1.584   1.418   3.226  0.2537 -1.4681  0.6257
15431TIP3   OH267707   3.220   3.080   3.046 -0.2498 -0.4299  0.0615
15431TIP3    H167708   3.266   3.077   3.129 -1.1566  2.4973  0.7853
15431TIP3    H267709   3.289   3.094   2.980  0.5500 -3.5183  0.1173
15432TIP3   OH267710   5.658   1.915  12.948 -0.4021  0.1123 -0.1489
15432TIP3    H167711   5.645   2.000  12.990 -2.1879 -0.2456  0.1304
15432TIP3    H267712   5.751   1.913  12.925  0.4106  0.8478  2.6445
15433TIP3   OH267713   4.770   6.620  15.185  0.1628  0.4024  0.0682
15433TIP3    H167714   4.734   6.598  15.271  0.0431 -1.7579 -0.4586
15433TIP3    H267715   4.715   6.691  15.153 -2.5062 -1.4625  0.1090
15434TIP3   OH267716   2.572   3.553   3.073 -0.0707  0.0846 -0.4618
15434TIP3    H167717   2.601   3.623   3.014  0.8476 -0.5264 -0.7575
15434TIP3    H267718   2.505   3.594   3.128  0.3174  1.1491 -0.7564
15435TIP3   OH267719   1.840   4.531   1.038 -0.8107 -0.5260 -0.0578
15435TIP3    H167720   1.799   4.513   1.123 -0.7762  0.4741  0.1809
15435TIP3    H267721   1.920   4.579   1.061 -1.0075  0.0975 -0.6840
15436TIP3   OH267722   2.048   2.447  11.850  0.6708  0.0748  0.3239
15436TIP3    H167723   2.070   2.354  11.854 -1.6059 -0.5609 -0.4136
15436TIP3    H267724   2.006   2.466  11.934  1.5079  0.5512  0.6388
15437TIP3   OH267725   4.809   4.665   5.987 -0.0437  0.1445  0.3206
15437TIP3    H167726   4.736   4.669   6.048  0.0413 -0.4929  0.4749
15437TIP3    H267727   4.836   4.573   5.988 -0.1306  0.0975 -0.7771
15438TIP3   OH267728   3.280   2.008  17.108  0.3711 -0.2922  0.0577
15438TIP3    H167729   3.325   1.930  17.073  0.8558 -0.3638  0.8200
15438TIP3    H267730   3.243   1.979  17.191  0.2951  0.2175  0.2034
15439TIP3   OH267731   0.250   4.008   0.009 -0.1056 -0.3615 -0.3061
15439TIP3    H167732   0.242   3.926  -0.040  1.5186 -0.5826 -0.2598
15439TIP3    H267733   0.302   3.984   0.086 -0.4477  0.5176  0.1999
15440TIP3   OH267734   6.658   1.127  15.306 -0.1329  0.2300  0.3937
15440TIP3    H167735   6.649   1.134  15.401  0.7720  1.0165  0.4400
15440TIP3    H267736   6.577   1.166  15.271 -0.7106 -0.5599  0.8382
15441TIP3   OH267737   4.004   0.172  13.874 -0.4011  0.0295  0.2661
15441TIP3    H167738   3.911   0.190  13.891 -0.0597  1.9248  0.3352
15441TIP3    H267739   4.003   0.109  13.803 -1.7825  1.5138 -1.1289
15442TIP3   OH267740   4.135   2.397  12.604  0.0103  0.0568  0.0140
15442TIP3    H167741   4.109   2.312  12.641  0.7164  0.0452  0.4971
15442TIP3    H267742   4.187   2.438  12.672  1.5004 -0.0375 -1.0225
15443TIP3   OH267743   1.662   5.169   1.932 -0.2336  0.3591 -0.1043
15443TIP3    H167744   1.620   5.197   2.013  1.6645  0.2739  0.9715
15443TIP3    H267745   1.730   5.108   1.960  1.7367  1.7586 -1.5591
15444TIP3   OH267746   4.366   1.308   4.000  0.2046 -0.1786 -0.5712
15444TIP3    H167747   4.416   1.379   3.958 -0.8741  0.3648 -0.9617
15444TIP3    H267748   4.358   1.336   4.092 -0.4572  0.3492 -0.7848
15445TIP3   OH267749   5.706   6.291   2.608  0.2258  0.4421  0.0017
15445TIP3    H167750   5.799   6.273   2.597 -0.0382 -0.3151 -1.2470
15445TIP3    H267751   5.687   6.363   2.549  0.3109  1.6896  1.4424
15446TIP3   OH267752   1.562   2.151   1.781 -0.6678 -0.2535  0.2138
15446TIP3    H167753   1.611   2.200   1.715  1.3008 -1.3846  0.7665
15446TIP3    H267754   1.528   2.075   1.735 -0.5766 -0.2804  0.1931
15447TIP3   OH267755   4.248   6.260  14.207  0.3434 -0.3488 -0.3401
15447TIP3    H167756   4.239   6.234  14.299 -0.2982 -1.0663 -0.5961
15447TIP3    H267757   4.217   6.351  14.205 -1.2003 -0.8432 -0.1274
15448TIP3   OH267758   3.756   6.489  15.160  0.0950  0.1757 -0.8160
15448TIP3    H167759   3.720   6.570  15.197 -0.6675 -0.2129 -0.7008
15448TIP3    H267760   3.851   6.500  15.168  0.0099  1.1395 -0.9709
15449TIP3   OH267761   1.798   2.605   5.894 -0.1510 -0.4576 -0.1651
15449TIP3    H167762   1.861   2.619   5.823  0.4935  0.4598  0.5673
15449TIP3    H267763   1.830   2.660   5.966 -1.3250 -0.6228  0.5092
15450TIP3   OH267764   5.700   0.260  12.179 -0.4682  1.0246  0.5010
15450TIP3    H167765   5.676   0.172  12.208  2.3217 -0.2990 -0.7428
15450TIP3    H267766   5.618   0.300  12.153 -1.6452 -2.6333 -2.4274
15451TIP3   OH267767   3.348   3.990   1.552 -0.4915 -0.2598 -0.3147
15451TIP3    H167768   3.408   3.921   1.523  0.4292  0.0557  0.7766
15451TIP3    H267769   3.385   4.071   1.516 -0.4115 -0.0960  0.1341
15452TIP3   OH267770   3.574   2.328   4.266  0.2989 -0.4643  0.1688
15452TIP3    H167771   3.563   2.263   4.335  0.2865  1.4342  2.0523
15452TIP3    H267772   3.497   2.385   4.274  0.0489 -0.4476 -1.7540
15453TIP3   OH267773   0.770   4.696   1.300 -0.6143  0.1868  0.1685
15453TIP3    H167774   0.689   4.646   1.300  1.0567 -2.8339  2.1175
15453TIP3    H267775   0.832   4.641   1.252  0.6810  1.7433 -0.0344
15454TIP3   OH267776   0.429   1.779   0.231  0.1491  0.5581  0.2122
15454TIP3    H167777   0.338   1.754   0.246  0.3678  0.3210  1.2650
15454TIP3    H267778   0.453   1.736   0.149  0.4970 -2.8890  1.9041
15455TIP3   OH267779   1.148   5.606  10.521  0.1030  0.0148 -0.2936
15455TIP3    H167780   1.174   5.581  10.432  2.1348  1.8832 -0.3003
15455TIP3    H267781   1.188   5.540  10.577  1.0814  0.3381 -0.6066
15456TIP3   OH267782   5.406   4.737   3.069 -0.1374  0.3299 -0.2390
15456TIP3    H167783   5.456   4.760   2.991 -0.5679 -0.5348 -0.7750
15456TIP3    H267784   5.468   4.690   3.124  0.1197  0.7974 -0.1203
15457TIP3   OH267785   2.807   2.707   4.327 -0.1696 -0.3190  0.2789
15457TIP3    H167786   2.844   2.619   4.329 -2.6020 -1.5409 -1.5741
15457TIP3    H267787   2.820   2.736   4.237  0.3319  1.0946  0.7976
15458TIP3   OH267788   1.618   5.908  12.855  0.4753 -0.4884 -0.5358
15458TIP3    H167789   1.686   5.847  12.825  0.3236 -0.8445 -0.1718
15458TIP3    H267790   1.623   5.904  12.951  1.9395  1.7353 -0.4537
15459TIP3   OH267791   2.738   3.477   2.308 -0.0247  0.2605  0.2209
15459TIP3    H167792   2.736   3.408   2.241  0.5859  0.1204  0.3357
15459TIP3    H267793   2.743   3.559   2.258 -1.5031  0.2834  0.0695
15460TIP3   OH267794   2.993   4.665  14.157 -0.4507  0.3752  0.0522
15460TIP3    H167795   2.939   4.665  14.236 -0.3589  1.8097  0.1330
15460TIP3    H267796   2.930   4.671  14.085 -0.4895 -0.0224  0.0511
15461TIP3   OH267797   6.187   4.503  14.556 -0.7725  0.3142 -0.2840
15461TIP3    H167798   6.213   4.556  14.480 -0.4604  0.3212 -0.1749
15461TIP3    H267799   6.153   4.422  14.518 -0.9549  0.4614 -0.4416
15462TIP3   OH267800   2.080   5.895  14.880 -0.2088 -0.3508 -0.5140
15462TIP3    H167801   2.112   5.808  14.853  0.2080 -0.0437 -1.0383
15462TIP3    H267802   2.155   5.953  14.866 -0.8008  0.2758 -1.1851
15463TIP3   OH267803   1.137   4.424   0.597 -0.5969  0.4672  0.1133
15463TIP3    H167804   1.178   4.345   0.632  0.1052  0.7307 -0.0991
15463TIP3    H267805   1.174   4.495   0.649  2.3277  1.1531 -2.5778
15464TIP3   OH267806   1.148   4.523   3.499 -0.5642  0.0348  0.2605
15464TIP3    H167807   1.092   4.600   3.496  0.5543  0.8412 -2.6580
15464TIP3    H267808   1.094   4.452   3.463 -0.0123  0.6801 -1.9898
15465TIP3   OH267809   6.031   2.371  14.920  0.3032 -0.0729 -0.2133
15465TIP3    H167810   6.077   2.360  15.003  0.7361  0.8958 -0.3158
15465TIP3    H267811   5.938   2.372  14.945  0.4696  2.5192  0.5968
15466TIP3   OH267812   1.433   0.527  13.971 -0.5942 -0.1839 -0.4984
15466TIP3    H167813   1.370   0.589  14.008 -1.0601 -0.9894  0.0885
15466TIP3    H267814   1.385   0.444  13.965 -0.2619 -0.2867 -2.1340
15467TIP3   OH267815   3.550   0.784   1.313 -0.1543 -0.7528  0.8595
15467TIP3    H167816   3.588   0.872   1.314 -0.6632 -0.5296  1.1207
15467TIP3    H267817   3.501   0.778   1.395 -1.1722 -0.7960  0.2749
15468TIP3   OH267818   3.409   5.614   0.606  0.2079  0.1257 -0.0563
15468TIP3    H167819   3.482   5.577   0.655 -0.6878 -3.0350 -0.8594
15468TIP3    H267820   3.446   5.634   0.520  0.4027 -0.2240 -0.0534
15469TIP3   OH267821   3.687   0.937   5.981 -0.7748 -0.4835  0.5922
15469TIP3    H167822   3.615   0.998   5.997  0.2843  1.3138 -0.9853
15469TIP3    H267823   3.764   0.993   5.972  0.6339 -2.2455  1.0252
15470TIP3   OH267824   0.708   5.900  11.612 -0.5159 -0.2427 -0.3040
15470TIP3    H167825   0.728   5.944  11.530  0.1311  1.1108  0.5515
15470TIP3    H267826   0.748   5.813  11.603 -1.2995 -0.4813 -1.7745
15471TIP3   OH267827   3.132   6.186   1.739  0.3718  0.0496 -0.2715
15471TIP3    H167828   3.164   6.102   1.707  0.2185  0.3434 -1.2553
15471TIP3    H267829   3.094   6.167   1.824  0.8759 -0.7631 -0.2164
15472TIP3   OH267830   6.579   2.955   3.352  0.2171  0.5994 -0.2394
15472TIP3    H167831   6.494   2.955   3.396  0.1087 -0.1789 -0.4415
15472TIP3    H267832   6.639   2.993   3.416  0.0269 -0.3554  0.5266
15473TIP3   OH267833   5.458   1.623   2.054  0.0461 -0.0580  0.1607
15473TIP3    H167834   5.547   1.657   2.059  0.8180 -2.0479  0.6084
15473TIP3    H267835   5.437   1.596   2.143 -0.7926 -0.1482 -0.0504
15474TIP3   OH267836   5.166   4.364   1.293  0.0236  0.2613 -0.1557
15474TIP3    H167837   5.182   4.447   1.339  0.3941  0.2627 -0.2856
15474TIP3    H267838   5.134   4.305   1.361 -1.4224  0.8606 -0.2918
15475TIP3   OH267839   6.029   6.748  17.012  0.5176 -0.1930  0.0097
15475TIP3    H167840   6.109   6.724  17.059  1.8235  3.0635 -0.2552
15475TIP3    H267841   6.029   6.844  17.012 -1.6625 -0.0461 -2.9260
15476TIP3   OH267842   0.760   4.689   3.431 -0.1760 -0.1292 -0.1196
15476TIP3    H167843   0.744   4.727   3.518  2.1642 -1.8820  1.1913
15476TIP3    H267844   0.728   4.599   3.438  0.6997 -0.5103 -0.8079
15477TIP3   OH267845   6.098   0.972  13.461 -0.1662  0.2078 -0.5766
15477TIP3    H167846   6.164   1.015  13.515  0.5761 -2.0880  0.4711
15477TIP3    H267847   6.141   0.959  13.376  0.3219 -0.2387 -0.2658
15478TIP3   OH267848   3.100   2.033   4.655 -0.1202  0.6543  0.0819
15478TIP3    H167849   3.134   2.105   4.602  1.0916  0.4823  0.5868
15478TIP3    H267850   3.083   1.963   4.592  2.0152  0.1856 -0.0591
15479TIP3   OH267851   3.082   1.173   1.733 -0.6954 -0.0636 -0.0866
15479TIP3    H167852   3.161   1.214   1.699  0.9020 -2.5552  0.3418
15479TIP3    H267853   3.034   1.144   1.656  0.3191 -1.1201 -0.3441
15480TIP3   OH267854   5.155   2.974   0.077  0.3429  0.1401  0.1280
15480TIP3    H167855   5.209   3.042   0.036  0.8930 -0.7319 -0.6578
15480TIP3    H267856   5.071   2.979   0.032  0.3672  0.3315  0.1043
15481TIP3   OH267857   1.927   1.630  15.499  0.3282 -0.4195 -0.0461
15481TIP3    H167858   1.979   1.675  15.566  0.4497 -0.4441 -0.1249
15481TIP3    H267859   1.931   1.686  15.422 -0.4850  0.0192  0.2150
15482TIP3   OH267860   0.150   3.728  12.520 -0.0055 -0.2708 -0.6681
15482TIP3    H167861   0.095   3.683  12.456 -0.6753 -2.2633  1.1851
15482TIP3    H267862   0.093   3.797  12.556 -1.0103 -1.6606  0.5053
15483TIP3   OH267863   0.851   3.268  14.504 -0.3806 -0.4427 -0.1062
15483TIP3    H167864   0.855   3.197  14.568 -1.2937 -0.1745  0.2601
15483TIP3    H267865   0.758   3.286  14.494 -0.1329  2.0033  1.2521
15484TIP3   OH267866   0.767   6.635  12.417  0.9226 -0.6406 -0.4368
15484TIP3    H167867   0.845   6.684  12.443 -0.4806  1.0793  0.9207
15484TIP3    H267868   0.742   6.672  12.332 -0.3068  1.4104  0.7226
15485TIP3   OH267869   6.572   4.489   2.548  0.3007  0.4214 -1.2937
15485TIP3    H167870   6.478   4.473   2.551  0.4253 -0.1807 -0.2764
15485TIP3    H267871   6.609   4.408   2.513  0.4640  0.5977 -1.5383
15486TIP3   OH267872   5.976   2.869  15.840  0.2691  0.1200 -0.0685
15486TIP3    H167873   6.030   2.947  15.847  1.2777 -0.4821 -0.8455
15486TIP3    H267874   6.017   2.806  15.899 -0.0937 -0.0542 -0.0020
15487TIP3   OH267875   5.477   4.556  15.253 -0.0993 -0.0439  0.1599
15487TIP3    H167876   5.476   4.596  15.166  1.0393  0.6562  0.4467
15487TIP3    H267877   5.450   4.626  15.312  2.1169  0.4287  0.6915
15488TIP3   OH267878   6.681   4.248   2.464 -0.0425  0.4253 -0.0017
15488TIP3    H167879   6.683   4.207   2.377  0.1531  0.9039 -0.2234
15488TIP3    H267880   6.690   4.174   2.524 -0.1336  0.0925 -0.3878
15489TIP3   OH267881   1.431   4.142  16.879  0.2385  0.2860  0.0976
15489TIP3    H167882   1.390   4.130  16.965  1.9773  1.6524  1.1849
15489TIP3    H267883   1.401   4.068  16.827 -1.3818 -0.2194  1.6796
15490TIP3   OH267884   3.305   5.867   1.999 -0.1061 -0.0225  0.3625
15490TIP3    H167885   3.307   5.962   2.000 -2.0108  0.0487  1.8366
15490TIP3    H267886   3.321   5.841   2.089 -0.6567 -1.0678  0.1720
15491TIP3   OH267887   2.809   3.453   0.398  0.3937 -0.0783  0.0190
15491TIP3    H167888   2.851   3.484   0.479  2.1024  1.1305 -1.2733
15491TIP3    H267889   2.882   3.427   0.342 -0.5717  1.5113 -2.0859
15492TIP3   OH267890   6.252   4.362  14.125  0.5821 -0.4634  0.2686
15492TIP3    H167891   6.285   4.406  14.204 -1.3820 -1.9690  2.0304
15492TIP3    H267892   6.320   4.297  14.105  0.6045 -0.8213  1.4114
15493TIP3   OH267893   6.156   0.838   0.372 -0.3031  0.3341  0.0462
15493TIP3    H167894   6.230   0.894   0.392 -0.5980  0.7424  0.0033
15493TIP3    H267895   6.079   0.894   0.381 -0.5141  0.3097 -1.2942
15494TIP3   OH267896   5.781   2.341   1.220  0.0111 -0.1255 -0.4010
15494TIP3    H167897   5.852   2.287   1.184 -1.4081 -1.4990 -1.2872
15494TIP3    H267898   5.756   2.399   1.148  0.6732  0.8766  0.1443
15495TIP3   OH267899   0.266   1.764  14.302  0.2383  0.8187  0.3815
15495TIP3    H167900   0.187   1.800  14.263 -0.3167 -0.7467 -0.0240
15495TIP3    H267901   0.332   1.832  14.291 -0.3951  1.1630 -1.6351
15496TIP3   OH267902   0.199   3.855   2.360 -0.6518  0.1402  0.6089
15496TIP3    H167903   0.156   3.817   2.436  1.3722 -2.8832  0.3790
15496TIP3    H267904   0.273   3.904   2.396  0.2914 -1.2702  0.6607
15497TIP3   OH267905   4.946   6.598   2.111 -0.5710  0.0550  0.0772
15497TIP3    H167906   4.936   6.647   2.030 -1.4960  2.2102  1.3804
15497TIP3    H267907   4.981   6.662   2.173  1.3899 -1.8603  1.0808
15498TIP3   OH267908   3.684   0.929   3.014 -0.3364 -0.3536  0.5420
15498TIP3    H167909   3.765   0.966   2.979  0.7219 -1.3235  1.8311
15498TIP3    H267910   3.614   0.985   2.979  0.7513 -0.3260 -1.7133
15499TIP3   OH267911   3.232   6.560  15.232 -0.1635 -0.4510 -0.0635
15499TIP3    H167912   3.243   6.649  15.264 -2.0005 -0.5140  0.9019
15499TIP3    H267913   3.263   6.504  15.303 -0.7355 -0.5750  0.0941
15500TIP3   OH267914   5.010   0.248   5.030  0.2160  0.2288  0.5919
15500TIP3    H167915   5.032   0.259   4.937  1.6030 -0.2817  0.8342
15500TIP3    H267916   4.923   0.207   5.030  0.6322 -0.7052 -0.5113
15501TIP3   OH267917   1.221   1.214   1.290  0.8646  0.5635 -0.0259
15501TIP3    H167918   1.137   1.241   1.253  0.4210 -1.8728 -0.9590
15501TIP3    H267919   1.201   1.138   1.345  2.3733  0.3588  0.3042
15502TIP3   OH267920   3.336   5.195   6.124 -0.2771 -0.0477 -0.1705
15502TIP3    H167921   3.288   5.133   6.069  0.5782 -0.3451 -0.5881
15502TIP3    H267922   3.299   5.183   6.212 -1.5524  0.3343 -0.6316
15503TIP3   OH267923   2.983   6.094  11.023 -0.4427  0.5205  0.1711
15503TIP3    H167924   2.892   6.123  11.021 -0.5986  0.0592  0.3306
15503TIP3    H267925   3.011   6.097  10.931 -1.0212 -0.5389 -0.0631
15504TIP3   OH267926   5.085   4.130  15.908  0.0275 -0.1460 -0.4063
15504TIP3    H167927   5.087   4.201  15.973 -0.5483 -0.5340  0.0472
15504TIP3    H267928   5.039   4.059  15.953 -1.8442  0.1240 -1.7784
15505TIP3   OH267929   4.904   5.441   0.492 -0.1023 -0.6987 -0.1249
15505TIP3    H167930   4.983   5.495   0.486 -0.1138 -0.5141  1.0874
15505TIP3    H267931   4.847   5.473   0.422  0.9301 -0.9303 -1.1143
15506TIP3   OH267932   0.512   1.671  13.606  0.0776  0.0265 -0.0180
15506TIP3    H167933   0.553   1.757  13.613  1.7923 -0.7246 -0.1396
15506TIP3    H267934   0.564   1.616  13.666 -0.3676 -1.1197 -0.6675
15507TIP3   OH267935   6.099   2.999   3.818 -0.8283  0.3036 -0.0377
15507TIP3    H167936   6.075   3.091   3.809 -1.0613  0.1811 -0.7913
15507TIP3    H267937   6.122   2.988   3.910 -0.7677  1.1212  0.0486
15508TIP3   OH267938   2.404   0.344  15.600  0.2418 -0.4131  0.6987
15508TIP3    H167939   2.382   0.437  15.600 -0.3993 -0.5601  0.8083
15508TIP3    H267940   2.398   0.318  15.508 -0.3262 -0.5140  0.7613
15509TIP3   OH267941   0.664   1.688  11.562 -0.1269 -0.0305 -0.4337
15509TIP3    H167942   0.758   1.694  11.545 -0.1396 -0.2332 -0.5683
15509TIP3    H267943   0.626   1.759  11.510  0.0706  0.8082  0.5262
15510TIP3   OH267944   2.884   6.356  12.955 -0.1580  0.1400 -0.3291
15510TIP3    H167945   2.898   6.312  12.871 -0.6502 -3.2211  1.1573
15510TIP3    H267946   2.795   6.331  12.980 -0.0556  1.1339  1.1342
15511TIP3   OH267947   5.975   0.668   6.079  0.5346 -0.4954 -0.3661
15511TIP3    H167948   6.006   0.596   6.025 -1.4315 -1.7694  0.0981
15511TIP3    H267949   5.923   0.626   6.148  0.3824  1.2925  0.6795
15512TIP3   OH267950   3.706   2.202  10.531  0.1243 -0.1663 -0.0991
15512TIP3    H167951   3.743   2.289  10.546  0.8445 -0.3434 -0.7690
15512TIP3    H267952   3.645   2.189  10.603  1.8972 -0.1622  1.4952
15513TIP3   OH267953   6.756   6.301  12.756  0.5692  0.1230 -0.1776
15513TIP3    H167954   6.724   6.211  12.754  1.1081 -0.2044  2.4883
15513TIP3    H267955   6.809   6.310  12.677 -0.1118 -1.6296 -0.8773
15514TIP3   OH267956   5.554   1.612  13.714 -0.2822 -0.0469 -0.0739
15514TIP3    H167957   5.470   1.611  13.761  0.3840 -1.5894  1.1749
15514TIP3    H267958   5.542   1.550  13.643 -0.4193  0.2607 -0.3212
15515TIP3   OH267959   3.567   1.649   5.893  0.7019 -0.4347 -0.4215
15515TIP3    H167960   3.536   1.558   5.899  0.3842 -0.4690 -2.1607
15515TIP3    H267961   3.656   1.645   5.928 -0.1964 -0.8536  2.0557
15516TIP3   OH267962   3.184   5.576   5.445  0.3967  0.0195 -0.2064
15516TIP3    H167963   3.152   5.553   5.358  1.4613  0.7077 -0.7973
15516TIP3    H267964   3.279   5.583   5.435  0.3458  2.8976  0.3044
15517TIP3   OH267965   0.078   1.501   0.036  0.1886  0.6542  0.4624
15517TIP3    H167966  -0.015   1.486   0.056 -0.1797  0.0570 -1.4875
15517TIP3    H267967   0.120   1.418   0.057 -0.1087  0.1997 -0.6613
15518TIP3   OH267968   1.306   2.429   3.462  0.0468  0.0575 -0.3596
15518TIP3    H167969   1.299   2.342   3.422  1.8768 -0.8181  1.0766
15518TIP3    H267970   1.310   2.412   3.556 -2.7394  1.9711  0.2269
15519TIP3   OH267971   4.800   4.012  12.915 -0.4107  0.1293 -0.0302
15519TIP3    H167972   4.779   4.022  13.008  0.7375  2.1984  0.0784
15519TIP3    H267973   4.882   4.060  12.904 -0.5818  0.0316 -2.1529
15520TIP3   OH267974   2.961   4.692   0.026  0.0626  0.4324  0.3999
15520TIP3    H167975   2.922   4.778   0.008  0.4874  0.5665  0.0974
15520TIP3    H267976   2.920   4.633  -0.038  1.4744  0.8830 -1.0000
15521TIP3   OH267977   6.392   4.680  12.018  0.2094 -0.7064 -0.1109
15521TIP3    H167978   6.419   4.588  12.014  0.0689 -0.7600  0.1622
15521TIP3    H267979   6.431   4.713  12.099 -0.2211 -0.6836  0.0939
15522TIP3   OH267980   0.668   5.854   5.766 -0.2193  0.3827 -0.1416
15522TIP3    H167981   0.684   5.763   5.793  1.8842  0.4165 -1.0618
15522TIP3    H267982   0.723   5.906   5.825 -0.7153  0.9769 -0.2021
15523TIP3   OH267983   5.582   3.168  14.883 -0.3852  0.0071  0.2247
15523TIP3    H167984   5.558   3.187  14.974  2.2158  0.6943  0.8565
15523TIP3    H267985   5.658   3.224  14.867  1.0864 -2.3038 -1.3774
15524TIP3   OH267986   2.447   3.771   1.243 -0.5981  0.2184 -0.2513
15524TIP3    H167987   2.450   3.775   1.148 -0.1317  1.8398 -0.2045
15524TIP3    H267988   2.534   3.741   1.269 -0.5609  0.2697 -0.3182
15525TIP3   OH267989   4.475   0.782   2.653 -0.0069  0.5482 -0.3696
15525TIP3    H167990   4.436   0.784   2.565 -2.6257  0.9282  0.6965
15525TIP3    H267991   4.449   0.697   2.689  0.7334  0.5396  0.1573
15526TIP3   OH267992   3.448   2.245   2.041 -0.6500  0.3940 -0.4649
15526TIP3    H167993   3.417   2.156   2.059  1.4150 -0.4910 -0.9869
15526TIP3    H267994   3.476   2.242   1.949  0.6433  1.1884 -0.1228
15527TIP3   OH267995   6.145   4.065  14.994 -0.4454  0.1235  0.2847
15527TIP3    H167996   6.236   4.077  14.970  0.0175 -2.9698  0.1441
15527TIP3    H267997   6.130   4.130  15.063  2.4089 -0.4354  1.5705
15528TIP3   OH267998   3.958   3.976  11.281  0.5926  0.3341  0.2398
15528TIP3    H167999   3.872   4.019  11.274  0.5568  0.2439  0.1206
15528TIP3    H268000   4.007   4.007  11.205  0.6653  0.3841  0.3062
15529TIP3   OH268001   2.586   0.688  16.193  0.1778  0.1891  0.3691
15529TIP3    H168002   2.575   0.778  16.221 -0.8313  0.0688  0.4021
15529TIP3    H268003   2.505   0.667  16.145  0.4580 -0.6384  0.2304
15530TIP3   OH268004   1.122   0.786  13.460  0.0103 -0.8870  0.7293
15530TIP3    H168005   1.033   0.819  13.449  0.9898  1.6516 -0.1843
15530TIP3    H268006   1.145   0.751  13.374  0.9578  1.4184 -0.0222
15531TIP3   OH268007   5.756   0.386  15.856 -0.1753 -0.2923 -0.0242
15531TIP3    H168008   5.727   0.470  15.892  1.3926 -0.3238  1.3936
15531TIP3    H268009   5.696   0.322  15.893 -1.0546  0.1165 -0.6972
15532TIP3   OH268010   3.450   2.088  12.833  0.0803 -0.0844  0.2685
15532TIP3    H168011   3.375   2.080  12.775  0.7210 -1.4531 -0.4150
15532TIP3    H268012   3.428   2.034  12.909  0.4079 -0.5939  0.0085
15533TIP3   OH268013   0.563   3.658  13.553  0.2110  0.2455 -0.3728
15533TIP3    H168014   0.614   3.739  13.559  1.5385 -0.5096 -1.0939
15533TIP3    H268015   0.615   3.593  13.600  0.3860 -0.7489 -1.8697
15534TIP3   OH268016   4.366   2.807   4.219  0.3763  0.2910 -0.0581
15534TIP3    H168017   4.317   2.860   4.157 -0.2240  1.6551  1.5055
15534TIP3    H268018   4.303   2.741   4.248  0.1292  0.6925  0.3304
15535TIP3   OH268019   0.693   5.145  16.545 -0.3731  0.8908  0.2527
15535TIP3    H168020   0.754   5.083  16.504  0.6932  0.1399  2.7878
15535TIP3    H268021   0.607   5.102  16.538 -0.3456  1.0830 -1.6647
15536TIP3   OH268022   1.206   1.257  12.122 -0.3167 -0.5489 -0.2867
15536TIP3    H168023   1.213   1.162  12.134  0.0965 -0.6949 -1.5447
15536TIP3    H268024   1.295   1.289  12.136 -0.2458 -0.4812 -0.8687
15537TIP3   OH268025   4.444   6.602   3.831 -0.4256 -0.2284  0.0751
15537TIP3    H168026   4.408   6.623   3.745 -1.1326  0.9977  0.6542
15537TIP3    H268027   4.519   6.661   3.841  0.0241 -0.7874  0.0601
15538TIP3   OH268028   4.545   6.371  14.554  0.7615 -0.4910  0.0279
15538TIP3    H168029   4.585   6.284  14.552  2.1532  0.0807  1.1138
15538TIP3    H268030   4.619   6.431  14.552 -0.2094  0.7542 -2.2703
15539TIP3   OH268031   3.997   4.547  14.107 -0.2744  0.4486  0.7534
15539TIP3    H168032   4.074   4.603  14.103  0.8024 -0.7525  2.7663
15539TIP3    H268033   3.961   4.563  14.195 -1.9521  0.4928  0.0956
15540TIP3   OH268034   0.689   4.267   0.503  0.2924  0.1316 -0.0899
15540TIP3    H168035   0.726   4.197   0.556  0.9995  0.1374 -0.5693
15540TIP3    H268036   0.720   4.250   0.414 -0.4630  0.4102 -0.4162
15541TIP3   OH268037   0.456   4.648  13.814 -0.4519 -0.4126  0.1115
15541TIP3    H168038   0.383   4.662  13.753 -2.1087 -0.6609  1.9518
15541TIP3    H268039   0.452   4.723  13.874  1.8619  0.4332 -0.6770
15542TIP3   OH268040   6.636   5.021  15.587  0.4062  0.3476 -0.4626
15542TIP3    H168041   6.619   4.928  15.572  2.2378 -0.1940  0.4626
15542TIP3    H268042   6.614   5.036  15.679  2.5342  0.1480  0.1327
15543TIP3   OH268043   2.534   5.253  13.593 -0.3888  0.0942 -0.1648
15543TIP3    H168044   2.622   5.239  13.629 -0.2982 -0.0047 -0.4187
15543TIP3    H268045   2.517   5.174  13.541 -0.5561  0.1938 -0.2617
15544TIP3   OH268046   6.763   5.025  14.248  0.3454 -0.0910  0.1426
15544TIP3    H168047   6.814   5.032  14.167  0.8460 -0.3840  0.4298
15544TIP3    H268048   6.716   4.942  14.240 -1.0682  0.7318 -0.6678
15545TIP3   OH268049   5.900   6.615  16.188 -0.3772 -0.2222 -0.0159
15545TIP3    H168050   5.920   6.684  16.125 -0.8136  1.0187  1.1671
15545TIP3    H268051   5.959   6.543  16.164  0.9287  0.9802 -0.5410
15546TIP3   OH268052   6.148   6.220  17.140  0.0336 -0.3258  0.3821
15546TIP3    H168053   6.080   6.156  17.121 -0.1661  0.3003 -1.2432
15546TIP3    H268054   6.229   6.169  17.140 -0.2645 -0.8078  0.6280
15547TIP3   OH268055   4.783   4.008   3.692  0.0686  0.5303 -0.1532
15547TIP3    H168056   4.810   3.920   3.669  0.8648  0.6593  0.2554
15547TIP3    H268057   4.690   4.000   3.713  0.1187 -0.1984 -0.1906
15548TIP3   OH268058   0.545   3.355  14.000 -0.3753  0.2711 -0.5093
15548TIP3    H168059   0.595   3.350  13.918  2.8511 -1.1943  1.3770
15548TIP3    H268060   0.563   3.272  14.044 -1.4487  1.2691  1.9923
15549TIP3   OH268061   6.464   3.272  14.463 -0.1048 -0.1896 -0.0669
15549TIP3    H168062   6.438   3.357  14.498  3.1783  1.2045 -0.6117
15549TIP3    H268063   6.500   3.225  14.539 -0.8788 -0.6554  0.0183
15550TIP3   OH268064   2.024   3.252  10.954 -0.3456 -0.4820  0.2756
15550TIP3    H168065   2.008   3.325  10.894  0.9053  0.1064  0.6174
15550TIP3    H268066   2.045   3.294  11.037 -0.8386 -1.2652  0.8094
15551TIP3   OH268067   1.838   2.751   3.779 -0.0571 -0.6397 -0.1044
15551TIP3    H168068   1.895   2.682   3.747 -0.0241 -0.8306  0.3524
15551TIP3    H268069   1.810   2.721   3.866  1.5151  0.8091  0.9613
15552TIP3   OH268070   1.015   0.769  12.081 -0.3733 -0.1104 -0.3050
15552TIP3    H168071   0.922   0.791  12.089  0.0732  1.1258  2.4702
15552TIP3    H268072   1.024   0.687  12.130  0.1231  0.1885  0.1062
15553TIP3   OH268073   1.525   2.620  16.267 -0.0895  0.0518  0.2832
15553TIP3    H168074   1.562   2.533  16.251 -0.2149  0.4914 -3.1246
15553TIP3    H268075   1.462   2.607  16.338  0.7303 -2.3685  0.6522
15554TIP3   OH268076   2.105   1.940  10.398 -0.0480  0.3237  0.2809
15554TIP3    H168077   2.010   1.929  10.393 -0.1405  0.4559  1.3341
15554TIP3    H268078   2.129   1.901  10.483  0.9998 -0.7239 -0.4588
15555TIP3   OH268079   5.195   3.565   0.307 -0.4723  0.2779 -0.2096
15555TIP3    H168080   5.287   3.591   0.311 -0.2625 -0.3911 -0.5840
15555TIP3    H268081   5.195   3.471   0.325 -1.2769  0.5881  1.5974
15556TIP3   OH268082   4.656   6.201  14.970 -0.5441 -0.2717  0.3449
15556TIP3    H168083   4.747   6.207  14.940 -0.5164 -1.1575  0.2120
15556TIP3    H268084   4.630   6.291  14.987  1.0458 -0.1515  2.4909
15557TIP3   OH268085   5.523   5.960  16.615  0.3971  0.3828 -0.1891
15557TIP3    H168086   5.582   6.025  16.578  0.7590  0.3990  0.3932
15557TIP3    H268087   5.454   6.012  16.658  0.0292  0.3657 -0.7559
15558TIP3   OH268088   3.694   5.961  12.105 -0.6341  0.6488 -0.6055
15558TIP3    H168089   3.744   5.919  12.036 -1.4237  0.8462 -1.3094
15558TIP3    H268090   3.605   5.966  12.071 -0.7912  1.8536 -0.0759
15559TIP3   OH268091   0.504   0.019  15.930  0.0195 -0.6610  0.2072
15559TIP3    H168092   0.458  -0.051  15.883  0.6296 -0.6761 -0.3795
15559TIP3    H268093   0.485   0.002  16.022 -0.9480 -0.8066 -0.0078
15560TIP3   OH268094   6.129   1.825  12.212  0.3926 -0.1307  0.5885
15560TIP3    H168095   6.130   1.743  12.262 -0.8536 -0.6967 -0.2647
15560TIP3    H268096   6.141   1.893  12.279 -1.0445 -0.8719  1.6748
15561TIP3   OH268097   2.550   3.248  11.690  0.1746  0.2329 -0.2957
15561TIP3    H168098   2.583   3.276  11.605 -0.3300 -0.6938 -0.8193
15561TIP3    H268099   2.610   3.287  11.753  1.1532  0.1217 -1.1198
15562TIP3   OH268100   6.493   5.401  17.137  0.1119 -0.2126 -0.4295
15562TIP3    H168101   6.417   5.344  17.149  0.1833 -0.2808 -0.2966
15562TIP3    H268102   6.457   5.482  17.101 -0.7970  1.7395  4.2150
15563TIP3   OH268103   3.458   3.575  16.412 -0.7277  0.3777 -0.0807
15563TIP3    H168104   3.504   3.494  16.389 -0.3655 -0.0132  1.8731
15563TIP3    H268105   3.369   3.547  16.431 -0.7519  0.5286  0.0314
15564TIP3   OH268106   5.542   5.838   5.809  0.7159 -0.1114  0.1977
15564TIP3    H168107   5.510   5.908   5.865 -0.4566  0.4118 -1.0656
15564TIP3    H268108   5.637   5.847   5.809  0.6118  1.0448  0.6043
15565TIP3   OH268109   4.063   3.778  16.029  0.2073  0.5437  0.3994
15565TIP3    H168110   4.113   3.707  16.068 -0.1926  0.7374  1.2807
15565TIP3    H268111   4.024   3.824  16.103 -1.2760  0.3875 -0.2416
15566TIP3   OH268112   5.321   5.125  14.415  0.1079 -0.5823 -0.3413
15566TIP3    H168113   5.269   5.202  14.393  0.6642  0.2022  0.9980
15566TIP3    H268114   5.403   5.136  14.367 -0.3401 -1.0557 -1.2431
15567TIP3   OH268115   2.466   3.786   2.081 -0.3894 -0.1917 -0.1349
15567TIP3    H168116   2.502   3.724   2.017 -1.3611  0.7575 -1.6635
15567TIP3    H268117   2.372   3.768   2.081 -1.0907  2.8034 -2.4471
15568TIP3   OH268118   3.625   3.858   1.526  0.5486  0.2068  0.3146
15568TIP3    H168119   3.623   3.766   1.554 -1.0008 -0.4091 -1.6046
15568TIP3    H268120   3.700   3.864   1.468 -0.4824 -0.3894 -1.1244
15569TIP3   OH268121   0.539   3.720   3.489  0.1343  0.0151 -0.2477
15569TIP3    H168122   0.588   3.758   3.416  0.1853 -0.8099 -0.6555
15569TIP3    H268123   0.603   3.710   3.559 -0.2783  2.4909  0.6022
15570TIP3   OH268124   1.484   2.445   0.600  0.2618  0.0087 -0.3718
15570TIP3    H168125   1.550   2.505   0.564  0.0821  0.6334  0.3029
15570TIP3    H268126   1.402   2.495   0.594  0.1467 -0.0837  0.3988
15571TIP3   OH268127   2.324   4.786   5.960  0.6350 -0.0648 -0.1883
15571TIP3    H168128   2.269   4.772   6.037 -0.4989  0.6756 -0.8350
15571TIP3    H268129   2.383   4.857   5.986  1.1080 -0.6624  0.4084
15572TIP3   OH268130   3.496   3.473   1.937 -0.5740  0.2622  0.1483
15572TIP3    H168131   3.417   3.426   1.913 -0.2172 -0.2746  0.0155
15572TIP3    H268132   3.562   3.405   1.951 -0.2692  0.6737  0.7633
15573TIP3   OH268133   1.042   6.669  12.404 -0.1778 -0.9090  0.2821
15573TIP3    H168134   1.090   6.731  12.458  2.2269 -1.5878 -0.9250
15573TIP3    H268135   1.046   6.587  12.452 -1.9983 -0.5456  1.1369
15574TIP3   OH268136   6.575   3.784  13.131  0.1438 -0.3044  0.2474
15574TIP3    H168137   6.626   3.863  13.116 -0.8990  0.4241  0.4233
15574TIP3    H268138   6.516   3.779  13.055 -0.0394 -0.7160  0.4124
15575TIP3   OH268139   2.089   2.756  15.849 -0.4221  0.2123  0.4796
15575TIP3    H168140   2.113   2.792  15.934 -1.1896 -0.2079  0.8762
15575TIP3    H268141   2.012   2.702  15.865  0.3697 -1.1889 -0.2034
15576TIP3   OH268142   5.282   5.090   6.536  0.2980  0.6285  0.1376
15576TIP3    H168143   5.289   5.044   6.453  2.0730  2.0904 -0.6053
15576TIP3    H268144   5.344   5.044   6.594 -0.5082 -0.0286  0.4973
15577TIP3   OH268145   3.873   4.377  11.631 -0.7568 -0.2396  0.7089
15577TIP3    H168146   3.926   4.452  11.606  0.4256 -1.9656 -2.4699
15577TIP3    H268147   3.787   4.394  11.593 -0.7746 -0.0754  0.8228
15578TIP3   OH268148   5.696   3.179   3.547 -0.0094  0.3718  0.3235
15578TIP3    H168149   5.744   3.181   3.629 -0.2570  0.6381  0.4616
15578TIP3    H268150   5.622   3.238   3.560  0.1378  0.6879 -0.2082
15579TIP3   OH268151   6.355   5.762  12.377  0.4515 -0.1379 -0.0040
15579TIP3    H168152   6.320   5.754  12.288 -1.9007  1.1840  0.7065
15579TIP3    H268153   6.353   5.673  12.412  0.8541 -0.5810 -1.0681
15580TIP3   OH268154   3.867   2.631   1.540 -0.3772 -0.0824 -0.6394
15580TIP3    H168155   3.848   2.550   1.494  1.0544  0.0997 -1.5963
15580TIP3    H268156   3.949   2.663   1.502  2.2084 -1.0260  3.4287
15581TIP3   OH268157   6.525   3.106  11.562  0.1521 -0.8044  0.0638
15581TIP3    H168158   6.440   3.150  11.561 -0.1731 -1.2718  2.2561
15581TIP3    H268159   6.581   3.161  11.507 -1.6256 -0.7335 -1.8329
15582TIP3   OH268160   3.465   5.951  12.653 -0.3688  0.4283 -0.3313
15582TIP3    H168161   3.382   5.916  12.621  0.2321 -0.8593 -0.5635
15582TIP3    H268162   3.528   5.928  12.585  0.4552 -0.0094  0.5646
15583TIP3   OH268163   5.080   4.585   4.854  0.5377  0.2536  0.7752
15583TIP3    H168164   5.091   4.664   4.907  0.5424  0.6426  0.2088
15583TIP3    H268165   5.122   4.516   4.905 -0.3725  0.3974  1.7600
15584TIP3   OH268166   5.992   6.102   5.014  0.1746 -0.2187  0.3723
15584TIP3    H168167   6.049   6.127   5.086 -0.0708 -0.7274  0.7507
15584TIP3    H268168   5.913   6.066   5.056 -0.3762  0.3591 -0.1420
15585TIP3   OH268169   3.376   3.143   0.196 -0.1746  0.7266 -0.0485
15585TIP3    H168170   3.318   3.121   0.269  0.7180  0.1674  0.5156
15585TIP3    H268171   3.427   3.063   0.180  1.2083  1.5176  0.2064
15586TIP3   OH268172   4.985   6.488   4.122  0.2722 -0.0986  0.5437
15586TIP3    H168173   4.964   6.498   4.215 -0.9454 -0.8265  0.3794
15586TIP3    H268174   4.938   6.559   4.079 -0.5840 -0.7678  0.3348
15587TIP3   OH268175   4.800   4.657   4.788  0.4847 -0.1150  0.3489
15587TIP3    H168176   4.891   4.633   4.807  1.7074 -0.6877 -4.8857
15587TIP3    H268177   4.806   4.744   4.749 -0.7728 -1.1035 -2.2533
15588TIP3   OH268178   3.306   5.820   4.982  0.1163 -0.2118 -0.0375
15588TIP3    H168179   3.217   5.803   4.952 -0.4339  1.5282  0.5442
15588TIP3    H268180   3.327   5.907   4.948  1.9184 -0.8911 -0.8474
15589TIP3   OH268181   5.073   3.612  14.436  0.3942 -0.1260  0.1141
15589TIP3    H168182   5.144   3.600  14.499  1.3300 -1.0761 -1.0973
15589TIP3    H268183   5.073   3.706  14.417  0.2629  0.1368  1.3085
15590TIP3   OH268184   6.243   3.027   0.908 -0.5015  0.3701 -0.1348
15590TIP3    H168185   6.147   3.031   0.911 -0.4648  0.9616  1.9741
15590TIP3    H268186   6.271   3.102   0.960  1.1056 -0.0943 -0.2924
15591TIP3   OH268187   5.886   6.143  11.633  0.2790 -0.1231  0.3114
15591TIP3    H168188   5.811   6.107  11.584  1.0499 -1.3189 -0.0318
15591TIP3    H268189   5.923   6.209  11.574 -0.4377  0.4247  0.4512
15592TIP3   OH268190   6.265   5.252   0.051 -0.0218 -0.0391  0.0464
15592TIP3    H168191   6.284   5.257   0.145 -1.6373 -1.1784  0.4761
15592TIP3    H268192   6.227   5.164   0.039 -2.4640  1.0781 -1.1394
15593TIP3   OH268193   0.493   4.720  13.272 -0.0095  0.2937 -0.4842
15593TIP3    H168194   0.500   4.802  13.320  3.0018  0.4374 -0.9331
15593TIP3    H268195   0.570   4.669  13.299 -0.0117 -0.9975 -2.6095
15594TIP3   OH268196   5.891   0.526   2.401  0.2562 -0.3379 -0.1832
15594TIP3    H168197   5.820   0.507   2.340  1.1599 -2.8442 -0.6128
15594TIP3    H268198   5.948   0.586   2.354  0.4107 -1.4317 -1.4699
15595TIP3   OH268199   3.033   2.552   0.345 -0.4374  0.0223  0.1768
15595TIP3    H168200   3.104   2.544   0.409 -0.5367 -0.6865  0.2116
15595TIP3    H268201   2.974   2.617   0.383 -1.0381 -1.1546  1.3294
15596TIP3   OH268202   5.243   2.868  12.407  0.0541 -0.5571 -0.4107
15596TIP3    H168203   5.187   2.827  12.341 -1.3113 -1.9551  1.4968
15596TIP3    H268204   5.226   2.818  12.487  0.9752  1.5804  1.2225
15597TIP3   OH268205   3.960   3.355  14.256  0.5869 -0.5215 -0.1427
15597TIP3    H168206   3.894   3.401  14.308  0.9813 -0.7623  0.5811
15597TIP3    H268207   3.930   3.366  14.166  0.1862  0.3739  0.0796
15598TIP3   OH268208   1.889   3.075  11.915  0.5759 -0.6176 -0.0359
15598TIP3    H168209   1.936   3.123  11.984 -0.1811 -0.1839  0.1911
15598TIP3    H268210   1.904   2.983  11.935  2.3792 -0.5229 -0.6908
15599TIP3   OH268211   2.029   2.269  15.115 -0.7109  0.3800  0.3516
15599TIP3    H168212   2.106   2.327  15.115  1.8773 -2.6652 -1.4547
15599TIP3    H268213   1.982   2.291  15.034  0.1071  0.1970 -0.1899
15600TIP3   OH268214   3.839   0.227  11.876  0.1574  0.6243  0.3656
15600TIP3    H168215   3.778   0.288  11.917  0.8267  0.7060  1.2695
15600TIP3    H268216   3.826   0.239  11.782 -1.7341  0.1051  0.5253
15601TIP3   OH268217   3.132   1.848  15.348  0.6324 -0.0964  0.2431
15601TIP3    H168218   3.223   1.871  15.363  0.4943 -0.0486  1.0667
15601TIP3    H268219   3.106   1.800  15.427 -0.0302 -0.1823 -0.0155
15602TIP3   OH268220   5.813   0.687   3.927 -0.4259  0.2892  0.0144
15602TIP3    H168221   5.875   0.710   3.859 -0.8878 -1.6893 -1.1528
15602TIP3    H268222   5.829   0.750   3.998  2.0445  0.5683 -0.7291
15603TIP3   OH268223   1.426   6.125  14.706  0.1028  0.1875  0.1901
15603TIP3    H168224   1.353   6.100  14.649  0.0157  0.5831  0.1233
15603TIP3    H268225   1.499   6.070  14.677  0.7134  1.9571 -1.8722
15604TIP3   OH268226   4.678   5.821  14.498 -0.4845 -0.3484 -0.2567
15604TIP3    H168227   4.655   5.884  14.430  0.6906  0.5037  0.1053
15604TIP3    H268228   4.641   5.859  14.578  0.5532  0.0978  0.0244
15605TIP3   OH268229   4.281   0.513  13.946  0.0929 -0.1747 -0.5251
15605TIP3    H168230   4.315   0.546  14.029  0.1114  0.1059 -0.6424
15605TIP3    H268231   4.312   0.423  13.941 -0.1878 -0.3020 -0.0686
15606TIP3   OH268232   6.233   2.291   4.541  0.0096 -0.2497 -0.3856
15606TIP3    H168233   6.300   2.356   4.520  1.0253 -1.1946 -0.1610
15606TIP3    H268234   6.156   2.343   4.565  1.7020  1.0221  3.0418
15607TIP3   OH268235   0.088   6.077  12.937 -0.2110 -0.0604  0.3206
15607TIP3    H168236   0.172   6.123  12.947 -0.3265 -0.0169  1.1801
15607TIP3    H268237   0.084   6.053  12.845  0.6296  0.1709  0.2199
15608TIP3   OH268238   4.579   2.253  11.598  0.0815  0.2297  0.2121
15608TIP3    H168239   4.507   2.256  11.661 -1.9493 -0.5092 -1.9221
15608TIP3    H268240   4.588   2.160  11.576  0.6851  0.4771 -0.6377
15609TIP3   OH268241   1.937   2.636   5.658 -0.3989 -0.0917 -0.3637
15609TIP3    H168242   1.899   2.695   5.594 -1.1530 -1.3127 -1.0836
15609TIP3    H268243   1.972   2.564   5.606  1.2400  0.0860  0.4229
15610TIP3   OH268244   4.739   1.920  12.704 -0.1793 -0.3290  0.6440
15610TIP3    H168245   4.718   1.827  12.692 -1.0796  0.0394 -0.9841
15610TIP3    H268246   4.816   1.935  12.648 -1.7938  0.4931 -1.4738
15611TIP3   OH268247   1.165   2.120  16.141 -0.3592 -0.6888  0.6396
15611TIP3    H168248   1.109   2.193  16.116 -0.9316 -1.3311 -0.0194
15611TIP3    H268249   1.132   2.046  16.089 -0.2693 -1.5908  1.8308
15612TIP3   OH268250   4.873   3.875   3.362 -0.6267 -0.0550 -0.3993
15612TIP3    H168251   4.862   3.855   3.269  0.5389 -1.2491 -0.3202
15612TIP3    H268252   4.801   3.829   3.405 -0.1250 -1.0452 -0.5754
15613TIP3   OH268253   6.099   4.402   4.022 -0.1578 -0.1220 -0.4506
15613TIP3    H168254   6.007   4.408   3.995  0.3081 -0.3639 -2.2211
15613TIP3    H268255   6.136   4.486   3.997  0.3636 -0.4675 -0.8621
15614TIP3   OH268256   2.289   0.339   5.371 -0.4219  0.1568 -0.1320
15614TIP3    H168257   2.211   0.384   5.402 -1.7259 -1.6779 -0.5992
15614TIP3    H268258   2.349   0.342   5.446 -1.0672  1.2328  0.3742
15615TIP3   OH268259   3.802   3.487   6.420  0.0658 -0.8410 -0.0762
15615TIP3    H168260   3.783   3.578   6.399  2.8508 -0.4367 -1.3752
15615TIP3    H268261   3.764   3.474   6.506  1.9249  2.4844  1.4695
15616TIP3   OH268262   2.748   4.643  14.908  0.0265  0.4551  0.1213
15616TIP3    H168263   2.782   4.712  14.966  0.7485  0.1437  0.0792
15616TIP3    H268264   2.655   4.663  14.899  0.2546  1.5093 -0.0004
15617TIP3   OH268265   1.138   4.461   4.247 -0.9813 -0.0094  0.0761
15617TIP3    H168266   1.069   4.520   4.214 -1.7099 -0.1954  1.2002
15617TIP3    H268267   1.192   4.442   4.171 -1.8836  0.5586 -0.7281
15618TIP3   OH268268   0.167   5.998  12.681 -0.2762  0.3682  0.1974
15618TIP3    H168269   0.149   5.910  12.647 -1.7162  0.7203 -0.0471
15618TIP3    H268270   0.251   5.991  12.726  0.3530 -0.7718 -1.0970
15619TIP3   OH268271   5.983   4.610  11.846  0.2922 -0.1680  0.1848
15619TIP3    H168272   5.922   4.548  11.807 -0.3505  0.2545  0.4990
15619TIP3    H268273   6.004   4.573  11.932  0.3725 -0.2399  0.1344
15620TIP3   OH268274   0.175   5.253  14.696  0.5294 -0.4960  0.0193
15620TIP3    H168275   0.152   5.209  14.614 -1.5996  1.9423 -0.8329
15620TIP3    H268276   0.106   5.318  14.708  0.9532 -0.5243  3.6189
15621TIP3   OH268277   4.083   3.883   5.448 -0.2620  0.1827  0.6342
15621TIP3    H168278   4.156   3.941   5.426 -1.5815  1.0279 -1.9132
15621TIP3    H268279   4.120   3.795   5.443  0.8497  0.6384  0.5976
15622TIP3   OH268280   2.261   4.706   2.708  0.2854 -0.1047 -0.0280
15622TIP3    H168281   2.322   4.641   2.743  0.5034 -0.0954 -0.3834
15622TIP3    H268282   2.305   4.740   2.629 -0.7283 -0.9972 -0.9947
15623TIP3   OH268283   4.349   2.725  12.485 -0.1943  0.3717  0.4664
15623TIP3    H168284   4.303   2.692  12.563  0.2604  1.5905  1.2784
15623TIP3    H268285   4.441   2.715  12.507 -0.0634  1.0570  0.2195
15624TIP3   OH268286   6.336   5.488  16.903  0.1158  0.0444 -0.2900
15624TIP3    H168287   6.397   5.510  16.834 -0.3738 -0.3395 -0.8576
15624TIP3    H268288   6.305   5.400  16.881 -0.4146  0.1108  0.1461
15625TIP3   OH268289   1.527   2.864   0.363  0.4259  0.3443 -0.1917
15625TIP3    H168290   1.515   2.950   0.405 -3.8572  0.8359 -1.8645
15625TIP3    H268291   1.586   2.881   0.290 -0.6597  2.0671 -0.7486
15626TIP3   OH268292   3.606   6.789  10.664  0.1142  0.0349  0.1781
15626TIP3    H168293   3.569   6.845  10.595  1.4492 -0.8903 -1.3409
15626TIP3    H268294   3.611   6.702  10.625  2.5772 -0.1613  0.7627
15627TIP3   OH268295   1.254   5.930  16.652  0.0517 -0.0184  0.1006
15627TIP3    H168296   1.178   5.887  16.693 -1.1541  3.7265  2.2767
15627TIP3    H268297   1.216   6.001  16.600  2.0062  1.6765  0.8560
15628TIP3   OH268298   5.350   0.568  10.656  0.3476 -0.0937 -0.3230
15628TIP3    H168299   5.338   0.524  10.740 -2.0983  0.4736 -0.3272
15628TIP3    H268300   5.359   0.660  10.679 -0.5281  0.0873 -0.6711
15629TIP3   OH268301   4.804   0.940   3.257  0.2819 -0.4291 -0.0456
15629TIP3    H168302   4.825   0.999   3.185  1.2806 -0.3804  0.2777
15629TIP3    H268303   4.726   0.979   3.298 -1.5003 -1.4465 -2.2075
15630TIP3   OH268304   1.213   1.228   0.373  0.5656 -0.4028  0.7372
15630TIP3    H168305   1.269   1.247   0.449 -0.7651 -2.3843  2.3159
15630TIP3    H268306   1.137   1.285   0.385  0.9090  0.1865  0.1757
15631TIP3   OH268307   4.272   5.000  14.074 -0.0877 -0.2037 -0.3753
15631TIP3    H168308   4.276   4.940  14.000  1.3568 -0.4413 -0.1448
15631TIP3    H268309   4.309   5.082  14.041  2.4360 -0.8814  0.5349
15632TIP3   OH268310   1.765   6.477  10.991 -0.4089 -0.2131 -0.3581
15632TIP3    H168311   1.761   6.561  10.946 -0.6191  0.2865  0.5572
15632TIP3    H268312   1.854   6.445  10.974 -0.2283  0.3330 -0.4683
15633TIP3   OH268313   5.468   4.566   6.726  0.0260 -0.0327  0.3473
15633TIP3    H168314   5.426   4.565   6.640 -0.1066  1.1547  0.3879
15633TIP3    H268315   5.545   4.511   6.716 -0.0709 -0.0231 -0.4881
15634TIP3   OH268316   1.972   3.501  16.476 -0.3263  0.2379  0.0565
15634TIP3    H168317   1.905   3.557  16.436 -0.8959  0.5992  1.4589
15634TIP3    H268318   2.053   3.529  16.434 -0.7181  1.5506  0.1023
15635TIP3   OH268319   2.665   0.638   4.208 -0.0154  0.0011  0.0361
15635TIP3    H168320   2.650   0.668   4.298 -0.5153  1.0895 -0.3892
15635TIP3    H268321   2.669   0.719   4.157 -1.8545 -0.6711 -1.2437
15636TIP3   OH268322   5.531   3.807  14.051 -0.1930  0.0021  0.7142
15636TIP3    H168323   5.453   3.799  14.106  1.3282 -0.1094  2.9920
15636TIP3    H268324   5.518   3.889  14.003 -1.1692  0.6284  1.9748
15637TIP3   OH268325   0.442   0.590   0.158 -0.2496 -0.6398 -0.0744
15637TIP3    H168326   0.393   0.636   0.089 -0.2966 -0.9267 -0.2357
15637TIP3    H268327   0.417   0.634   0.239 -0.8635 -0.8532 -0.1420
15638TIP3   OH268328   0.495   6.676   1.826  0.5324  0.3117 -0.4497
15638TIP3    H168329   0.532   6.598   1.867 -1.0310  0.7751  2.0209
15638TIP3    H268330   0.522   6.670   1.734 -0.4329 -3.7292 -0.6424
15639TIP3   OH268331   2.955   3.711  14.746  0.0674  0.1297 -0.0929
15639TIP3    H168332   2.995   3.644  14.691  1.0206  0.5938  0.0039
15639TIP3    H268333   2.861   3.695  14.741  0.1591 -0.0007 -1.6299
15640TIP3   OH268334   3.194   6.054  14.750 -0.0958  0.4027  0.2086
15640TIP3    H168335   3.109   6.055  14.705 -0.6897  1.4876  1.3060
15640TIP3    H268336   3.255   6.092  14.687 -0.6672  0.7475 -0.1467
15641TIP3   OH268337   6.013   4.246  16.545  0.7634 -0.5605 -0.7589
15641TIP3    H168338   6.012   4.167  16.599  0.9355 -0.3187 -0.4034
15641TIP3    H268339   6.064   4.221  16.468  1.4421 -0.5747 -0.3113
15642TIP3   OH268340   6.361   4.516  15.837 -0.0668  0.5043  0.2842
15642TIP3    H168341   6.433   4.524  15.774 -0.8411  0.0315 -0.6949
15642TIP3    H268342   6.337   4.423  15.834  0.7938  0.1633  2.3444
15643TIP3   OH268343   0.409   6.170  15.236 -0.8186 -0.0565 -0.2558
15643TIP3    H168344   0.472   6.210  15.297 -0.6487 -1.3676  0.4764
15643TIP3    H268345   0.454   6.091  15.204 -1.6885 -0.4599 -0.5232
15644TIP3   OH268346   1.327   6.472  11.282  0.5272 -0.2795  0.1206
15644TIP3    H168347   1.412   6.430  11.272  0.1333 -0.8305 -1.2385
15644TIP3    H268348   1.265   6.399  11.282 -0.0283  0.1799 -0.2615
15645TIP3   OH268349   4.970   2.145  11.550  0.1940  0.3659  0.1942
15645TIP3    H168350   5.021   2.145  11.632 -0.9718 -0.0890  0.9477
15645TIP3    H268351   4.965   2.237  11.525 -0.8624  0.7067  1.5705
15646TIP3   OH268352   0.438   6.708  16.175 -0.3552  0.4613  0.2297
15646TIP3    H168353   0.461   6.734  16.264  0.4285  0.5922 -0.0035
15646TIP3    H268354   0.345   6.685  16.180 -0.4384  0.9248  0.9768
15647TIP3   OH268355   6.483   3.397  12.687 -0.2551 -0.6025 -0.1870
15647TIP3    H168356   6.553   3.449  12.726 -2.3587  0.8898  1.8872
15647TIP3    H268357   6.510   3.307  12.700  0.4527 -0.0965  2.3215
15648TIP3   OH268358   2.028   0.138  12.147  0.1550  0.4647  0.5264
15648TIP3    H168359   1.987   0.058  12.179 -0.3277  0.4929 -0.0017
15648TIP3    H268360   1.981   0.208  12.192  0.6583  0.4488  1.0789
15649TIP3   OH268361   2.828   3.871   3.210 -0.4044  0.1187  0.2418
15649TIP3    H168362   2.873   3.920   3.141  0.5943 -1.2524 -0.1150
15649TIP3    H268363   2.735   3.877   3.188 -0.3634  2.1058  0.3993
15650TIP3   OH268364   6.503   2.935  11.181  0.1181  0.5557  0.1360
15650TIP3    H168365   6.412   2.926  11.154 -0.6033  1.2699  2.1406
15650TIP3    H268366   6.550   2.955  11.100 -1.9613  3.1158 -0.5819
15651TIP3   OH268367   3.731   3.369  13.065 -0.3585 -0.6111  0.3916
15651TIP3    H168368   3.812   3.333  13.030 -0.1752 -1.3187  1.4892
15651TIP3    H268369   3.669   3.366  12.992  0.5309 -0.2640 -0.3935
15652TIP3   OH268370   1.646   0.654   0.493 -0.1097  0.2130  0.1391
15652TIP3    H168371   1.561   0.692   0.469 -0.1392  0.3189  0.4105
15652TIP3    H268372   1.694   0.727   0.532 -0.2771 -0.1054  0.9436
15653TIP3   OH268373   4.824   2.934  14.419  0.2219  0.2280  0.2161
15653TIP3    H168374   4.793   2.870  14.483 -0.5058 -1.1512 -1.4327
15653TIP3    H268375   4.744   2.964  14.375  0.7373  0.8981 -0.2924
15654TIP3   OH268376   0.876   3.061  14.191  0.2549 -0.0163 -0.1130
15654TIP3    H168377   0.886   2.999  14.263  0.5870  1.0690  0.7966
15654TIP3    H268378   0.783   3.056  14.168 -0.0417  0.2411  0.9677
15655TIP3   OH268379   3.510   2.947   0.058 -0.0668 -0.5968 -0.2813
15655TIP3    H168380   3.559   2.878   0.012 -0.8368 -1.0636 -0.4285
15655TIP3    H268381   3.488   3.010  -0.011  1.7365  0.4821  0.0713
15656TIP3   OH268382   5.830   6.792   1.317  0.3254  0.2366  0.6794
15656TIP3    H168383   5.735   6.786   1.324 -0.0618  0.5983 -2.5673
15656TIP3    H268384   5.860   6.802   1.407 -2.5024 -2.0150  2.0396
15657TIP3   OH268385   6.364   1.071  12.427  0.2158 -0.2021 -0.0377
15657TIP3    H168386   6.324   1.125  12.358  1.4896  0.5393 -0.2357
15657TIP3    H268387   6.455   1.101  12.431 -0.0432  0.4963  2.6574
15658TIP3   OH268388   0.335   4.178   5.529 -0.1106  0.4198 -0.1966
15658TIP3    H168389   0.371   4.244   5.588  1.3726 -0.8464  0.3869
15658TIP3    H268390   0.264   4.137   5.578  1.2254 -0.7471  0.8742
15659TIP3   OH268391   2.967   2.994  13.259  0.0951  1.0929  0.2464
15659TIP3    H168392   2.951   2.977  13.352 -0.8089  0.1649 -0.0696
15659TIP3    H268393   3.056   2.963  13.244 -0.4282 -0.5878  0.3867
15660TIP3   OH268394   2.001   0.307   2.379 -0.1605 -0.6849 -0.4042
15660TIP3    H168395   1.907   0.295   2.395 -0.6871  0.5818 -2.2753
15660TIP3    H268396   2.035   0.218   2.371 -1.3675 -1.1592 -0.4823
15661TIP3   OH268397   1.575   4.422   0.058 -0.5432  0.3176 -0.0313
15661TIP3    H168398   1.639   4.492   0.074 -0.2044  0.0954 -0.4033
15661TIP3    H268399   1.503   4.466   0.014 -1.0877  0.7595  1.2478
15662TIP3   OH268400   3.998   3.430  15.886 -0.0993  0.3799 -0.7786
15662TIP3    H168401   4.072   3.439  15.826 -0.8761  3.5536 -1.4671
15662TIP3    H268402   3.922   3.424  15.828 -0.5297 -1.6698 -0.0665
15663TIP3   OH268403   3.714   2.077  17.013 -0.4077 -0.0057 -0.5526
15663TIP3    H168404   3.648   2.037  17.069  0.1422 -0.7907 -0.4572
15663TIP3    H268405   3.797   2.057  17.054 -0.0255 -0.1339 -1.3579
15664TIP3   OH268406   0.722   5.177   4.616 -0.3249  0.3150  0.0937
15664TIP3    H168407   0.710   5.089   4.652  1.5319  0.4347  1.1461
15664TIP3    H268408   0.748   5.162   4.525  1.2931 -0.3302  0.6268
15665TIP3   OH268409   5.457   5.834   2.175  0.0739 -0.1539 -0.5339
15665TIP3    H168410   5.386   5.837   2.111 -0.4546  0.4413  0.0609
15665TIP3    H268411   5.500   5.749   2.160 -0.9130 -0.6271 -0.7487
15666TIP3   OH268412   3.454   1.889  13.386  0.4609  0.1666  0.3446
15666TIP3    H168413   3.394   1.868  13.457  0.6444  0.0758  0.4730
15666TIP3    H268414   3.405   1.950  13.330  0.7135  1.1010  1.1230
15667TIP3   OH268415   1.100   0.542   3.196  0.5080  0.5906 -0.3426
15667TIP3    H168416   1.039   0.547   3.269  2.1668 -0.1698  1.1897
15667TIP3    H268417   1.140   0.628   3.192  3.5503 -0.4468  2.6650
15668TIP3   OH268418   3.796   3.329   5.504  0.0868  0.4647  0.4146
15668TIP3    H168419   3.705   3.302   5.488  0.5992 -0.7814 -0.6251
15668TIP3    H268420   3.833   3.340   5.416  1.4835 -1.0370  0.7724
15669TIP3   OH268421   0.456   3.100   0.513  0.0271 -0.2226 -0.2650
15669TIP3    H168422   0.391   3.051   0.563  0.0222 -0.2196 -0.2682
15669TIP3    H268423   0.460   3.185   0.557 -1.4717  0.5198 -1.4611
15670TIP3   OH268424   4.171   4.277   3.238  0.5084 -0.2761 -0.0277
15670TIP3    H168425   4.244   4.336   3.257  0.4297 -0.2325  0.1360
15670TIP3    H268426   4.094   4.320   3.275  0.5706 -0.8420  0.7825
15671TIP3   OH268427   4.092   3.798   3.782  0.4239  0.6532 -0.1998
15671TIP3    H168428   4.023   3.733   3.793  0.8591  0.1400 -0.4837
15671TIP3    H268429   4.045   3.882   3.780 -0.0806  0.4127  0.8207
15672TIP3   OH268430   5.370   4.181  15.780  1.1028 -0.1669 -0.3730
15672TIP3    H168431   5.362   4.086  15.775 -0.4676 -0.1136  0.3140
15672TIP3    H268432   5.338   4.203  15.868 -0.7020  1.1367 -1.2848
15673TIP3   OH268433   0.741   4.850  16.779 -0.1878  0.5722  0.0314
15673TIP3    H168434   0.716   4.758  16.780 -0.7749  0.7250  0.7938
15673TIP3    H268435   0.658   4.897  16.784  0.0327  1.1726 -1.4593
15674TIP3   OH268436   5.473   0.353   6.554 -0.3339 -0.0154  0.5878
15674TIP3    H168437   5.558   0.310   6.543 -0.5728 -0.0282 -1.7800
15674TIP3    H268438   5.412   0.282   6.572 -0.3660 -0.4641 -1.1325
15675TIP3   OH268439   3.580   3.978  15.685 -0.0504 -0.0891 -0.2538
15675TIP3    H168440   3.547   3.926  15.612  0.3046  0.6531 -0.9563
15675TIP3    H268441   3.675   3.975  15.677  0.0403 -0.9036  0.8334
15676TIP3   OH268442   1.740   2.290  14.716 -0.3773  0.0229  0.4013
15676TIP3    H168443   1.700   2.203  14.707 -0.8154  0.2855 -0.3349
15676TIP3    H268444   1.783   2.305  14.632  1.1857 -0.1862  1.1254
15677TIP3   OH268445   2.254   5.546  12.279  0.0734  0.2304  0.7466
15677TIP3    H168446   2.168   5.550  12.238  0.6451  1.1571 -0.4581
15677TIP3    H268447   2.274   5.638  12.300  1.1300  0.1438  0.1744
15678TIP3   OH268448   6.150   1.785   5.188  0.3103 -0.0721 -0.1582
15678TIP3    H168449   6.098   1.859   5.157  0.2707  0.2539  0.6541
15678TIP3    H268450   6.202   1.821   5.260 -0.9665 -1.2112  1.3929
15679TIP3   OH268451   6.695   4.105  13.274 -0.0086 -0.0430 -0.0369
15679TIP3    H168452   6.637   4.050  13.327 -0.2982 -0.8139 -1.1196
15679TIP3    H268453   6.740   4.043  13.216 -0.5893  0.8639 -1.5126
15680TIP3   OH268454   2.267   2.838  12.621  0.5807 -0.0906 -0.0111
15680TIP3    H168455   2.197   2.773  12.613 -1.1430  1.5675  0.6258
15680TIP3    H268456   2.344   2.788  12.648 -0.8676 -1.7721  1.2481
15681TIP3   OH268457   4.703   5.241   3.371 -0.0980 -0.0262 -0.4798
15681TIP3    H168458   4.690   5.294   3.450  0.4139  0.3264 -0.6291
15681TIP3    H268459   4.649   5.164   3.386  2.9669 -1.9300  2.0508
15682TIP3   OH268460   0.603   1.450  11.361  0.0787  0.5041  0.3259
15682TIP3    H168461   0.566   1.366  11.388  1.2168 -0.5383 -1.1851
15682TIP3    H268462   0.636   1.489  11.442 -1.4783  0.0646  1.2246
15683TIP3   OH268463   3.327   4.365   1.265 -0.2325  0.2570 -0.3705
15683TIP3    H168464   3.337   4.407   1.180  0.0292 -1.9097 -1.4708
15683TIP3    H268465   3.238   4.330   1.265 -0.1069 -0.0726  0.1077
15684TIP3   OH268466   0.897   1.655  14.479  0.0804  0.0550 -0.1076
15684TIP3    H168467   0.957   1.657  14.404  0.3659 -0.4880  0.0974
15684TIP3    H268468   0.810   1.654  14.440  0.1804  1.1408 -0.4091
15685TIP3   OH268469   6.776   1.840  12.098 -0.0261 -0.0903  0.2574
15685TIP3    H168470   6.797   1.933  12.105  0.6992 -0.2300  0.0863
15685TIP3    H268471   6.681   1.835  12.108 -0.3059  0.8530 -1.5615
15686TIP3   OH268472   1.128   2.026   4.930 -0.3798 -0.2482  0.4952
15686TIP3    H168473   1.109   2.112   4.965 -1.7290 -0.1256 -0.4607
15686TIP3    H268474   1.148   2.042   4.837  0.8871 -0.8029  0.6473
15687TIP3   OH268475   3.413   5.492  13.858  0.5914 -0.3072  0.5521
15687TIP3    H168476   3.424   5.403  13.892 -1.1632  0.2192  2.7460
15687TIP3    H268477   3.323   5.494  13.827  0.6647  0.6805  0.3909
15688TIP3   OH268478   4.136   4.760  11.340 -0.0510  0.1752  0.4545
15688TIP3    H168479   4.174   4.681  11.303 -0.5365  0.3774 -0.5006
15688TIP3    H268480   4.043   4.741  11.350  0.1461 -0.0673  2.1207
15689TIP3   OH268481   2.972   0.998  13.992  0.0992  0.7733 -0.4399
15689TIP3    H168482   2.956   0.933  13.923  0.1478  0.9256 -0.5960
15689TIP3    H268483   2.942   0.956  14.072  1.4137  0.0158 -0.3303
15690TIP3   OH268484   6.293   3.849  16.976 -0.6320  0.0107 -0.4481
15690TIP3    H168485   6.313   3.797  17.054 -2.5764 -1.7119 -0.9973
15690TIP3    H268486   6.333   3.934  16.993  1.0263 -1.0463  1.3593
15691TIP3   OH268487   5.140   6.036  15.381  0.2072  0.4473  0.2912
15691TIP3    H168488   5.230   6.006  15.392  0.3855  0.9484  0.2077
15691TIP3    H268489   5.140   6.083  15.298  0.2133  1.7224  0.9935
15692TIP3   OH268490   2.085   4.577  13.711  0.1702 -0.3502  0.1925
15692TIP3    H168491   2.121   4.546  13.628 -0.3710  0.5997 -0.4175
15692TIP3    H268492   2.018   4.640  13.686 -1.5125 -1.5961  1.2891
15693TIP3   OH268493   3.037   4.511   3.214 -0.2402 -0.3386 -0.3801
15693TIP3    H168494   3.096   4.492   3.287 -0.7969  0.9260  0.4245
15693TIP3    H268495   3.036   4.606   3.207 -2.7120 -0.2716  0.0828
15694TIP3   OH268496   2.387   0.212  16.977 -0.3857 -0.4721  0.3217
15694TIP3    H168497   2.400   0.274  17.048 -1.8127 -2.5733  2.6103
15694TIP3    H268498   2.427   0.131  17.008  1.2839 -0.8522 -2.4682
15695TIP3   OH268499   0.824   5.659   4.717  0.3965  0.0287  0.2585
15695TIP3    H168500   0.800   5.572   4.749  0.3304  0.2979  0.9523
15695TIP3    H268501   0.755   5.682   4.654 -1.0804  0.6962  2.0383
15696TIP3   OH268502   0.486   0.466   3.214 -0.0289  0.3356  0.0238
15696TIP3    H168503   0.393   0.447   3.228  0.3169 -0.6385  1.1333
15696TIP3    H268504   0.506   0.428   3.128 -0.3205 -0.7643  0.4237
15697TIP3   OH268505   0.245   1.906   2.100 -0.1770 -0.0595 -0.5579
15697TIP3    H168506   0.217   1.969   2.167  0.1788 -0.3707 -0.1150
15697TIP3    H268507   0.299   1.843   2.147  0.9484  0.2988 -1.3221
15698TIP3   OH268508   1.774   3.306  16.793 -0.9940 -0.1819 -0.4252
15698TIP3    H168509   1.678   3.308  16.793 -1.0431  0.6279  2.0818
15698TIP3    H268510   1.797   3.286  16.702 -3.5314 -1.1913 -0.9414
15699TIP3   OH268511   6.702   4.957   1.263  0.5750  0.0950 -0.4707
15699TIP3    H168512   6.620   4.981   1.305  0.5448 -0.0404 -0.4510
15699TIP3    H268513   6.770   4.990   1.323  0.5279 -0.5645 -0.0468
15700TIP3   OH268514   5.892   2.785  12.831  0.2231 -0.0222 -0.2440
15700TIP3    H168515   5.946   2.774  12.753 -0.8813 -0.6266 -0.9567
15700TIP3    H268516   5.836   2.707  12.832 -0.1350  0.2372  0.8645
15701TIP3   OH268517   5.596   4.696  16.203 -0.0241  0.0791 -0.0608
15701TIP3    H168518   5.554   4.658  16.280  0.2471  0.9395  0.5303
15701TIP3    H268519   5.607   4.623  16.143 -1.5139 -0.3458  0.1397
15702TIP3   OH268520   0.091   4.577   3.988  0.3825  0.1469 -0.2224
15702TIP3    H168521   0.100   4.592   4.082 -1.1276 -1.3743  0.2195
15702TIP3    H268522   0.139   4.649   3.947  0.9758  0.8995  1.7041
15703TIP3   OH268523   1.234   3.326   2.256 -0.1159  0.5407  0.4262
15703TIP3    H168524   1.162   3.264   2.245 -0.4050  0.7230  1.2276
15703TIP3    H268525   1.193   3.405   2.291  0.5381  0.4878  1.3386
15704TIP3   OH268526   2.737   5.271   2.966 -0.1011  0.1015 -0.1109
15704TIP3    H168527   2.791   5.278   2.887  0.2058 -0.5354  0.0347
15704TIP3    H268528   2.648   5.287   2.935  0.1424  0.9846 -0.3829
15705TIP3   OH268529   5.576   1.836  13.542  0.1046 -0.1259  0.1326
15705TIP3    H168530   5.510   1.825  13.473 -0.4049  0.0420  0.5914
15705TIP3    H268531   5.570   1.757  13.594  0.3868 -0.1840  0.0805
15706TIP3   OH268532   1.606   5.074   0.322  0.0007 -0.0625  0.2622
15706TIP3    H168533   1.681   5.018   0.344 -0.1031 -0.2423  0.1569
15706TIP3    H268534   1.535   5.013   0.302 -0.0246  0.1021 -0.1600
15707TIP3   OH268535   4.706   3.597  11.499  0.2793 -0.4774 -0.0579
15707TIP3    H168536   4.748   3.682  11.486 -1.3856  0.6558  1.4104
15707TIP3    H268537   4.638   3.594  11.431  0.5043 -0.7537 -0.2716
15708TIP3   OH268538   3.001   4.928   2.673 -0.2829  0.3149 -0.2930
15708TIP3    H168539   2.946   4.923   2.595  0.8502 -1.6505 -1.0373
15708TIP3    H268540   2.984   4.847   2.720  1.1859  0.1549  0.0063
15709TIP3   OH268541   0.150   2.638   4.205 -0.7626 -0.2624 -0.1993
15709TIP3    H168542   0.233   2.591   4.194 -0.7850 -0.3242 -0.1047
15709TIP3    H268543   0.154   2.709   4.141  1.0112  2.1091  2.3092
15710TIP3   OH268544   2.101   4.210  16.313 -0.0603 -0.4350  0.6880
15710TIP3    H168545   2.038   4.207  16.385 -0.9788  0.9101 -0.0173
15710TIP3    H268546   2.066   4.149  16.248 -1.1474  0.9571 -0.0716
15711TIP3   OH268547   5.553   5.956  11.623 -0.4767 -0.5789 -0.5908
15711TIP3    H168548   5.591   5.890  11.566 -0.2613 -0.6283 -0.3909
15711TIP3    H268549   5.547   5.914  11.709 -0.9711 -0.5703 -0.6160
15712TIP3   OH268550   1.225   4.014   5.106 -0.4333 -0.2995  0.0008
15712TIP3    H168551   1.238   3.975   5.193 -0.8471 -0.4022  0.0231
15712TIP3    H268552   1.311   4.046   5.080 -0.5567  0.9219  1.0270
15713TIP3   OH268553   3.090   5.871   0.666  0.6141  0.2788 -0.4064
15713TIP3    H168554   3.009   5.819   0.670  1.5247 -1.1440  0.7535
15713TIP3    H268555   3.160   5.805   0.666  1.8618  1.4600  2.0731
15714TIP3   OH268556   2.111   2.126  14.822  0.0482  0.1007  0.0473
15714TIP3    H168557   2.049   2.072  14.870 -0.9643  1.4515  0.3344
15714TIP3    H268558   2.131   2.199  14.881 -0.9557  1.6176 -1.3717
15715TIP3   OH268559   6.397   5.528  14.164  0.2948 -0.8260 -0.2098
15715TIP3    H168560   6.314   5.538  14.211  0.1987  0.4738 -0.6479
15715TIP3    H268561   6.464   5.547  14.230  0.2695 -1.9643  0.1680
15716TIP3   OH268562   4.927   1.439  11.441 -0.2907 -0.4595 -0.5426
15716TIP3    H168563   4.995   1.441  11.508 -0.7059  0.5403 -0.1335
15716TIP3    H268564   4.907   1.346  11.430 -0.5525 -0.6177  1.0908
15717TIP3   OH268565   6.325   2.703  15.546  0.3329  0.4158  0.6054
15717TIP3    H168566   6.337   2.715  15.452 -0.9758  1.2692  0.5224
15717TIP3    H268567   6.289   2.786  15.576  3.2085  1.1741  2.3786
15718TIP3   OH268568   1.669   4.204   1.401  0.0492 -0.0671 -0.2372
15718TIP3    H168569   1.739   4.203   1.336  2.3910  0.5725  2.0871
15718TIP3    H268570   1.648   4.112   1.416  1.4441 -0.3597  0.0403
15719TIP3   OH268571   2.089   3.280   3.003  0.0250  0.0977 -0.0512
15719TIP3    H168572   2.163   3.309   3.056  0.8180 -1.0410 -0.4942
15719TIP3    H268573   2.078   3.348   2.936  1.2412 -0.1416 -0.5102
15720TIP3   OH268574   2.411   3.389   4.323 -0.2026 -0.4352  0.2846
15720TIP3    H168575   2.399   3.406   4.417  2.1156  3.2319  0.1573
15720TIP3    H268576   2.331   3.422   4.282 -0.8325 -1.1783  0.8946
15721TIP3   OH268577   3.061   0.241   1.596 -0.3130  0.1573 -0.6582
15721TIP3    H168578   3.070   0.320   1.649 -2.4886 -0.4720  0.7584
15721TIP3    H268579   3.051   0.170   1.659 -0.3962 -0.9980 -1.9177
15722TIP3   OH268580   3.060   1.217   5.242 -0.6255  0.5745  0.3262
15722TIP3    H168581   3.091   1.160   5.313 -0.3152 -0.1185 -0.3437
15722TIP3    H268582   3.070   1.306   5.276 -2.1959  0.2266  1.8365
15723TIP3   OH268583   1.021   2.557   2.877  0.1578  0.1801 -0.0355
15723TIP3    H168584   1.000   2.633   2.823 -0.8124 -0.0457  0.0162
15723TIP3    H268585   0.993   2.581   2.965 -1.0303 -0.5808 -0.1840
15724TIP3   OH268586   5.460   2.763  11.923  0.2558 -0.0873  0.1180
15724TIP3    H168587   5.412   2.698  11.871 -0.2686  0.7579 -0.4908
15724TIP3    H268588   5.391   2.809  11.972  0.6419 -0.1268  0.6992
15725TIP3   OH268589   5.261   5.750  11.671 -0.4480  0.5783 -0.5143
15725TIP3    H168590   5.266   5.803  11.592  1.9823  0.0327 -0.8093
15725TIP3    H268591   5.347   5.758  11.711 -0.9985 -0.7149  1.0564
15726TIP3   OH268592   6.101   4.632   4.740  0.5586 -0.3054  0.1304
15726TIP3    H168593   6.066   4.556   4.786  0.1253 -0.1960 -0.0135
15726TIP3    H268594   6.147   4.595   4.664  0.6308 -0.4407  0.2390
15727TIP3   OH268595   6.184   5.782  16.321 -0.1209 -0.5674 -0.3098
15727TIP3    H168596   6.092   5.793  16.343  0.7964  3.8756  2.8444
15727TIP3    H268597   6.229   5.779  16.405  2.7478 -1.8372 -1.7305
15728TIP3   OH268598   1.582   3.624   6.637  0.1149  0.1267  0.6928
15728TIP3    H168599   1.643   3.568   6.589 -0.2872 -0.1323  0.4762
15728TIP3    H268600   1.544   3.566   6.704 -0.2435  0.1597  0.5191
15729TIP3   OH268601   2.393   2.082   0.210 -0.0065  0.1315  0.0161
15729TIP3    H168602   2.439   2.115   0.287 -0.7093  0.4054  0.3260
15729TIP3    H268603   2.437   2.124   0.135  0.1571  0.4864  0.3115
15730TIP3   OH268604   5.997   2.527   4.528 -0.6015  0.2122 -0.3714
15730TIP3    H168605   6.044   2.610   4.535  1.3585 -0.8895  0.0646
15730TIP3    H268606   5.914   2.543   4.573 -0.4531  2.0361 -0.6592
15731TIP3   OH268607   3.685   1.614   1.220 -0.0283  0.0018  0.5042
15731TIP3    H168608   3.647   1.533   1.184 -0.8413  0.8824 -0.6691
15731TIP3    H268609   3.641   1.625   1.305 -0.1765 -0.5765  0.5114
15732TIP3   OH268610   4.114   1.605   1.985  1.0150 -0.2596  0.1633
15732TIP3    H168611   4.149   1.689   2.015 -1.5751  1.2990 -0.8771
15732TIP3    H268612   4.183   1.569   1.928  0.9997  2.7146 -1.9320
15733TIP3   OH268613   5.392   4.287   1.111 -0.2661  0.1261  0.0705
15733TIP3    H168614   5.301   4.304   1.089 -0.4979 -0.7192  0.3318
15733TIP3    H268615   5.390   4.263   1.204  0.1832 -0.1182  0.0224
15734TIP3   OH268616   5.192   6.430  11.352  0.0397  0.7017 -0.8240
15734TIP3    H168617   5.277   6.398  11.320 -0.3367  0.6415 -1.8000
15734TIP3    H268618   5.214   6.482  11.429  0.7371 -1.3578  0.4631
15735TIP3   OH268619   3.910   0.661   3.972  0.2065 -0.4300 -0.1568
15735TIP3    H168620   3.848   0.607   4.021 -0.1439 -0.7512 -0.9339
15735TIP3    H268621   3.872   0.668   3.885  1.2797 -0.6752 -0.6654
15736TIP3   OH268622   6.499   6.104   5.439 -0.0641 -0.1584  0.2953
15736TIP3    H168623   6.548   6.042   5.386 -0.2601 -0.6960  0.7278
15736TIP3    H268624   6.428   6.052   5.478  0.2907  0.1294  1.3737
15737TIP3   OH268625   5.143   3.048   2.830 -0.7681 -0.0129 -0.4620
15737TIP3    H168626   5.147   3.090   2.745 -2.5069 -0.6414 -0.8933
15737TIP3    H268627   5.218   3.083   2.878 -1.0182  2.0339 -1.4704
15738TIP3   OH268628   5.844   3.034  16.409 -0.2910 -0.4071 -0.1510
15738TIP3    H168629   5.822   2.941  16.403 -1.2358 -0.1898 -0.2895
15738TIP3    H268630   5.832   3.055  16.502  0.3740 -0.5245 -0.0349
15739TIP3   OH268631   2.090   3.525  16.727 -0.4851 -0.0997 -0.2816
15739TIP3    H168632   2.043   3.604  16.755 -0.4054 -0.0926 -0.1669
15739TIP3    H268633   2.042   3.495  16.649 -0.3024  0.2644 -0.5372
15740TIP3   OH268634   3.046   5.258   1.748 -0.1996  0.0523  0.2478
15740TIP3    H168635   3.015   5.172   1.774 -1.9764  0.7719  0.6123
15740TIP3    H268636   3.028   5.263   1.654 -2.4298  0.8988  0.6546
15741TIP3   OH268637   5.881   3.439  11.016 -0.5306 -0.4579  0.5228
15741TIP3    H168638   5.930   3.475  11.090 -0.2070  0.1866  0.0015
15741TIP3    H268639   5.839   3.360  11.051  2.5857 -2.3203  0.5004
15742TIP3   OH268640   6.587   0.858  16.089  0.2724 -0.6862  0.1092
15742TIP3    H168641   6.523   0.918  16.128  0.4791 -0.6726  0.4295
15742TIP3    H268642   6.547   0.831  16.006  1.0529  1.5155 -1.0708
15743TIP3   OH268643   0.516   4.112  12.845 -0.6503 -0.3923 -0.8597
15743TIP3    H168644   0.507   4.204  12.821 -0.5873 -0.1611 -0.0279
15743TIP3    H268645   0.610   4.101  12.860 -0.8299 -0.1691  0.6106
15744TIP3   OH268646   4.316   3.372   4.865  0.2143  0.2811  1.0857
15744TIP3    H168647   4.368   3.303   4.905  0.6705 -0.2274 -0.3267
15744TIP3    H268648   4.231   3.331   4.847  0.7099 -0.1636 -0.3904
15745TIP3   OH268649   6.393   2.608  10.457  0.2331 -0.5331  0.8342
15745TIP3    H168650   6.361   2.531  10.410 -2.0330  0.0781  1.2782
15745TIP3    H268651   6.482   2.585  10.483  0.9031 -1.6455 -2.0228
15746TIP3   OH268652   1.008   4.989  12.299  0.1845  0.0018  0.2411
15746TIP3    H168653   0.947   4.916  12.291  0.9271 -0.4932 -1.4316
15746TIP3    H268654   1.004   5.032  12.214  3.2279 -0.9489 -0.5129
15747TIP3   OH268655   4.360   2.308   5.299  0.2630  0.9031 -0.2448
15747TIP3    H168656   4.391   2.369   5.366 -0.7068 -0.9556  2.0563
15747TIP3    H268657   4.310   2.362   5.238  1.0823  2.6651  0.5832
15748TIP3   OH268658   3.714   2.672   2.408 -0.2660  0.1884  0.0781
15748TIP3    H168659   3.784   2.609   2.424  0.9623  1.8806  1.8497
15748TIP3    H268660   3.649   2.624   2.358  1.8863 -1.6281 -1.1229
15749TIP3   OH268661   5.572   5.267   1.617 -0.2989  0.0005 -0.1126
15749TIP3    H168662   5.642   5.254   1.681  0.4255  0.0621 -0.8632
15749TIP3    H268663   5.516   5.190   1.625 -0.4674  0.2130  0.8842
15750TIP3   OH268664   4.672   3.564  11.781  0.6232  0.3346  0.4298
15750TIP3    H168665   4.579   3.587  11.790  1.1525  3.3316 -0.4767
15750TIP3    H268666   4.688   3.566  11.687  2.1500  2.8309  0.6462
15751TIP3   OH268667   6.410   6.714   3.180 -0.1776  0.1319  0.0125
15751TIP3    H168668   6.360   6.736   3.102  0.2311  0.1617 -0.2413
15751TIP3    H268669   6.349   6.662   3.233 -0.3425 -0.1860 -0.4793
15752TIP3   OH268670   1.576   5.494   0.084 -0.1735  0.0801  0.2706
15752TIP3    H168671   1.641   5.489   0.013  0.4715  0.3731  0.8343
15752TIP3    H268672   1.606   5.430   0.148 -0.3788  0.3103  0.5951
15753TIP3   OH268673   2.663   1.864   2.432  0.4921 -0.6046  0.1682
15753TIP3    H168674   2.659   1.881   2.338 -0.6446 -0.7790  0.1737
15753TIP3    H268675   2.657   1.951   2.472  0.3272 -0.5812  0.0928
15754TIP3   OH268676   6.657   1.333   1.285 -0.0839 -0.2412 -0.0393
15754TIP3    H168677   6.752   1.339   1.288 -0.1510  0.2530  2.2476
15754TIP3    H268678   6.626   1.418   1.315 -1.2983 -0.1368 -1.4212
15755TIP3   OH268679   3.640   5.382   2.090  0.1805 -0.2291  0.0575
15755TIP3    H168680   3.735   5.384   2.095  0.2598 -0.0840 -1.2205
15755TIP3    H268681   3.620   5.389   1.997 -1.0296 -2.6261  0.0609
15756TIP3   OH268682   3.223   0.069  11.676 -0.5329 -0.9456  0.4630
15756TIP3    H168683   3.151   0.116  11.720 -0.3175  0.3603 -0.5408
15756TIP3    H268684   3.240  -0.006  11.733 -1.0175  0.0851  2.0264
15757TIP3   OH268685   1.888   5.404   2.183  0.2908  0.2855  0.9947
15757TIP3    H168686   1.892   5.437   2.093 -1.6265  0.3468  0.8860
15757TIP3    H268687   1.888   5.309   2.174  3.1837  0.1771  1.1638
15758TIP3   OH268688   0.611   4.847  13.017  0.3363  0.1517  0.6587
15758TIP3    H168689   0.568   4.802  13.090 -0.3113 -0.6047 -0.1737
15758TIP3    H268690   0.649   4.777  12.965 -0.3943  0.5813 -0.4797
15759TIP3   OH268691   2.086   3.174   3.413  0.4054 -0.8481  0.6483
15759TIP3    H168692   2.141   3.136   3.345  0.4344  0.0782  0.1376
15759TIP3    H268693   2.145   3.187   3.487  0.8601  0.0058  0.1532
15760TIP3   OH268694   0.571   4.167   1.274 -0.3896  0.0500  0.6163
15760TIP3    H168695   0.626   4.149   1.350 -1.1767 -1.8553  0.7893
15760TIP3    H268696   0.587   4.259   1.254  2.6617 -0.3411  0.7862
15761TIP3   OH268697   6.770   5.417  11.228 -0.1734  0.1847 -0.0507
15761TIP3    H168698   6.807   5.503  11.250  0.7735 -0.1716 -0.2168
15761TIP3    H268699   6.739   5.427  11.138 -1.1480  0.6978  0.3335
15762TIP3   OH268700   2.293   3.802   3.611  0.8027  0.0724 -0.0821
15762TIP3    H168701   2.308   3.891   3.578 -0.5183  0.6589  0.8200
15762TIP3    H268702   2.294   3.747   3.533 -0.5076  1.1716 -0.9328
15763TIP3   OH268703   2.311   4.231  16.140  0.9852 -0.2401 -0.3248
15763TIP3    H168704   2.249   4.249  16.069  1.4059  0.3180 -0.5614
15763TIP3    H268705   2.257   4.229  16.219  0.9826  3.7262 -0.0124
15764TIP3   OH268706   5.194   5.465   0.842 -0.3221  0.4973  0.3981
15764TIP3    H168707   5.110   5.438   0.880 -2.2067  2.8030 -1.7745
15764TIP3    H268708   5.232   5.384   0.809 -2.7910 -0.4028 -0.4829
15765TIP3   OH268709   1.831   1.370   4.978  0.1984  0.4883 -0.4094
15765TIP3    H168710   1.790   1.387   4.893  0.3988  2.4026 -0.1718
15765TIP3    H268711   1.797   1.439   5.035  0.8838 -0.1342  0.7808
15766TIP3   OH268712   1.661   4.652  14.185 -0.2789  0.1422 -0.2295
15766TIP3    H168713   1.662   4.631  14.279 -0.7268 -0.4606 -0.3532
15766TIP3    H268714   1.582   4.704  14.173 -1.0931 -1.1199 -0.5361
15767TIP3   OH268715   0.187   6.031   2.264 -0.4591  0.0548  0.6048
15767TIP3    H168716   0.109   6.056   2.214  1.0170  0.1544 -1.7611
15767TIP3    H268717   0.224   6.114   2.294 -0.7398  0.0650  0.9291
15768TIP3   OH268718   0.078   2.312   0.298 -0.0622 -0.1266 -0.3562
15768TIP3    H168719   0.063   2.234   0.245 -2.1235  0.8626 -1.3333
15768TIP3    H268720   0.164   2.343   0.271 -0.0343 -0.9974 -1.3337
15769TIP3   OH268721   3.718   4.197   3.197  0.1360 -0.3899  0.2160
15769TIP3    H168722   3.701   4.195   3.291 -2.1509 -0.9404 -0.1352
15769TIP3    H268723   3.724   4.290   3.176  0.2901 -0.2505  0.8536
15770TIP3   OH268724   2.305   0.709   3.385  0.0840  0.6058 -0.1206
15770TIP3    H168725   2.302   0.683   3.477 -2.4783 -0.7732 -0.5011
15770TIP3    H268726   2.349   0.636   3.340 -1.4887 -0.2453 -0.3514
15771TIP3   OH268727   4.184   1.504   5.594 -0.1321 -0.2658  0.0727
15771TIP3    H168728   4.089   1.498   5.610  0.0013 -1.0469  0.5757
15771TIP3    H268729   4.193   1.482   5.501 -0.5467  0.9153 -0.2725
15772TIP3   OH268730   3.976   2.650   2.278  0.3703 -0.8208  0.2871
15772TIP3    H168731   3.994   2.668   2.186  0.6466 -0.2206  0.4508
15772TIP3    H268732   4.025   2.718   2.326 -1.1442 -0.0340  0.8012
15773TIP3   OH268733   4.337   1.869   3.613  0.5469 -0.1677 -0.2233
15773TIP3    H168734   4.369   1.843   3.527  1.9342  1.9957 -0.4423
15773TIP3    H268735   4.412   1.911   3.655 -0.5540  0.2816  1.3884
15774TIP3   OH268736   5.863   3.589   2.402 -0.4027 -0.1444  0.1652
15774TIP3    H168737   5.797   3.609   2.335  0.0347  0.0764 -0.2054
15774TIP3    H268738   5.946   3.591   2.355 -0.0185  0.7394  0.8662
15775TIP3   OH268739   0.253   6.242   1.203 -0.1357 -0.1792 -0.1475
15775TIP3    H168740   0.196   6.239   1.279 -0.3688  0.5832 -0.2793
15775TIP3    H268741   0.246   6.332   1.171 -0.8731 -0.7400 -1.6868
15776TIP3   OH268742   6.191   1.324  11.855 -0.6447 -0.3177  0.1329
15776TIP3    H168743   6.209   1.392  11.790 -0.0418  0.2486  0.8720
15776TIP3    H268744   6.233   1.246  11.820  0.5188  0.2145  0.2757
15777TIP3   OH268745   5.147   2.606  17.032 -0.5520  0.4384  0.0081
15777TIP3    H168746   5.118   2.618  17.122 -0.0838 -0.8949  0.3578
15777TIP3    H268747   5.230   2.559  17.039 -0.2588  0.7636 -1.0999
15778TIP3   OH268748   1.920   6.176   3.798 -0.4640  1.0528  0.5216
15778TIP3    H168749   1.937   6.137   3.712 -2.2664 -0.5583  0.8473
15778TIP3    H268750   1.969   6.259   3.796  0.2538  0.6527 -1.7007
15779TIP3   OH268751   4.286   6.726  11.657 -0.7052  0.3443 -0.1376
15779TIP3    H168752   4.351   6.756  11.721  1.4421 -0.1657 -1.9637
15779TIP3    H268753   4.204   6.764  11.687  0.6668  2.2572  1.4780
15780TIP3   OH268754   4.438   5.586   4.493  0.0514 -0.1770  0.2187
15780TIP3    H168755   4.401   5.669   4.522  1.3069  0.1563  0.9538
15780TIP3    H268756   4.397   5.570   4.408 -0.8846  0.7287  0.4769
15781TIP3   OH268757   5.020   3.629   4.490  0.0766 -0.4634  0.2519
15781TIP3    H168758   4.925   3.622   4.485  0.1570 -0.5996 -2.4983
15781TIP3    H268759   5.038   3.723   4.485  0.1145 -0.5329 -1.2360
15782TIP3   OH268760   1.298   0.415   4.885  0.0112 -0.4726  0.0930
15782TIP3    H168761   1.300   0.496   4.834  1.0747  0.2558  1.2601
15782TIP3    H268762   1.378   0.417   4.937 -1.3411 -0.8945  2.2777
15783TIP3   OH268763   1.445   1.242   3.451  0.3033  0.1668 -0.4486
15783TIP3    H168764   1.413   1.306   3.388 -0.3986  0.4269  0.1526
15783TIP3    H268765   1.462   1.163   3.400 -0.8139  0.1915 -0.8703
15784TIP3   OH268766   3.098   5.809  14.106 -0.2924  0.1414 -0.0936
15784TIP3    H168767   3.123   5.782  14.018  0.4405 -3.3880  1.0138
15784TIP3    H268768   3.173   5.784  14.160 -1.3670  0.6894  1.7399
15785TIP3   OH268769   5.953   6.734  12.532 -0.2072  0.7120 -0.2651
15785TIP3    H168770   5.865   6.710  12.504 -0.3807  2.2777 -1.2418
15785TIP3    H268771   5.969   6.684  12.611 -2.6398  1.6170  0.8935
15786TIP3   OH268772   6.363   3.579   2.801 -0.2612  0.0191 -0.1679
15786TIP3    H168773   6.451   3.548   2.827 -0.4181 -1.9111 -1.7237
15786TIP3    H268774   6.304   3.513   2.837 -0.9821  0.6410 -0.2036
15787TIP3   OH268775   4.328   6.248  15.552 -0.0624 -0.9608 -0.5167
15787TIP3    H168776   4.315   6.248  15.457  0.2238  0.2367 -0.5718
15787TIP3    H268777   4.416   6.283  15.564  0.7207 -3.0004  0.1265
15788TIP3   OH268778   5.616   0.431  14.650  0.0167  0.2482  0.2796
15788TIP3    H168779   5.652   0.358  14.598 -0.5351  0.3392 -0.2505
15788TIP3    H268780   5.637   0.509  14.599  1.2711  0.5510  1.2191
15789TIP3   OH268781   4.690   3.645  13.145 -0.4434  0.8014 -0.2159
15789TIP3    H168782   4.752   3.581  13.178 -0.9103  0.9232  0.9198
15789TIP3    H268783   4.739   3.728  13.147 -1.5450  1.5652  3.8818
15790TIP3   OH268784   0.417   1.816  16.868 -0.3248  0.0077  0.2695
15790TIP3    H168785   0.371   1.893  16.900 -2.0690 -0.3491 -1.2168
15790TIP3    H268786   0.381   1.743  16.918  0.2496 -0.0317  0.6384
15791TIP3   OH268787   6.508   5.683   2.226 -0.0833 -0.5887  0.2911
15791TIP3    H168788   6.602   5.695   2.222 -0.2654  0.7636 -0.5625
15791TIP3    H268789   6.492   5.643   2.312  1.1196  0.7022  1.1568
15792TIP3   OH268790   2.779   6.479  11.181 -0.2486  0.1289  0.0258
15792TIP3    H168791   2.770   6.553  11.241 -0.5961  0.4582 -0.4292
15792TIP3    H268792   2.764   6.516  11.094 -0.7964 -0.5471 -0.1791
15793TIP3   OH268793   6.255   6.599   4.723  0.2518  0.1565 -0.6318
15793TIP3    H168794   6.246   6.522   4.779 -1.2293 -0.5888 -1.8283
15793TIP3    H268795   6.339   6.587   4.679  0.5124 -0.2402 -0.0425
15794TIP3   OH268796   5.319   1.889   2.788 -0.3728  0.3050 -0.2100
15794TIP3    H168797   5.370   1.879   2.869 -1.2955 -0.6411  0.2811
15794TIP3    H268798   5.364   1.833   2.725  1.2288  2.1827 -0.8383
15795TIP3   OH268799   3.265   0.516   5.021 -0.1132 -0.0192  0.0037
15795TIP3    H168800   3.262   0.431   5.065  1.3708  1.1093  2.5238
15795TIP3    H268801   3.188   0.562   5.053  0.4988  0.4990  0.7474
15796TIP3   OH268802   5.070   5.338   5.633 -0.0053  0.6845 -0.0896
15796TIP3    H168803   5.002   5.270   5.635  1.2796 -0.8721 -2.8508
15796TIP3    H268804   5.136   5.308   5.696 -0.9065  1.1597  1.1230
15797TIP3   OH268805   0.058   6.105   3.074 -0.1407  0.3786 -0.3584
15797TIP3    H168806   0.076   6.195   3.048 -2.7730 -0.1010 -4.9956
15797TIP3    H268807   0.128   6.054   3.032 -0.0375  0.0623  0.1899
15798TIP3   OH268808   2.784   1.525   0.516  0.0021 -0.1712 -0.3809
15798TIP3    H168809   2.696   1.526   0.479 -0.1432 -0.4599 -0.0444
15798TIP3    H268810   2.780   1.460   0.586  0.1399  0.7415  0.4781
15799TIP3   OH268811   2.067   3.011  14.548 -0.5483 -0.1305 -0.0641
15799TIP3    H168812   2.082   2.957  14.626 -0.5552  0.1319  0.1184
15799TIP3    H268813   2.023   3.089  14.580 -1.4698 -0.4724 -0.4696
15800TIP3   OH268814   4.479   6.312  14.083 -0.5543 -0.2947  0.2653
15800TIP3    H168815   4.481   6.400  14.120 -0.3670 -1.1569  2.4103
15800TIP3    H268816   4.387   6.285  14.090 -0.1150 -1.4028  2.5554
15801TIP3   OH268817   0.581   0.984   1.810  0.2728  0.3272  0.0668
15801TIP3    H168818   0.596   0.928   1.886 -0.4083  1.6941  1.2582
15801TIP3    H268819   0.625   1.066   1.831 -0.6793  1.0394 -0.6031
15802TIP3   OH268820   5.450   1.889   1.582 -0.4058  0.0853  0.5824
15802TIP3    H168821   5.467   1.835   1.660 -2.2863 -2.0554 -0.3517
15802TIP3    H268822   5.357   1.908   1.587 -0.6094 -0.2887 -1.2183
15803TIP3   OH268823   2.922   2.209  14.403 -0.2724  0.0714  0.0658
15803TIP3    H168824   2.867   2.283  14.429 -1.1753 -0.1333 -1.1496
15803TIP3    H268825   2.861   2.136  14.390  0.2502 -0.1564 -1.3255
15804TIP3   OH268826   3.519   1.695   1.576  0.3342  0.1716 -0.0103
15804TIP3    H168827   3.518   1.736   1.663  0.9107 -0.8605  0.4974
15804TIP3    H268828   3.605   1.716   1.540 -0.5104  2.0626 -1.0880
15805TIP3   OH268829   5.171   0.802   4.206 -0.0229  0.4565  0.2902
15805TIP3    H168830   5.230   0.801   4.131 -0.6340 -0.9015 -0.2069
15805TIP3    H268831   5.193   0.723   4.255 -0.9730  0.2776  0.4455
15806TIP3   OH268832   5.362   3.041   5.246 -0.0176  0.0010 -0.0261
15806TIP3    H168833   5.275   3.013   5.217 -0.4036 -0.0048  1.0666
15806TIP3    H268834   5.353   3.050   5.341  0.9099  0.9672 -0.0164
15807TIP3   OH268835   6.101   5.045  15.196 -0.1661 -0.0308  0.4592
15807TIP3    H168836   6.156   5.073  15.123  2.3397 -0.8341  1.9100
15807TIP3    H268837   6.093   4.950  15.185 -0.5567 -0.0385  0.7699
15808TIP3   OH268838   3.766   4.118   5.820 -0.0795 -0.0860 -0.2159
15808TIP3    H168839   3.739   4.206   5.796 -1.0577  0.2229  1.8125
15808TIP3    H268840   3.839   4.130   5.880 -0.4258 -0.6383  0.3284
15809TIP3   OH268841   0.834   3.716  13.945  0.3615 -0.3977 -0.1768
15809TIP3    H168842   0.743   3.724  13.975  0.1168  1.0093 -1.1898
15809TIP3    H268843   0.828   3.668  13.863  0.6524 -1.2180  0.2786
15810TIP3   OH268844   1.625   2.022  13.475  0.1676 -0.0704 -0.2518
15810TIP3    H168845   1.610   2.059  13.562  0.2450 -0.7569  0.0631
15810TIP3    H268846   1.551   2.052  13.423  0.0012  0.1597  0.1170
15811TIP3   OH268847   5.273   4.100  14.411 -0.8692 -0.2385  0.6043
15811TIP3    H168848   5.248   4.120  14.501  2.5930 -2.1108  2.1423
15811TIP3    H268849   5.255   4.007  14.400 -0.8592 -0.1295 -0.5272
15812TIP3   OH268850   3.400   2.679  14.501  0.2494  0.4896  0.1968
15812TIP3    H168851   3.414   2.769  14.470 -1.6849  0.1212 -2.1413
15812TIP3    H268852   3.410   2.626  14.422  1.1570 -1.3505  1.5004
15813TIP3   OH268853   4.920   5.143   0.484  0.6840  0.0566 -0.6633
15813TIP3    H168854   4.861   5.095   0.426 -0.7543 -2.2597  2.4610
15813TIP3    H268855   4.881   5.230   0.491  0.5090  0.1661 -2.5073
15814TIP3   OH268856   1.534   5.669   4.170  0.7833 -0.6787  0.1210
15814TIP3    H168857   1.585   5.622   4.103 -1.0366 -1.7767 -0.5665
15814TIP3    H268858   1.466   5.607   4.197  0.6354  0.2297  2.0321
15815TIP3   OH268859   3.843   6.125   1.851  0.0437 -0.3959  0.3995
15815TIP3    H168860   3.788   6.104   1.776  0.8875  1.7494 -0.9040
15815TIP3    H268861   3.814   6.213   1.877  0.9429 -0.4013  1.4910
15816TIP3   OH268862   4.604   6.415   5.059 -0.1947  0.6262  0.6889
15816TIP3    H168863   4.635   6.355   4.992 -2.3744 -0.6274  0.6896
15816TIP3    H268864   4.648   6.387   5.139  0.6424  0.6197  0.2399
15817TIP3   OH268865   3.250   6.271  13.268  0.5170 -0.5487 -0.0093
15817TIP3    H168866   3.286   6.303  13.351 -3.1986  0.2753  1.5361
15817TIP3    H268867   3.205   6.347  13.231  0.1279 -1.5031 -1.5665
15818TIP3   OH268868   0.967   4.613  12.581  0.3243 -0.2685  0.2787
15818TIP3    H168869   0.905   4.685  12.595 -0.6237 -0.6123 -1.7162
15818TIP3    H268870   0.969   4.566  12.664  1.5550  2.4115  1.9232
15819TIP3   OH268871   6.276   2.561   1.055  0.0842  0.2288  0.3216
15819TIP3    H168872   6.245   2.520   1.136  2.1826 -1.8115  0.1692
15819TIP3    H268873   6.354   2.609   1.081  0.2067  0.3836 -0.3209
15820TIP3   OH268874   0.379   6.737   5.667  0.2536  0.4497 -0.4296
15820TIP3    H168875   0.367   6.829   5.691 -2.5801 -0.0012  0.2695
15820TIP3    H268876   0.414   6.740   5.578  0.9066  2.1822 -0.1613
15821TIP3   OH268877   0.213   4.180  16.624  0.4198 -0.1311 -0.3021
15821TIP3    H168878   0.246   4.252  16.570  2.3572  0.9006  2.0703
15821TIP3    H268879   0.125   4.164  16.590  1.0033  1.3534 -2.8077
15822TIP3   OH268880   6.459   6.618  13.633 -0.0695 -0.0779  0.2587
15822TIP3    H168881   6.391   6.683  13.647 -1.0678 -0.5462 -1.9245
15822TIP3    H268882   6.515   6.656  13.565  1.5858  0.0757  1.6492
15823TIP3   OH268883   2.288   1.893   3.796  0.7323 -0.1691  0.4445
15823TIP3    H168884   2.313   1.801   3.810 -1.7054 -0.7569  1.3585
15823TIP3    H268885   2.219   1.889   3.730  1.1709  1.1134 -0.1172
15824TIP3   OH268886   4.250   2.595  15.471 -0.2981 -0.0125 -0.0756
15824TIP3    H168887   4.258   2.514  15.421 -0.1968  0.7657 -1.3813
15824TIP3    H268888   4.333   2.603  15.517  0.4781  0.2882 -1.4549
15825TIP3   OH268889   2.970   2.507   3.277  0.4125 -0.4193 -0.4017
15825TIP3    H168890   2.980   2.589   3.325  0.6999 -0.8808  0.3524
15825TIP3    H268891   3.020   2.443   3.328 -1.4600 -1.5057  0.1661
15826TIP3   OH268892   1.455   2.838   6.001 -0.2890  0.4114  0.2163
15826TIP3    H168893   1.416   2.925   6.004 -1.3656 -0.0642  0.4036
15826TIP3    H268894   1.490   2.824   6.089 -0.3126  0.5668  0.2508
15827TIP3   OH268895   5.594   6.452  14.497 -0.5346  0.5806 -0.1584
15827TIP3    H168896   5.520   6.400  14.467 -1.0867  0.0605  1.9322
15827TIP3    H268897   5.648   6.465  14.419 -1.7092 -0.8946 -1.2718
15828TIP3   OH268898   5.005   3.476  14.225 -0.6054  0.3255  0.0618
15828TIP3    H168899   4.996   3.408  14.292  1.1598  0.4851  0.5014
15828TIP3    H268900   5.024   3.556  14.274  1.6179  0.2722 -0.6233
15829TIP3   OH268901   5.349   1.913  12.902 -0.1117 -0.5163 -0.8248
15829TIP3    H168902   5.383   1.918  12.991 -2.0678 -2.1490  0.1096
15829TIP3    H268903   5.410   1.854  12.857  0.9082  0.3405 -0.6019
15830TIP3   OH268904   2.405   1.675  11.928  0.4721 -0.4867  0.1749
15830TIP3    H168905   2.471   1.688  11.860  0.8964  0.5062  0.7540
15830TIP3    H268906   2.363   1.761  11.936  0.1235 -0.7186  0.8535
15831TIP3   OH268907   0.249   2.495   1.251  0.2292 -0.0553 -0.6850
15831TIP3    H168908   0.296   2.485   1.169 -3.0531 -0.6462 -2.7039
15831TIP3    H268909   0.188   2.568   1.235  0.7184  1.0570  1.9300
15832TIP3   OH268910   3.493   6.388   4.770  0.2136  0.3206  0.2460
15832TIP3    H168911   3.516   6.460   4.711  0.5344  0.0691  0.0689
15832TIP3    H268912   3.442   6.328   4.716  2.1060 -0.8579 -0.3012
15833TIP3   OH268913   4.772   1.643  16.716 -0.7511  0.2420  0.4055
15833TIP3    H168914   4.697   1.682  16.671  1.3773  1.3315 -2.5321
15833TIP3    H268915   4.771   1.551  16.689  0.0895  0.7303 -1.5043
15834TIP3   OH268916   4.501   2.078   1.880 -0.4548  0.0816 -0.1600
15834TIP3    H168917   4.552   2.146   1.925 -1.5306  0.5447  0.3895
15834TIP3    H268918   4.544   2.070   1.795 -1.0530  2.3912 -0.7659
15835TIP3   OH268919   1.584   1.219   3.035 -0.0458 -0.1348  0.9000
15835TIP3    H168920   1.546   1.181   2.955  1.0758 -2.3138  1.3342
15835TIP3    H268921   1.675   1.239   3.011 -0.2401  1.0199  1.0932
15836TIP3   OH268922   2.661   1.579  10.909  0.7678 -0.8703  0.7038
15836TIP3    H168923   2.675   1.673  10.898 -0.1333 -0.7879  0.1954
15836TIP3    H268924   2.745   1.539  10.884  0.6862 -0.2917 -0.5798
15837TIP3   OH268925   6.068   1.731  13.539 -0.2045  0.1652  0.2731
15837TIP3    H168926   6.016   1.684  13.475 -0.5504  1.0631 -0.1293
15837TIP3    H268927   6.077   1.671  13.613  1.2990 -1.4152 -1.0969
15838TIP3   OH268928   6.156   6.600  12.695  0.0573 -0.4828 -0.1479
15838TIP3    H168929   6.145   6.506  12.681  0.7017 -0.9324  1.9987
15838TIP3    H268930   6.150   6.611  12.789  2.1852  1.3011 -0.1309
15839TIP3   OH268931   6.312   0.560  14.949 -0.0136  0.4901 -0.2975
15839TIP3    H168932   6.234   0.531  14.903 -1.2336  0.2331  1.8076
15839TIP3    H268933   6.279   0.613  15.022  1.6729 -0.4467  1.2404
15840TIP3   OH268934   4.353   5.854   5.814 -0.6194  0.0082 -0.1326
15840TIP3    H168935   4.343   5.802   5.893 -1.6584 -0.4799 -0.5607
15840TIP3    H268936   4.447   5.867   5.805 -0.4491 -0.5190  0.7989
15841TIP3   OH268937   6.435   0.688   5.705  0.4107  0.4231 -0.0406
15841TIP3    H168938   6.396   0.686   5.792 -0.2120 -0.3359 -0.3298
15841TIP3    H268939   6.361   0.693   5.645  0.8350  0.9540 -0.5358
15842TIP3   OH268940   5.762   4.442   5.666  0.0387  0.3881 -0.0093
15842TIP3    H168941   5.695   4.398   5.613  0.4129 -0.8561  0.5170
15842TIP3    H268942   5.845   4.418   5.624  0.1772  2.1628 -0.8357
15843TIP3   OH268943   2.066   2.266   4.631  0.4354 -0.0612  0.4718
15843TIP3    H168944   2.066   2.332   4.700  0.0331  2.3908 -1.7146
15843TIP3    H268945   1.976   2.265   4.598  0.2072 -2.3812  0.9676
15844TIP3   OH268946   2.883   2.129  16.657 -0.1293  0.9622 -0.1635
15844TIP3    H168947   2.796   2.167  16.665 -0.4007  0.3045  0.0815
15844TIP3    H268948   2.931   2.163  16.733 -0.8569 -0.4262  0.9688
15845TIP3   OH268949   5.260   6.710   2.025 -0.8350 -0.2841  0.2614
15845TIP3    H168950   5.302   6.682   1.945 -0.0135  0.8269  0.2732
15845TIP3    H268951   5.262   6.633   2.082  0.4491 -0.4988 -0.0424
15846TIP3   OH268952   4.149   0.759  17.102  0.2999  0.3422  0.4271
15846TIP3    H168953   4.229   0.767  17.155  0.1427 -0.9988  0.8839
15846TIP3    H268954   4.107   0.845  17.110  1.0812  0.6716  1.1747
15847TIP3   OH268955   4.085   4.547   1.236 -0.1504 -0.0150  0.8032
15847TIP3    H168956   4.034   4.526   1.315 -2.0683  0.8534 -0.1212
15847TIP3    H268957   4.045   4.494   1.167  0.0153  0.8775 -0.0045
15848TIP3   OH268958   0.757   3.452   4.392 -0.2907  0.0254  0.1422
15848TIP3    H168959   0.759   3.496   4.307 -0.5174  0.3158  0.2853
15848TIP3    H268960   0.820   3.381   4.383 -1.4452 -0.9372 -0.8099
15849TIP3   OH268961   6.486   0.826  15.830 -0.0810  0.2960  0.2603
15849TIP3    H168962   6.447   0.809  15.744  0.7595  1.0916 -0.2995
15849TIP3    H268963   6.434   0.898  15.866 -1.4037 -1.0267  1.1092
15850TIP3   OH268964   4.841   0.450   0.909 -0.1391  0.2220 -0.2402
15850TIP3    H168965   4.812   0.477   0.821 -1.0265  1.4379  0.3949
15850TIP3    H268966   4.771   0.395   0.942 -1.0098  1.7989  0.6468
15851TIP3   OH268967   3.825   5.511  16.152 -0.2351 -0.6736 -0.0146
15851TIP3    H168968   3.821   5.490  16.246 -1.3948 -1.0298 -0.1291
15851TIP3    H268969   3.905   5.562  16.143 -1.6893  2.2713  1.7958
15852TIP3   OH268970   2.798   0.723   6.364  0.6000 -0.0394  0.5757
15852TIP3    H168971   2.894   0.723   6.368  0.7233  2.2508 -0.9370
15852TIP3    H268972   2.775   0.812   6.338 -1.8949 -0.8923 -0.3829
15853TIP3   OH268973   0.526   2.505  15.670  0.6436  0.0574 -0.1951
15853TIP3    H168974   0.464   2.532  15.602 -0.4463  0.9785  1.1181
15853TIP3    H268975   0.607   2.552  15.650  0.7663 -0.6850 -1.5715
15854TIP3   OH268976   0.711   5.330  10.976  0.5044  0.2256  0.0646
15854TIP3    H168977   0.760   5.382  10.912 -0.6328  1.2403 -0.0213
15854TIP3    H268978   0.682   5.394  11.041 -0.3584 -0.4081  0.3227
15855TIP3   OH268979   6.184   3.702   2.005  0.0273 -0.1855 -0.2581
15855TIP3    H168980   6.194   3.748   1.921  0.7185 -0.1957 -0.1865
15855TIP3    H268981   6.092   3.674   2.006 -0.4188  1.2063 -0.2995
15856TIP3   OH268982   0.964   1.515  11.696 -0.0131  0.2945 -0.2568
15856TIP3    H168983   1.058   1.499  11.697 -0.1090 -0.4258 -1.2863
15856TIP3    H268984   0.953   1.596  11.647  0.2434  1.9871  2.3019
15857TIP3   OH268985   4.948   3.756  16.750 -0.6854 -0.6126  0.6067
15857TIP3    H168986   4.990   3.705  16.820  1.9590 -2.0208 -1.7722
15857TIP3    H268987   4.875   3.702  16.721 -0.2119 -1.2803  0.6247
15858TIP3   OH268988   1.280   3.317   0.059  0.3071  0.0662  0.1746
15858TIP3    H168989   1.262   3.286  -0.030 -1.8426  2.1972 -0.2158
15858TIP3    H268990   1.218   3.268   0.114  0.2605  0.1886  0.2303
15859TIP3   OH268991   6.573   1.876  11.588 -0.1180 -0.2596  0.0913
15859TIP3    H168992   6.553   1.783  11.572  1.1026 -1.5087  4.4282
15859TIP3    H268993   6.669   1.879  11.594  0.1381  2.0166 -2.7698
15860TIP3   OH268994   0.423   1.156  15.668  0.0242 -0.6160  0.0452
15860TIP3    H168995   0.375   1.148  15.585  0.3877 -1.7639 -0.0690
15860TIP3    H268996   0.463   1.070  15.681  0.3824 -0.2944  1.1676
15861TIP3   OH268997   5.094   0.723   3.356  0.0443 -0.5089 -0.2053
15861TIP3    H168998   5.016   0.707   3.303 -1.0536  1.7498  0.5742
15861TIP3    H268999   5.159   0.756   3.294 -0.1300 -0.9729 -0.6388
15862TIP3   OH269000   1.370   0.737  14.886 -0.5488  0.3637 -0.3600
15862TIP3    H169001   1.370   0.828  14.917  2.0908  0.6822 -1.0842
15862TIP3    H269002   1.385   0.743  14.792  0.1130 -0.8202 -0.3544
15863TIP3   OH269003   0.177   5.775  12.185 -0.6965 -0.0407 -0.2786
15863TIP3    H169004   0.232   5.849  12.158 -0.6247 -0.3268 -0.9283
15863TIP3    H269005   0.094   5.815  12.209 -0.4568  0.3173 -0.0334
15864TIP3   OH269006   3.725   3.813   2.366  0.5558  0.3575  0.2260
15864TIP3    H169007   3.752   3.894   2.324 -0.0573  0.5463  0.1801
15864TIP3    H269008   3.670   3.770   2.301  0.1094  0.3576  0.5987
15865TIP3   OH269009   5.805   3.655  16.811 -0.0570 -0.2988 -0.3327
15865TIP3    H169010   5.864   3.730  16.812 -0.8798  0.3788  0.7755
15865TIP3    H269011   5.724   3.689  16.773 -0.8882 -0.2014  1.3955
15866TIP3   OH269012   1.651   6.552  14.513  0.3149  0.3021  0.2930
15866TIP3    H169013   1.590   6.492  14.555 -0.2144 -0.0980 -0.9713
15866TIP3    H269014   1.737   6.513  14.526  0.2241  0.4430  1.3898
15867TIP3   OH269015   3.951   4.878  10.413  0.1070  0.2704  0.5136
15867TIP3    H169016   3.973   4.847  10.325 -2.1683  1.1582 -0.4474
15867TIP3    H269017   4.033   4.914  10.447  1.3880 -1.4100 -0.6313
15868TIP3   OH269018   3.881   6.627  12.764  0.4747 -0.5716 -0.2667
15868TIP3    H169019   3.825   6.677  12.705  1.4971 -0.8396 -1.5053
15868TIP3    H269020   3.969   6.638  12.730  0.9447 -1.7746  0.4717
15869TIP3   OH269021   2.415   5.502  12.041 -0.2767 -0.1835  0.0862
15869TIP3    H169022   2.343   5.565  12.031  0.5334  1.0085  1.4630
15869TIP3    H269023   2.378   5.419  12.012 -2.0462  0.5105  0.2404
15870TIP3   OH269024   1.349   0.098  15.931  0.3693 -0.1520 -0.5035
15870TIP3    H169025   1.441   0.120  15.947  0.0964  0.5153  0.2477
15870TIP3    H269026   1.342   0.090  15.836  1.1328  0.1142 -0.5902
15871TIP3   OH269027   6.556   6.446   4.185 -0.7062  0.1916  0.0032
15871TIP3    H169028   6.482   6.405   4.141  0.6187 -0.5606 -1.5976
15871TIP3    H269029   6.519   6.479   4.268 -3.3181  1.7793 -1.6482
15872TIP3   OH269030   4.744   6.767   0.980 -0.3623  0.0346 -0.2725
15872TIP3    H169031   4.795   6.816   0.916  1.9000 -3.1712 -1.1873
15872TIP3    H269032   4.671   6.730   0.930 -0.5415  0.3114 -0.2134
15873TIP3   OH269033   6.274   4.036  11.848  0.2445 -0.1053 -0.0652
15873TIP3    H169034   6.356   4.070  11.885  0.1445  0.8880 -0.7178
15873TIP3    H269035   6.271   4.073  11.760 -0.5814 -0.6889 -0.2858
15874TIP3   OH269036   2.533   4.909   0.885 -0.2684 -0.7524 -0.5302
15874TIP3    H169037   2.595   4.973   0.850  0.0239 -0.5119  0.4022
15874TIP3    H269038   2.448   4.936   0.849 -0.1989  0.3474  0.0918
15875TIP3   OH269039   2.852   0.574   1.558  0.0582  0.5166 -0.2494
15875TIP3    H169040   2.852   0.481   1.537  0.5571  0.4621 -0.0247
15875TIP3    H269041   2.803   0.580   1.640  2.3462  0.0677  1.2631
15876TIP3   OH269042   3.283   2.429   2.154 -0.4584 -0.7405 -0.0223
15876TIP3    H169043   3.359   2.376   2.130 -2.1874 -3.0620 -0.7336
15876TIP3    H269044   3.229   2.431   2.075 -1.8448 -0.3987  0.8998
15877TIP3   OH269045   6.631   6.686  14.692  0.0034 -0.0673  0.2319
15877TIP3    H169046   6.560   6.676  14.627 -1.9627  0.0917  2.2361
15877TIP3    H269047   6.638   6.599  14.732  1.0994 -0.1220 -0.0464
15878TIP3   OH269048   6.462   1.930   5.031  0.0255  0.9253 -0.2993
15878TIP3    H169049   6.439   1.855   5.086 -0.7158  1.2997 -0.0819
15878TIP3    H269050   6.378   1.968   5.006  0.3883  1.6880 -0.3947
15879TIP3   OH269051   2.205   4.273   4.366  0.4801  0.3913  0.7051
15879TIP3    H169052   2.276   4.220   4.331  0.2948 -0.8793  2.1447
15879TIP3    H269053   2.243   4.360   4.380  1.0187  0.4417 -0.9062
15880TIP3   OH269054   0.572   4.710   6.486 -0.1984 -0.3187  0.1235
15880TIP3    H169055   0.479   4.722   6.466 -1.1319 -1.7693  3.0133
15880TIP3    H269056   0.592   4.622   6.454  0.6030  0.4566 -1.6307
15881TIP3   OH269057   2.284   3.418  14.153  0.1457  0.2462  0.2088
15881TIP3    H169058   2.320   3.412  14.241 -0.9388  0.5784  0.6916
15881TIP3    H269059   2.199   3.461  14.165 -1.0985 -1.8404 -0.6867
15882TIP3   OH269060   0.169   1.352  16.893  0.0679 -0.2157  0.1810
15882TIP3    H169061   0.248   1.305  16.868 -0.6849 -1.1789 -0.4401
15882TIP3    H269062   0.201   1.428  16.942  1.3716 -0.5604 -0.0999
15883TIP3   OH269063   1.108   6.088  13.959  0.0978 -0.2975 -0.4583
15883TIP3    H169064   1.173   6.105  13.891 -0.1278 -0.7622 -0.7949
15883TIP3    H269065   1.102   6.171  14.008  1.8486 -0.6047  0.3676
15884TIP3   OH269066   2.188   4.215  15.595  0.4673 -0.3070  0.4207
15884TIP3    H169067   2.214   4.295  15.641  1.5114 -1.3840  1.8032
15884TIP3    H269068   2.258   4.199  15.532  1.2312 -1.0865  1.4259
15885TIP3   OH269069   4.188   4.655   2.668  0.4085 -0.3057  0.8034
15885TIP3    H169070   4.280   4.674   2.688  1.1983 -2.1043 -0.7663
15885TIP3    H269071   4.148   4.740   2.653  1.9680  0.4895  0.9385
15886TIP3   OH269072   2.084   2.173  11.391  0.1109  0.6680  0.0325
15886TIP3    H169073   2.135   2.253  11.381  0.6533  0.3771  0.3326
15886TIP3    H269074   2.114   2.116  11.320  1.9607 -0.3742  1.5280
15887TIP3   OH269075   3.054   1.034   0.388 -0.4789 -0.3096 -0.5187
15887TIP3    H169076   3.038   1.101   0.322  2.9753 -0.0003 -1.2315
15887TIP3    H269077   3.066   0.953   0.337 -2.2437 -1.0489  0.1581
15888TIP3   OH269078   5.950   5.738  13.181 -0.0227  0.2173  0.1775
15888TIP3    H169079   6.021   5.746  13.117 -1.5572  0.5351 -1.5897
15888TIP3    H269080   5.935   5.828  13.211 -0.8703  0.4561 -0.8817
15889TIP3   OH269081   6.502   0.949  11.219 -0.7503  0.1715 -0.3530
15889TIP3    H169082   6.552   0.873  11.247  0.0529  0.0150 -2.0549
15889TIP3    H269083   6.465   0.986  11.299 -0.0158 -1.2061  0.6454
15890TIP3   OH269084   4.790   1.686   1.134  0.1924 -0.1793 -0.8966
15890TIP3    H169085   4.776   1.780   1.122  1.2105  0.3693  1.7114
15890TIP3    H269086   4.825   1.678   1.222  0.0522 -3.0482 -1.0291
15891TIP3   OH269087   2.250   3.687   3.050 -0.4420  0.2543 -0.2907
15891TIP3    H169088   2.163   3.661   3.080  0.1425 -0.6458  0.7018
15891TIP3    H269089   2.246   3.782   3.043 -2.3442  0.0963 -3.0033
15892TIP3   OH269090   3.460   4.227   1.472  0.0196  0.4452 -0.2532
15892TIP3    H169091   3.404   4.294   1.432 -1.2574  0.3497  1.2753
15892TIP3    H269092   3.494   4.177   1.398 -0.5672  1.5627 -1.3158
15893TIP3   OH269093   3.685   1.228  16.021 -0.0585  0.6093 -0.0385
15893TIP3    H169094   3.676   1.176  16.101 -0.3412  0.7683  0.0343
15893TIP3    H269095   3.774   1.263  16.025 -0.4438  1.5372  0.7695
15894TIP3   OH269096   1.124   6.727   4.464  0.1888 -0.3087  0.4208
15894TIP3    H169097   1.195   6.666   4.483  0.1704 -0.4293  0.1047
15894TIP3    H269098   1.115   6.725   4.369  0.1036  0.0899  0.4162
15895TIP3   OH269099   2.684   3.460   4.352 -0.0596  0.1393 -0.2632
15895TIP3    H169100   2.638   3.378   4.374 -0.6828  0.3834 -0.6188
15895TIP3    H269101   2.614   3.518   4.321  0.6297  0.1506 -1.8828
15896TIP3   OH269102   0.816   5.311  14.051  0.3235  0.3876 -0.5691
15896TIP3    H169103   0.764   5.262  13.988  1.4000  1.5215 -2.4418
15896TIP3    H269104   0.905   5.307  14.018  1.0436  0.5437  1.2235
15897TIP3   OH269105   3.918   2.891  15.259  0.6030 -0.2047 -0.0443
15897TIP3    H169106   3.983   2.824  15.280  0.1709  0.4080  3.9887
15897TIP3    H269107   3.834   2.850  15.276  0.2541  0.7582  0.6899
15898TIP3   OH269108   5.658   5.706   5.093 -0.0719 -0.1266  0.9080
15898TIP3    H169109   5.650   5.622   5.138 -0.7304 -0.3877  0.3258
15898TIP3    H269110   5.608   5.767   5.148  1.3336  0.1440  1.9262
15899TIP3   OH269111   3.428   3.374   2.207 -0.4397 -0.1515  0.0032
15899TIP3    H169112   3.434   3.392   2.113  0.2418  1.2401  0.2837
15899TIP3    H269113   3.445   3.280   2.215  4.4454  0.4315 -0.8877
15900TIP3   OH269114   5.594   0.113   4.321  0.1762  0.5248  0.8966
15900TIP3    H169115   5.535   0.038   4.311 -1.0370  1.7067 -1.9402
15900TIP3    H269116   5.612   0.117   4.415 -1.2929 -2.0980  1.3895
15901TIP3   OH269117   3.017   6.273  14.196  0.2469  0.2622 -0.0329
15901TIP3    H169118   2.983   6.187  14.221  0.2320  1.0578  3.0667
15901TIP3    H269119   2.941   6.331  14.203  0.6858  0.8628 -0.1832
15902TIP3   OH269120   5.284   2.877  15.846 -0.1193 -0.3799  0.9150
15902TIP3    H169121   5.281   2.811  15.915 -0.0045 -0.5331  0.7702
15902TIP3    H269122   5.284   2.961  15.894  2.4247 -0.4801  1.2053
15903TIP3   OH269123   3.744   5.776  14.484  0.4887 -0.3234  0.0678
15903TIP3    H169124   3.799   5.775  14.562 -0.3146 -0.5597  0.6475
15903TIP3    H269125   3.738   5.868  14.459  0.3160 -0.1940  0.5918
15904TIP3   OH269126   4.945   1.986  12.549 -0.3243 -0.0601 -0.2430
15904TIP3    H169127   4.949   2.078  12.523 -0.1989  0.0389  0.1293
15904TIP3    H269128   4.994   1.940  12.481 -0.6796  0.1062 -0.6145
15905TIP3   OH269129   4.014   5.606  10.819  0.0843  0.4567  0.0566
15905TIP3    H169130   4.103   5.580  10.839 -0.0926  0.1915  0.5105
15905TIP3    H269131   3.996   5.680  10.877  0.1440  0.7757 -0.3225
15906TIP3   OH269132   2.496   1.477  13.278 -0.4403 -0.5174  0.3526
15906TIP3    H169133   2.485   1.491  13.372  2.0510 -2.3494  1.0222
15906TIP3    H269134   2.457   1.390  13.262  0.7249 -1.0151  0.0945
15907TIP3   OH269135   3.612   6.645  12.409  0.1892  0.0708 -0.3654
15907TIP3    H169136   3.634   6.683  12.495 -1.3415 -0.1327  0.1373
15907TIP3    H269137   3.622   6.717  12.348 -0.5085  0.7215  0.2650
15908TIP3   OH269138   0.755   3.195   0.856  0.1398 -0.1172 -0.3158
15908TIP3    H169139   0.735   3.180   0.948 -4.7694  0.7775 -0.9904
15908TIP3    H269140   0.735   3.112   0.814  0.2489  0.1118 -0.8230
15909TIP3   OH269141   5.942   3.231   5.448  0.5001 -0.0475 -0.5183
15909TIP3    H169142   5.870   3.289   5.471  0.1511 -0.0889 -1.4367
15909TIP3    H269143   5.930   3.215   5.354  0.7262 -1.4079 -0.3287
15910TIP3   OH269144   5.884   2.891  15.347  0.0020  0.2218  0.3201
15910TIP3    H169145   5.900   2.911  15.439 -0.4479 -1.5877  0.8371
15910TIP3    H269146   5.894   2.796  15.341  2.4773  0.5130 -2.0206
15911TIP3   OH269147   0.095   2.006  11.577 -0.1892 -0.5393 -0.0146
15911TIP3    H169148   0.149   2.036  11.504 -0.3061 -0.3327 -0.0196
15911TIP3    H269149   0.140   2.037  11.655 -0.8779  0.6406 -0.0532
15912TIP3   OH269150   6.766   0.288  11.122  0.2542 -0.7442  0.4031
15912TIP3    H169151   6.803   0.374  11.100  2.5940 -1.2413  2.0083
15912TIP3    H269152   6.831   0.225  11.091 -0.3289 -1.8121  1.2790
15913TIP3   OH269153   1.410   1.979   5.629 -0.4234 -0.0550  0.2559
15913TIP3    H169154   1.455   2.005   5.549 -1.6836  0.7666 -0.2257
15913TIP3    H269155   1.354   1.906   5.602 -1.5419  0.8237  0.1519
15914TIP3   OH269156   1.235   5.550   5.370  0.0183  0.0709 -0.0786
15914TIP3    H169157   1.263   5.511   5.287  0.4683 -1.5028  0.7738
15914TIP3    H269158   1.141   5.532   5.374  0.1522 -0.6440  0.1289
15915TIP3   OH269159   6.456   0.646   1.514  0.5289  0.0685  0.4576
15915TIP3    H169160   6.433   0.613   1.427 -0.1508  0.7703  0.3622
15915TIP3    H269161   6.506   0.726   1.497 -0.0458  0.4870  0.7146
15916TIP3   OH269162   4.236   4.374   1.668  0.0289  0.0748  0.1413
15916TIP3    H169163   4.250   4.444   1.604 -1.4871 -0.1403 -0.4689
15916TIP3    H269164   4.199   4.419   1.745 -1.2313 -0.0760 -0.3630
15917TIP3   OH269165   3.544   4.554  15.998  0.4656  0.2611 -0.9493
15917TIP3    H169166   3.622   4.595  16.036  0.0062  0.5824 -0.3455
15917TIP3    H269167   3.546   4.464  16.031 -0.0861  0.6160  0.0961
15918TIP3   OH269168   1.441   3.694   4.940  0.5915 -0.0812 -0.1721
15918TIP3    H169169   1.497   3.756   4.893  0.8390 -0.4542 -0.3705
15918TIP3    H269170   1.355   3.704   4.899  0.9509 -0.8662 -1.1486
15919TIP3   OH269171   3.033   6.343   5.749 -0.2474 -0.4105 -0.2391
15919TIP3    H169172   3.028   6.268   5.809  0.3352 -0.0267  0.3058
15919TIP3    H269173   3.000   6.309   5.666 -0.4301 -1.1453  0.1190
15920TIP3   OH269174   0.664   0.286   0.985 -0.1841  0.6282 -0.3042
15920TIP3    H169175   0.757   0.283   0.961  0.1774  1.2584  0.9534
15920TIP3    H269176   0.619   0.309   0.903  0.6149 -0.8782 -1.2237
15921TIP3   OH269177   4.302   6.359  15.081 -0.5535  0.0406  0.1850
15921TIP3    H169178   4.340   6.447  15.075  0.0397 -0.2743 -0.8494
15921TIP3    H269179   4.209   6.375  15.097 -0.6295  0.8967 -0.9201
15922TIP3   OH269180   6.574   2.525   6.393 -0.2973 -0.0296 -0.8090
15922TIP3    H169181   6.667   2.502   6.398  0.5693  3.2097  0.2112
15922TIP3    H269182   6.537   2.493   6.475  0.3225  0.1642 -0.4448
15923TIP3   OH269183   5.542   6.788   0.681 -0.8062 -0.5518  0.0277
15923TIP3    H169184   5.523   6.773   0.589  0.4561 -0.0460 -0.3346
15923TIP3    H269185   5.636   6.806   0.684 -0.8463 -0.4365  1.3958
15924TIP3   OH269186   0.085   4.412   5.660  0.6319 -0.1036 -0.2348
15924TIP3    H169187  -0.011   4.416   5.653  0.5098 -1.5142  0.3832
15924TIP3    H269188   0.101   4.365   5.742  1.8235 -1.2513 -1.0895
15925TIP3   OH269189   0.404   3.292   4.751  0.3579  0.0777 -0.3577
15925TIP3    H169190   0.452   3.283   4.834 -0.2294  1.2054  0.1238
15925TIP3    H269191   0.312   3.292   4.776  0.0216 -2.4034 -1.3097
15926TIP3   OH269192   3.299   3.836  13.198  0.5400 -0.3035  0.4817
15926TIP3    H169193   3.387   3.870  13.208 -0.4269  2.3841  0.6668
15926TIP3    H269194   3.247   3.911  13.170 -1.7946 -1.6877  0.8065
15927TIP3   OH269195   0.922   0.974  14.698 -0.0117  0.0587  0.3704
15927TIP3    H169196   0.833   0.951  14.723  0.1183 -0.0301  0.7670
15927TIP3    H269197   0.971   0.973  14.780  0.3061  0.3352  0.1893
15928TIP3   OH269198   4.543   5.228   2.711 -0.2850  0.1734  0.1532
15928TIP3    H169199   4.466   5.283   2.723 -0.4871 -0.2114  0.6270
15928TIP3    H269200   4.508   5.143   2.685  0.0811  0.7155 -2.3806
15929TIP3   OH269201   4.130   3.158  15.039  0.2123  0.2233 -0.5115
15929TIP3    H169202   4.154   3.110  15.118  0.7314  1.9386  0.4232
15929TIP3    H269203   4.059   3.107  15.000  0.8688 -1.3741  0.3164
15930TIP3   OH269204   5.156   3.873  15.559 -0.2848 -0.8202  0.4180
15930TIP3    H169205   5.082   3.815  15.546 -0.5204 -0.0706 -2.0427
15930TIP3    H269206   5.117   3.960  15.567  0.2926 -0.4443 -0.7083
15931TIP3   OH269207   0.796   3.571   3.386 -0.0176  0.5488  0.2757
15931TIP3    H169208   0.872   3.588   3.331 -0.6352 -0.5095 -0.9892
15931TIP3    H269209   0.786   3.649   3.440  0.1318  2.0431 -1.7392
15932TIP3   OH269210   6.208   4.098   3.381  0.3918 -0.2496  0.0218
15932TIP3    H169211   6.191   4.053   3.464  0.4418  1.3936  0.9464
15932TIP3    H269212   6.238   4.185   3.406 -1.6903  1.0716 -1.7062
15933TIP3   OH269213   0.752   5.399   2.565  1.1256 -0.5751  0.2937
15933TIP3    H169214   0.720   5.412   2.654  0.7523  2.4503 -0.1831
15933TIP3    H269215   0.672   5.391   2.512  1.3205 -0.9634  0.0530
15934TIP3   OH269216   5.033   3.667   5.255  0.2267  0.1223 -0.3061
15934TIP3    H169217   5.075   3.593   5.211 -0.5760 -1.2528  1.1315
15934TIP3    H269218   5.089   3.684   5.331  0.9331  1.6641 -1.1377
15935TIP3   OH269219   5.597   6.457   1.345 -0.5017  0.1602  0.2097
15935TIP3    H169220   5.600   6.504   1.262 -1.9456  0.2110  0.1538
15935TIP3    H269221   5.687   6.459   1.378  0.0676  0.2567 -1.2756
15936TIP3   OH269222   0.900   6.613   4.609  0.4893  0.3418 -0.2184
15936TIP3    H169223   0.838   6.605   4.536 -0.1760 -0.2353  0.3954
15936TIP3    H269224   0.979   6.648   4.569  0.0248  0.3517 -1.1616
15937TIP3   OH269225   4.146   2.413  15.796 -0.8179 -0.0682 -0.3732
15937TIP3    H169226   4.101   2.490  15.832 -0.9059 -0.8427  1.2961
15937TIP3    H269227   4.229   2.410  15.843  0.1280  0.2059 -1.9887
15938TIP3   OH269228   1.229   3.877  15.498  0.2309  0.0147 -0.0472
15938TIP3    H169229   1.190   3.819  15.432 -1.9880 -0.8493  1.8922
15938TIP3    H269230   1.317   3.842  15.511  0.1725 -0.7186 -1.4440
15939TIP3   OH269231   5.596   6.199  11.912 -0.5189  0.2680 -0.4034
15939TIP3    H169232   5.676   6.153  11.886  0.6200  1.0980  1.3776
15939TIP3    H269233   5.606   6.287  11.875 -0.1915  0.6117  0.4603
15940TIP3   OH269234   3.388   6.320  11.314  0.0401 -0.4634 -0.1974
15940TIP3    H169235   3.297   6.290  11.310  0.0833 -0.7763  0.8579
15940TIP3    H269236   3.399   6.375  11.236 -0.7829 -1.1439 -0.8076
15941TIP3   OH269237   6.078   0.555   1.059 -0.2534 -0.3283 -0.1758
15941TIP3    H169238   6.168   0.522   1.052  0.0699  0.5844 -0.4483
15941TIP3    H269239   6.055   0.542   1.151  0.9063  1.2894  0.3849
15942TIP3   OH269240   5.286   1.577   3.681  0.4544  0.0240 -0.5385
15942TIP3    H169241   5.313   1.553   3.592 -0.0893 -1.9393 -0.2133
15942TIP3    H269242   5.351   1.538   3.738  2.1060  3.1499 -0.0435
15943TIP3   OH269243   2.751   4.098  12.900 -0.3837  0.1637 -0.8474
15943TIP3    H169244   2.809   4.047  12.957 -0.2538  0.6963 -0.4998
15943TIP3    H269245   2.780   4.077  12.812  0.8888  1.0463 -0.6687
15944TIP3   OH269246   2.390   0.750  12.335 -0.0672  0.3871 -0.1751
15944TIP3    H169247   2.450   0.786  12.401  1.3893 -3.2222  0.6887
15944TIP3    H269248   2.346   0.678  12.380 -1.4011 -0.1844 -2.2918
15945TIP3   OH269249   4.433   0.707   4.955 -0.1229  0.2604  0.1909
15945TIP3    H169250   4.437   0.790   5.002  1.0707  0.7818 -0.7644
15945TIP3    H269251   4.434   0.732   4.863  2.5899 -0.8187 -0.1617
15946TIP3   OH269252   4.868   0.315   3.558  0.1100  0.0603  0.0772
15946TIP3    H169253   4.859   0.411   3.554  0.1231  0.0431 -0.3704
15946TIP3    H269254   4.934   0.295   3.492 -0.1983 -0.3012 -0.1221
15947TIP3   OH269255   1.448   0.857  17.016 -0.9062  0.1352 -0.2714
15947TIP3    H169256   1.381   0.909  16.972 -0.9964  0.1321 -0.1389
15947TIP3    H269257   1.420   0.855  17.108 -0.1853  0.9879 -0.0218
15948TIP3   OH269258   2.674   3.539  17.089 -0.5337  0.3540  0.0443
15948TIP3    H169259   2.623   3.466  17.054 -0.6530 -0.1662  1.2177
15948TIP3    H269260   2.676   3.522  17.184  0.5720  1.1623  0.1773
15949TIP3   OH269261   0.465   0.740   0.381 -0.6107 -0.3398 -0.1412
15949TIP3    H169262   0.554   0.763   0.355 -1.2396  2.3584 -0.1576
15949TIP3    H269263   0.473   0.710   0.471  0.3249 -0.2886 -0.1972
15950TIP3   OH269264   2.690   0.821  15.117  0.2420  0.0956 -0.7552
15950TIP3    H169265   2.623   0.872  15.165 -0.0625 -0.3012 -0.7544
15950TIP3    H269266   2.639   0.762  15.062  0.5437 -1.7913  0.8684
15951TIP3   OH269267   3.131   6.545   0.443  0.2505 -0.3929  0.2360
15951TIP3    H169268   3.226   6.546   0.432  0.3314  0.5713  0.8385
15951TIP3    H269269   3.099   6.488   0.374  1.0249  1.7210 -2.0021
15952TIP3   OH269270   0.750   4.816  10.763  0.1033 -0.5925 -0.6873
15952TIP3    H169271   0.690   4.805  10.837  0.5456  0.9246 -0.0637
15952TIP3    H269272   0.755   4.729  10.723  2.5874 -2.4560  3.1346
15953TIP3   OH269273   2.178   4.222   3.774 -0.0345 -0.2402  0.0957
15953TIP3    H169274   2.143   4.299   3.729  0.6277  1.3192  2.1239
15953TIP3    H269275   2.273   4.234   3.772  0.2182 -2.0039 -1.1485
15954TIP3   OH269276   0.934   5.131   6.114 -0.1559  0.3876 -0.3171
15954TIP3    H169277   0.845   5.145   6.145 -0.4045 -0.8376 -0.4331
15954TIP3    H269278   0.965   5.218   6.088 -1.5851  0.7168 -0.9946
15955TIP3   OH269279   2.694   1.810   4.230  0.2435  0.0022 -0.6680
15955TIP3    H169280   2.622   1.762   4.189 -0.3578 -1.0357  1.4420
15955TIP3    H269281   2.675   1.805   4.324  1.8940  1.6491 -0.1934
15956TIP3   OH269282   5.682   5.878   3.879  0.4440 -0.0297  0.3037
15956TIP3    H169283   5.642   5.934   3.812  0.5961 -0.6751 -0.3402
15956TIP3    H269284   5.712   5.939   3.946  0.0342  0.6086 -0.0825
15957TIP3   OH269285   3.510   5.199   5.029  0.0668  0.1951 -0.2216
15957TIP3    H169286   3.496   5.124   4.972 -1.1402  0.7614 -0.6905
15957TIP3    H269287   3.599   5.186   5.064 -0.0224 -1.2979 -0.4883
15958TIP3   OH269288   2.300   3.316  10.777 -0.3184 -0.1404 -0.1501
15958TIP3    H169289   2.305   3.410  10.760  0.4731  0.6415  3.4864
15958TIP3    H269290   2.391   3.287  10.775 -0.3570 -0.3524  0.6813
15959TIP3   OH269291   1.199   3.084  13.286  0.3888  0.2435 -0.8681
15959TIP3    H169292   1.240   3.092  13.199 -0.6010 -2.1366 -1.6196
15959TIP3    H269293   1.106   3.100  13.270  0.4379  1.9412  0.2002
15960TIP3   OH269294   0.032   0.054   5.348 -0.1583  0.4981 -0.1721
15960TIP3    H169295   0.074  -0.029   5.326  0.0861  0.8254 -0.9936
15960TIP3    H269296  -0.061   0.034   5.353  0.0871 -0.4010  2.4006
15961TIP3   OH269297   4.421   2.647  16.642 -0.3342  0.3093 -0.6524
15961TIP3    H169298   4.430   2.739  16.667 -0.8835  0.3408 -0.5616
15961TIP3    H269299   4.391   2.651  16.551  0.5896  0.2061 -0.9703
15962TIP3   OH269300   2.282   0.831  13.100 -0.0787  0.1616  0.4489
15962TIP3    H169301   2.298   0.852  13.009  3.4966 -1.1441  0.6364
15962TIP3    H269302   2.226   0.902  13.132  0.9802  2.2406 -2.0241
15963TIP3   OH269303   5.542   0.090   0.934 -0.3288  0.0422 -0.3164
15963TIP3    H169304   5.453   0.114   0.958 -0.4556  0.7382 -1.4417
15963TIP3    H269305   5.536   0.055   0.845  0.4647 -0.3089 -0.2495
15964TIP3   OH269306   4.547   1.357   1.670 -0.3216  0.2839 -0.5924
15964TIP3    H169307   4.513   1.338   1.758  0.9552  1.7629  0.2597
15964TIP3    H269308   4.469   1.381   1.620 -1.2131 -1.5876 -0.1895
15965TIP3   OH269309   3.216   4.667  11.368  0.2844 -0.2560 -0.1669
15965TIP3    H169310   3.154   4.686  11.438  0.6360 -0.1416  0.1174
15965TIP3    H269311   3.205   4.574  11.351  0.3050 -0.3170  0.1493
15966TIP3   OH269312   6.273   3.218  11.707  0.0676 -0.0252 -0.9428
15966TIP3    H169313   6.232   3.274  11.641 -0.2485  0.2464 -0.5177
15966TIP3    H269314   6.339   3.273  11.748  1.1505 -0.5794 -1.8956
15967TIP3   OH269315   4.757   3.999   0.915 -0.2254 -0.1384 -0.3467
15967TIP3    H169316   4.796   4.067   0.860  1.7230  0.1797  1.3085
15967TIP3    H269317   4.701   4.046   0.976  1.0162  0.0108  0.7102
15968TIP3   OH269318   0.813   2.582   3.613  0.0783 -0.2716 -0.1968
15968TIP3    H169319   0.856   2.658   3.574 -0.5125 -0.7101 -1.7743
15968TIP3    H269320   0.725   2.612   3.635  0.4089 -0.0257  0.8597
15969TIP3   OH269321   0.586   5.406  16.476 -0.3702 -0.0764  0.3579
15969TIP3    H169322   0.552   5.351  16.406  0.0822  1.4216 -1.0867
15969TIP3    H269323   0.662   5.357  16.510  1.1507  0.3758 -2.1165
15970TIP3   OH269324   2.136   1.796   0.407 -0.7119 -0.1453  0.3594
15970TIP3    H169325   2.224   1.810   0.443 -0.7034  1.9279 -0.2870
15970TIP3    H269326   2.080   1.854   0.459 -1.6287 -1.0726  0.4368
15971TIP3   OH269327   5.325   3.856   2.022  0.1527 -0.1887  0.5295
15971TIP3    H169328   5.377   3.778   2.005  1.1774  0.5091  0.3285
15971TIP3    H269329   5.265   3.862   1.948  0.9988 -0.0523 -0.1594
15972TIP3   OH269330   2.441   0.865  13.595  0.4321  0.1606  0.0140
15972TIP3    H169331   2.362   0.815  13.616  0.8312 -0.6300 -0.3190
15972TIP3    H269332   2.428   0.950  13.637 -1.4048  0.6990 -1.5287
15973TIP3   OH269333   2.179   3.015   0.257  0.2446  0.1962  1.0103
15973TIP3    H169334   2.114   3.024   0.188  0.2172  1.0944  1.1403
15973TIP3    H269335   2.144   2.948   0.316  0.3041 -0.6369  0.1316
15974TIP3   OH269336   2.698   4.691  14.051  0.4306  0.0485  1.0195
15974TIP3    H169337   2.679   4.765  14.109  1.4921  1.0561  0.1104
15974TIP3    H269338   2.612   4.660  14.023 -0.0466  0.4540  1.9865
15975TIP3   OH269339   5.603   3.487  12.897  0.0051  0.3874 -0.5863
15975TIP3    H169340   5.543   3.463  12.967  1.2703 -1.3628 -0.0461
15975TIP3    H269341   5.657   3.556  12.934  0.5842 -0.4439  0.1382
15976TIP3   OH269342   4.891   3.425  13.222 -0.4684  0.6134 -0.0703
15976TIP3    H169343   4.865   3.416  13.314 -0.3867 -0.6824 -0.1584
15976TIP3    H269344   4.867   3.341  13.182  5.3632 -1.5985  0.1825
15977TIP3   OH269345   1.576   5.420  15.589 -0.2629  0.4758  0.0485
15977TIP3    H169346   1.641   5.425  15.659 -1.4435  1.0616  1.1366
15977TIP3    H269347   1.626   5.438  15.509  1.0523  0.1058  0.7557
15978TIP3   OH269348   2.128   0.787   2.941 -0.1631 -0.4684 -0.6639
15978TIP3    H169349   2.085   0.725   3.000  0.3932 -0.7142 -0.5099
15978TIP3    H269350   2.068   0.861   2.937 -1.4579 -1.4986 -1.8308
15979TIP3   OH269351   3.837   1.491   3.879 -0.3300  0.1365 -0.5248
15979TIP3    H169352   3.780   1.421   3.909 -0.3843  0.1443 -0.6102
15979TIP3    H269353   3.918   1.447   3.852 -1.0516 -0.1290 -2.4425
15980TIP3   OH269354   5.829   3.179  11.417  0.1259 -0.3577  0.1112
15980TIP3    H169355   5.865   3.111  11.475 -0.4232  0.2547  1.2164
15980TIP3    H269356   5.752   3.211  11.464 -0.3615  0.1437 -0.9974
15981TIP3   OH269357   4.613   2.118   5.541  0.0759 -0.3255 -0.1745
15981TIP3    H169358   4.607   2.113   5.636  0.3900 -1.4829 -0.2018
15981TIP3    H269359   4.550   2.053   5.510 -1.4003  1.3261 -0.8088
15982TIP3   OH269360   0.681   4.611   4.436  0.1217  0.1181 -0.2308
15982TIP3    H169361   0.608   4.672   4.444  0.6361  0.5347  2.3301
15982TIP3    H269362   0.751   4.663   4.396 -0.6002  0.0412 -1.6379
15983TIP3   OH269363   2.614   5.261   5.831 -0.4724 -0.0233 -0.2594
15983TIP3    H169364   2.547   5.215   5.781 -0.2629 -0.8977  0.2476
15983TIP3    H269365   2.567   5.333   5.874 -1.0054 -0.3900 -0.2232
15984TIP3   OH269366   4.452   1.777   1.115  0.1912 -0.1690 -0.3561
15984TIP3    H169367   4.418   1.714   1.051 -0.7901  0.3593 -0.3791
15984TIP3    H269368   4.528   1.817   1.072 -1.5297  1.5181 -2.0171
15985TIP3   OH269369   1.983   6.790  12.765 -0.4610 -0.8369  0.0544
15985TIP3    H169370   1.941   6.800  12.680 -0.3874 -2.1349 -0.1447
15985TIP3    H269371   1.936   6.718  12.807 -0.6977 -0.0292  1.2528
15986TIP3   OH269372   0.356   0.393  16.307 -0.4291  0.2135  0.2764
15986TIP3    H169373   0.381   0.326  16.243  1.4946  1.0385  0.0892
15986TIP3    H269374   0.297   0.347  16.367 -0.9557 -1.0187 -1.1169
15987TIP3   OH269375   0.625   4.177  12.505 -0.2936  0.4110  0.3517
15987TIP3    H169376   0.619   4.102  12.563 -0.9200  0.1701 -0.0115
15987TIP3    H269377   0.660   4.247  12.560  0.7378 -0.2597  0.5664
15988TIP3   OH269378   4.258   6.096  16.127  0.0304  0.1067 -0.2161
15988TIP3    H169379   4.249   6.050  16.044  4.8694 -1.1730 -0.3217
15988TIP3    H269380   4.292   6.182  16.104 -0.6857  0.5681  0.3911
15989TIP3   OH269381   5.112   3.978  14.053 -0.5090  0.3929  0.2100
15989TIP3    H169382   5.050   4.024  13.996 -2.1715 -0.1401  1.5130
15989TIP3    H269383   5.197   4.017  14.033 -1.3797  1.7382 -1.0400
15990TIP3   OH269384   0.627   3.055   1.259 -0.4572 -0.6376  0.3118
15990TIP3    H169385   0.585   2.997   1.195 -0.1031 -0.4229 -0.1166
15990TIP3    H269386   0.584   3.140   1.247 -0.0787 -0.4825  0.0499
15991TIP3   OH269387   0.976   3.218   3.091  0.1523  0.2897 -0.1891
15991TIP3    H169388   0.887   3.183   3.090  0.1974  0.1733 -1.4636
15991TIP3    H269389   0.965   3.313   3.090  0.0412  0.2806  0.1494
15992TIP3   OH269390   1.201   3.139   5.802 -0.6446  0.2277 -0.1098
15992TIP3    H169391   1.238   3.121   5.888 -0.4855 -1.9426 -0.5754
15992TIP3    H269392   1.243   3.076   5.743 -1.5232  0.9464 -1.5790
15993TIP3   OH269393   3.219   5.290   1.098 -0.6160  0.0634  1.2157
15993TIP3    H169394   3.307   5.299   1.134  1.0074 -0.7442 -2.1415
15993TIP3    H269395   3.192   5.201   1.120  0.9019 -0.8834 -0.5233
15994TIP3   OH269396   5.645   5.061   4.485  0.9037 -0.0579 -0.1123
15994TIP3    H169397   5.719   5.002   4.476  0.9901 -0.0111  0.2590
15994TIP3    H269398   5.568   5.005   4.470  1.0499  0.1712 -1.8155
15995TIP3   OH269399   1.274   5.092   0.728 -0.2618  0.1116  0.4643
15995TIP3    H169400   1.243   5.160   0.787  0.6805 -0.2507  1.4174
15995TIP3    H269401   1.357   5.127   0.694 -0.9106  0.4242 -0.8687
15996TIP3   OH269402   4.636   3.733  15.493  0.0761 -0.0091  0.4376
15996TIP3    H169403   4.652   3.725  15.399  0.3633  0.3741  0.4530
15996TIP3    H269404   4.692   3.805  15.522  1.4273 -1.3117  1.2459
15997TIP3   OH269405   4.963   1.467   4.826 -0.2567  0.1717 -0.2166
15997TIP3    H169406   5.009   1.542   4.787 -0.3694 -1.4334 -3.8267
15997TIP3    H269407   5.031   1.401   4.839 -0.7218 -0.4387 -0.7989
15998TIP3   OH269408   5.410   2.222  12.404  0.1417  0.1407  0.6010
15998TIP3    H169409   5.433   2.246  12.493  0.5131  1.8052  0.0889
15998TIP3    H269410   5.353   2.145  12.414 -1.2612  1.3130  2.3888
15999TIP3   OH269411   2.282   6.257   5.578  0.1501 -0.4319 -0.8542
15999TIP3    H169412   2.247   6.289   5.661  0.6624 -1.6909 -0.1195
15999TIP3    H269413   2.226   6.183   5.555  1.2620 -1.4127 -0.5203
16000TIP3   OH269414   1.157   3.109  15.507  0.0541 -0.1293  0.0447
16000TIP3    H169415   1.161   3.177  15.440  0.8590  0.3967  0.6042
16000TIP3    H269416   1.182   3.154  15.588  1.4307 -1.2607  0.2979
16001TIP3   OH269417   5.530   1.428  16.762 -0.5831 -0.6090  0.0357
16001TIP3    H169418   5.546   1.418  16.856  0.4954 -2.2085 -0.2770
16001TIP3    H269419   5.511   1.521  16.750 -3.2701 -0.7677  2.1802
16002TIP3   OH269420   2.391   2.168  11.573 -0.3048  0.4023 -0.0428
16002TIP3    H169421   2.367   2.161  11.665  0.2294 -1.3476  0.0077
16002TIP3    H269422   2.345   2.245  11.542 -1.5446  0.2857  1.3788
16003TIP3   OH269423   3.193   6.575  14.723 -0.3875 -0.2483  0.3755
16003TIP3    H169424   3.221   6.504  14.666  2.6084  1.3696 -0.3842
16003TIP3    H269425   3.261   6.580  14.791 -1.4259  0.8367  1.3847
16004TIP3   OH269426   1.114   6.788   2.709  0.1114  0.1226 -0.1687
16004TIP3    H169427   1.073   6.752   2.787  1.4703 -1.1736 -0.0054
16004TIP3    H269428   1.207   6.794   2.731  0.6100 -0.7281 -1.8105
16005TIP3   OH269429   2.149   6.555   3.510 -0.1010 -0.9254  0.1477
16005TIP3    H169430   2.076   6.501   3.539 -0.5149 -0.4855 -0.0674
16005TIP3    H269431   2.207   6.561   3.586 -2.2935  2.1897  1.7749
16006TIP3   OH269432   0.044   4.612   6.153 -0.2550 -0.1426  0.0314
16006TIP3    H169433   0.122   4.559   6.140  0.2473  0.5389  0.1768
16006TIP3    H269434   0.027   4.607   6.248 -0.9309 -1.0183 -0.1218
16007TIP3   OH269435   0.541   6.686   3.791  0.3933  0.2064 -0.3333
16007TIP3    H169436   0.520   6.595   3.814  1.8436  0.0207  0.3523
16007TIP3    H269437   0.463   6.717   3.745 -0.4529 -1.1266  0.1312
16008TIP3   OH269438   5.254   6.242   4.006  0.7278  0.0262 -0.4819
16008TIP3    H169439   5.292   6.165   4.048  1.3207  0.2677 -0.5729
16008TIP3    H269440   5.328   6.287   3.965  0.3527  0.5170 -0.6353
16009TIP3   OH269441   2.960   5.115  16.942 -0.0493  0.3346 -0.1887
16009TIP3    H169442   2.909   5.086  16.866  0.7986 -1.4649 -0.1275
16009TIP3    H269443   2.938   5.053  17.011  1.7673 -0.1508  0.0055
16010TIP3   OH269444   5.873   0.910  16.782  0.4593 -0.5299  0.3570
16010TIP3    H169445   5.877   0.987  16.838 -1.6743 -0.7721  0.9404
16010TIP3    H269446   5.903   0.838  16.838 -0.7464 -0.6205  0.9059
16011TIP3   OH269447   0.156   0.687   3.116 -0.2075 -0.4123  0.1857
16011TIP3    H169448   0.091   0.710   3.183  1.3600 -0.3391  1.7380
16011TIP3    H269449   0.165   0.766   3.064  0.0586  0.2377  1.1883
16012TIP3   OH269450   0.576   1.318  13.319 -0.3886  0.2134 -0.1465
16012TIP3    H169451   0.534   1.232  13.322 -0.2447  0.1517  2.2673
16012TIP3    H269452   0.634   1.320  13.395 -0.9731  2.7086  0.3462
16013TIP3   OH269453   1.210   4.012   1.576  0.3307 -0.2783  0.6857
16013TIP3    H169454   1.245   3.933   1.536 -0.5367  0.0265 -0.7283
16013TIP3    H269455   1.287   4.056   1.614  1.1950 -0.5735 -0.6701
16014TIP3   OH269456   4.353   3.926   1.142 -0.2967 -0.4288  0.0463
16014TIP3    H169457   4.409   3.997   1.172 -1.1167 -0.0062  0.6062
16014TIP3    H269458   4.394   3.846   1.175  0.7058 -0.2385 -0.7095
16015TIP3   OH269459   4.327   4.902   4.904  0.0861  0.0082 -0.3444
16015TIP3    H169460   4.282   4.948   4.975  0.4355 -0.1723 -0.0015
16015TIP3    H269461   4.286   4.935   4.824  0.5326  1.1505 -0.1173
16016TIP3   OH269462   2.442   1.526   2.220 -0.0746 -0.6512 -0.1798
16016TIP3    H169463   2.421   1.593   2.284  1.5748 -0.1534 -0.0886
16016TIP3    H269464   2.533   1.503   2.239  0.5149 -0.3851 -2.3887
16017TIP3   OH269465   6.078   3.726  16.287  0.0292  0.2498  0.2799
16017TIP3    H169466   6.155   3.750  16.235 -0.4872  2.3277  0.3789
16017TIP3    H269467   6.100   3.753  16.376 -0.5544  0.2544  0.4276
16018TIP3   OH269468   5.379   1.247   5.835  0.3052  0.3589 -0.0315
16018TIP3    H169469   5.377   1.214   5.745  1.6261  0.4047 -0.0909
16018TIP3    H269470   5.291   1.282   5.849 -0.3713 -0.9443 -0.8065
16019TIP3   OH269471   6.488   1.619   4.214  0.1034  0.6627  0.1296
16019TIP3    H169472   6.501   1.552   4.146 -1.1027 -1.7196  2.0832
16019TIP3    H269473   6.504   1.702   4.169  2.6656 -0.9223 -2.2207
16020TIP3   OH269474   4.981   5.039   4.401  0.4977 -0.3206  0.4655
16020TIP3    H169475   4.998   5.064   4.492 -0.9582 -1.4609  1.0844
16020TIP3    H269476   5.050   4.977   4.380 -0.7832 -2.3626  1.8458
16021TIP3   OH269477   5.665   6.460  15.918  0.4086 -0.5498  0.1311
16021TIP3    H169478   5.596   6.446  15.983  1.1005 -0.4800  0.9130
16021TIP3    H269479   5.733   6.397  15.943 -0.0391 -1.8237 -1.6466
16022TIP3   OH269480   1.312   2.220   0.564  0.2146  0.0422 -0.5074
16022TIP3    H169481   1.232   2.252   0.521 -1.0329 -1.7752  0.2986
16022TIP3    H269482   1.334   2.288   0.628 -1.1901  0.2108 -0.1731
16023TIP3   OH269483   3.809   2.036  11.933  0.6700  0.1738 -0.3227
16023TIP3    H169484   3.728   2.061  11.889  0.7349  0.5720 -0.2188
16023TIP3    H269485   3.878   2.052  11.869  0.8111  1.1721  0.0608
16024TIP3   OH269486   4.126   2.218  11.468  0.2907  0.1842  0.0893
16024TIP3    H169487   4.052   2.198  11.411 -1.2185  2.3189  1.1416
16024TIP3    H269488   4.190   2.150  11.450 -1.6543 -1.3671 -1.3654
16025TIP3   OH269489   1.868   0.679  15.764 -0.5211 -0.0629  0.4178
16025TIP3    H169490   1.783   0.720  15.781 -0.5228 -0.2440  0.8397
16025TIP3    H269491   1.865   0.657  15.671  0.0270  2.2002 -0.1997
16026TIP3   OH269492   6.054   3.836  16.842  0.1341 -0.2921 -0.1738
16026TIP3    H169493   6.069   3.744  16.823 -1.0520 -0.3750 -0.8162
16026TIP3    H269494   6.139   3.870  16.869  0.8179 -1.3261 -0.9780
16027TIP3   OH269495   5.364   6.314  14.438 -0.2836 -0.0982  0.3463
16027TIP3    H169496   5.283   6.325  14.488  0.6184 -0.4274  1.9598
16027TIP3    H269497   5.338   6.327  14.347 -1.9025  1.1348  0.9237
16028TIP3   OH269498   5.820   2.815  12.096  0.4365  0.0068 -0.4398
16028TIP3    H169499   5.815   2.890  12.037 -0.2432 -1.5374 -2.4570
16028TIP3    H269500   5.737   2.815  12.143  0.9634  1.2250  0.5322
16029TIP3   OH269501   2.603   4.321  10.759 -0.3107  0.1583 -0.1241
16029TIP3    H169502   2.678   4.297  10.813  0.3596  1.0149 -0.6550
16029TIP3    H269503   2.537   4.352  10.821 -0.2556 -0.6596  0.3479
16030TIP3   OH269504   5.472   3.329  14.020  0.2386  0.2130  0.0535
16030TIP3    H169505   5.392   3.378  14.034  0.3679  0.3568  0.2870
16030TIP3    H269506   5.474   3.263  14.090  1.0890  1.2002  0.9963
16031TIP3   OH269507   4.233   4.257   4.669 -1.0286  0.3810  0.7764
16031TIP3    H169508   4.157   4.291   4.623 -0.5732  0.7644  0.2961
16031TIP3    H269509   4.307   4.308   4.635 -0.2275 -1.4448 -0.4017
16032TIP3   OH269510   4.006   3.218   3.987  0.1742  0.3026  0.2319
16032TIP3    H169511   3.956   3.296   3.962 -2.3587 -1.6291 -1.2665
16032TIP3    H269512   3.971   3.194   4.072  1.8627  1.4103  1.3022
16033TIP3   OH269513   1.904   4.762  14.118 -0.1857  0.4047  0.3165
16033TIP3    H169514   1.933   4.717  14.039  0.3648 -1.6663  1.6382
16033TIP3    H269515   1.843   4.701  14.160 -0.2419  1.3287  1.6486
16034TIP3   OH269516   5.837   1.767  11.963  0.9972 -0.2574  0.4884
16034TIP3    H169517   5.786   1.690  11.990  2.3771 -1.4241 -0.1087
16034TIP3    H269518   5.799   1.792  11.879 -0.2792  0.5233  1.2716
16035TIP3   OH269519   1.249   1.811  16.808  0.3241 -0.2450 -0.1568
16035TIP3    H169520   1.232   1.721  16.836 -2.1363 -1.0413 -3.5293
16035TIP3    H269521   1.328   1.806  16.755 -0.1322 -0.5999 -0.8226
16036TIP3   OH269522   1.676   3.422   4.017  0.1681  0.7904  0.3541
16036TIP3    H169523   1.705   3.335   3.990 -0.1115  0.6568  0.4772
16036TIP3    H269524   1.750   3.459   4.064  0.8882  1.2518 -1.0695
16037TIP3   OH269525   1.516   5.911   2.254  0.3671 -0.2280  0.4206
16037TIP3    H169526   1.445   5.888   2.314 -0.2549  1.5726  0.4536
16037TIP3    H269527   1.531   5.832   2.202 -1.7495 -0.6257  0.3221
16038TIP3   OH269528   0.937   4.520   4.714  0.2535 -0.8519 -0.3520
16038TIP3    H169529   0.850   4.486   4.693 -0.2530  0.5488 -0.6422
16038TIP3    H269530   0.994   4.482   4.646 -0.0593 -1.9822 -0.0105
16039TIP3   OH269531   5.859   6.550  12.999  0.0877 -0.0838  0.3102
16039TIP3    H169532   5.876   6.465  13.039 -0.6334 -0.1478  0.4850
16039TIP3    H269533   5.880   6.613  13.068  2.1815 -0.0181 -0.3146
16040TIP3   OH269534   5.566   6.488   4.526 -0.1582 -0.1533 -0.1414
16040TIP3    H169535   5.658   6.497   4.552 -0.4929  1.5106  0.6337
16040TIP3    H269536   5.539   6.404   4.563  0.3210  0.6071  2.1483
16041TIP3   OH269537   5.587   1.167  16.278  0.1486 -0.1488  0.6311
16041TIP3    H169538   5.516   1.230  16.267 -0.1016 -0.1088  2.1810
16041TIP3    H269539   5.555   1.106  16.344  0.5779 -1.6443 -0.4808
16042TIP3   OH269540   3.972   0.509   5.214  0.3564 -0.3496 -0.2052
16042TIP3    H169541   3.981   0.546   5.126  0.0970 -0.4958 -0.2958
16042TIP3    H269542   4.004   0.419   5.205  0.5023 -0.3061 -0.1086
16043TIP3   OH269543   2.580   6.666   1.314 -0.0571 -0.0512 -0.4641
16043TIP3    H169544   2.525   6.701   1.244  2.4628  2.5142 -1.3300
16043TIP3    H269545   2.658   6.634   1.270  0.5594 -0.6245  0.9912
16044TIP3   OH269546   0.552   5.640   3.723  0.9090 -0.8513  0.4320
16044TIP3    H169547   0.526   5.586   3.648  0.4406  0.6642 -0.5365
16044TIP3    H269548   0.471   5.657   3.770  0.4574  1.6103 -1.0698
16045TIP3   OH269549   4.204   0.884  12.326 -0.4599 -0.7234 -0.4696
16045TIP3    H169550   4.114   0.916  12.330 -0.6316 -1.2426 -0.1695
16045TIP3    H269551   4.253   0.942  12.385 -0.5270 -0.2185 -0.9067
16046TIP3   OH269552   3.170   6.442   2.134 -0.5658 -0.7169  0.5117
16046TIP3    H169553   3.146   6.534   2.134 -2.9735 -1.2677 -0.4073
16046TIP3    H269554   3.253   6.438   2.181 -0.6545  1.8347  0.9898
16047TIP3   OH269555   3.844   1.445   5.736 -0.3364 -0.6349  0.1568
16047TIP3    H169556   3.879   1.454   5.825  0.2332  0.1197 -0.1321
16047TIP3    H269557   3.787   1.368   5.741  1.6547 -2.1790  0.5650
16048TIP3   OH269558   0.725   5.321   3.697  0.2310  0.2410  0.3906
16048TIP3    H169559   0.635   5.313   3.728  0.4856  0.3825  1.1745
16048TIP3    H269560   0.718   5.371   3.616 -0.1925  2.2778  1.6036
16049TIP3   OH269561   3.866   5.847   0.096 -0.7112 -0.2088 -0.3400
16049TIP3    H169562   3.940   5.904   0.116 -0.4496 -0.0083 -1.7346
16049TIP3    H269563   3.792   5.907   0.085 -0.5436 -0.1467 -1.2996
16050TIP3   OH269564   5.123   3.945  12.294 -0.4852  0.0344 -0.3456
16050TIP3    H169565   5.203   3.991  12.319  1.6207 -3.4001 -0.1900
16050TIP3    H269566   5.152   3.877  12.233 -3.3463 -1.1955 -0.5007
16051TIP3   OH269567   2.081   0.958  14.370  0.5516 -0.2855  0.3946
16051TIP3    H169568   2.072   0.896  14.442  0.8965 -0.5423  0.2195
16051TIP3    H269569   1.992   0.966  14.334 -0.0400  1.3601  2.0679
16052TIP3   OH269570   0.125   6.075   3.342  0.1036  0.1333 -0.0703
16052TIP3    H169571   0.048   6.091   3.288 -0.7196  0.0542  1.0319
16052TIP3    H269572   0.165   5.996   3.304 -0.4362  0.0981 -0.5752
16053TIP3   OH269573   4.686   5.629  12.314  0.2721  0.3179 -0.0687
16053TIP3    H169574   4.767   5.652  12.359  0.5378 -0.7066  0.0073
16053TIP3    H269575   4.685   5.533  12.314 -1.5883  0.2809  1.1078
16054TIP3   OH269576   4.196   4.742   0.854  0.0456 -0.1306  0.1319
16054TIP3    H169577   4.113   4.790   0.855  0.7184  1.1017 -0.7623
16054TIP3    H269578   4.170   4.650   0.861 -1.4231  0.1886 -0.6425
16055TIP3   OH269579   3.335   6.243  16.335  0.2091 -0.0975 -0.3725
16055TIP3    H169580   3.243   6.225  16.315  0.4972 -1.4100 -0.6138
16055TIP3    H269581   3.384   6.193  16.270  1.0975  0.4134 -0.1103
16056TIP3   OH269582   1.988   0.696   0.477  0.2415  0.1126  0.1063
16056TIP3    H169583   1.953   0.654   0.399  0.0061  1.3289 -0.4733
16056TIP3    H269584   2.024   0.625   0.529  0.9105 -0.6687 -1.3743
16057TIP3   OH269585   4.282   0.631  11.458  0.2307  0.1993  0.2245
16057TIP3    H169586   4.220   0.562  11.484 -0.7291  1.0676  0.3022
16057TIP3    H269587   4.306   0.673  11.540 -0.5834  1.1036  0.0107
16058TIP3   OH269588   0.973   0.774  11.777 -0.1542 -0.0493 -0.3175
16058TIP3    H169589   0.883   0.808  11.772 -0.8060 -1.7632 -0.8802
16058TIP3    H269590   0.994   0.776  11.870  0.4836  3.3461 -0.3898
16059TIP3   OH269591   0.173   2.853   5.015 -0.1631  0.2076  0.2537
16059TIP3    H169592   0.213   2.907   5.083 -1.7915  0.1054  1.3350
16059TIP3    H269593   0.079   2.868   5.024 -0.4694 -0.2807 -1.5900
16060TIP3   OH269594   3.583   0.310   3.274  0.2644 -0.1626 -0.0429
16060TIP3    H169595   3.621   0.288   3.359 -0.4444  0.9856  0.5913
16060TIP3    H269596   3.648   0.280   3.210  1.8026  0.8748  0.9834
16061TIP3   OH269597   2.543   2.294   2.036 -0.5106  0.6051  0.5936
16061TIP3    H169598   2.459   2.332   2.064 -0.6555  0.6784  0.0861
16061TIP3    H269599   2.603   2.312   2.108 -0.5678  1.8300  0.3602
16062TIP3   OH269600   3.818   2.994   5.280 -0.3908  0.5604  0.4161
16062TIP3    H169601   3.739   3.021   5.233  1.0455  0.3140 -2.3634
16062TIP3    H269602   3.879   3.066   5.266 -0.3008  1.1227  3.2205
16063TIP3   OH269603   0.283   4.471  14.027 -0.3368  0.4768  0.0641
16063TIP3    H169604   0.230   4.549  14.047 -3.1996 -1.1990 -0.4045
16063TIP3    H269605   0.259   4.448  13.938 -0.8665 -1.8407  0.7282
16064TIP3   OH269606   0.559   3.322  14.473  0.5139 -0.1983  0.2932
16064TIP3    H169607   0.490   3.310  14.539  1.1370 -0.5991  0.8804
16064TIP3    H269608   0.515   3.367  14.401 -0.2451  0.0105  0.8716
16065TIP3   OH269609   2.952   0.231   3.948  0.4759  0.4036 -0.4329
16065TIP3    H169610   2.889   0.250   3.879 -0.2770 -0.1310  0.0942
16065TIP3    H269611   3.026   0.190   3.903  0.1595  0.4114 -0.9612
16066TIP3   OH269612   1.575   0.414  12.770 -0.0240  0.2191 -0.2895
16066TIP3    H169613   1.514   0.356  12.725  0.0677 -0.2630  0.2039
16066TIP3    H269614   1.546   0.502  12.745 -1.1902  0.0096  0.2701
16067TIP3   OH269615   2.119   1.859  15.426 -0.6611  0.4133  0.0593
16067TIP3    H169616   2.089   1.894  15.342 -1.3021  0.2668  0.2217
16067TIP3    H269617   2.057   1.893  15.490 -2.0899 -2.0018  0.0788
16068TIP3   OH269618   6.145   5.158  16.672  0.1105 -0.0363 -0.1623
16068TIP3    H169619   6.236   5.128  16.667 -0.6134 -2.9940  1.5194
16068TIP3    H269620   6.149   5.238  16.724  1.7591 -0.2355  0.0779
16069TIP3   OH269621   2.065   4.502   0.370 -0.2104 -0.2445 -0.0886
16069TIP3    H169622   1.981   4.489   0.414  0.9745 -0.9016  2.1968
16069TIP3    H269623   2.120   4.431   0.404  1.9524  1.5774  0.4705
16070TIP3   OH269624   1.494   6.071   5.099  0.1775  0.2553  0.2225
16070TIP3    H169625   1.480   5.988   5.052  1.7123 -0.2670  0.6570
16070TIP3    H269626   1.569   6.111   5.056 -0.8148  1.6882 -0.2823
16071TIP3   OH269627   2.977   2.151   1.888  0.6256 -0.5982  0.0415
16071TIP3    H169628   2.888   2.123   1.909 -0.6675  0.9310 -2.8449
16071TIP3    H269629   2.986   2.236   1.932  0.7942 -0.9181  0.6257
16072TIP3   OH269630   4.753   0.184   4.996 -0.0006  0.9561 -0.5889
16072TIP3    H169631   4.699   0.140   4.931  0.0715  0.7210 -0.4935
16072TIP3    H269632   4.735   0.137   5.078  0.6200  0.6403 -0.6279
16073TIP3   OH269633   0.754   2.673   4.934  0.0198 -0.2133 -0.5274
16073TIP3    H169634   0.821   2.737   4.911  0.3191 -0.2848  0.1098
16073TIP3    H269635   0.675   2.703   4.890  0.6856 -0.6604 -2.0801
16074TIP3   OH269636   3.660   5.022   2.851  0.1937 -0.1771  0.1877
16074TIP3    H169637   3.703   4.983   2.927  0.5476 -0.4510 -0.1488
16074TIP3    H269638   3.630   4.946   2.800 -1.8266 -0.0283  1.0321
16075TIP3   OH269639   4.483   2.083  14.700 -0.0294  0.3646 -0.0088
16075TIP3    H169640   4.391   2.070  14.676 -0.1792  2.7662 -1.0416
16075TIP3    H269641   4.523   1.997  14.690 -1.8081 -0.3776 -1.2049
16076TIP3   OH269642   0.552   2.236   4.431  0.0866 -0.1644  0.1584
16076TIP3    H169643   0.614   2.168   4.458 -0.4963 -0.7034  0.1451
16076TIP3    H269644   0.467   2.203   4.458 -0.1843  0.6384  0.2994
16077TIP3   OH269645   0.684   2.753   2.148  0.2168 -0.0737  0.0346
16077TIP3    H169646   0.596   2.787   2.128 -0.2583 -1.0652  0.4195
16077TIP3    H269647   0.671   2.660   2.165  1.3621 -0.2470  0.0188
16078TIP3   OH269648   1.263   1.524  16.034  0.2265 -0.4278 -0.4677
16078TIP3    H169649   1.301   1.437  16.024  0.1996 -0.6931  1.3791
16078TIP3    H269650   1.185   1.523  15.979  0.6528 -1.2973 -1.0729
16079TIP3   OH269651   6.718   6.553   2.868  0.2837 -0.1556  0.5811
16079TIP3    H169652   6.699   6.592   2.953 -2.2032 -0.5209  0.2900
16079TIP3    H269653   6.702   6.623   2.805 -0.7210 -0.6232  0.2825
16080TIP3   OH269654   4.703   4.138  14.179  0.0212 -0.0954  0.6018
16080TIP3    H169655   4.737   4.052  14.156  1.4028  0.5199  0.2415
16080TIP3    H269656   4.665   4.172  14.098  1.5538  0.5541  0.1239
16081TIP3   OH269657   4.126   3.323  12.257 -0.5778 -0.3924 -0.2054
16081TIP3    H169658   4.114   3.324  12.162 -1.2962 -0.0174 -0.1201
16081TIP3    H269659   4.123   3.415  12.282 -0.2629 -0.4825  0.1666
16082TIP3   OH269660   1.414   4.189   3.349 -0.0247  0.0831  0.3193
16082TIP3    H169661   1.483   4.122   3.344 -1.7826 -1.8069  0.3050
16082TIP3    H269662   1.435   4.239   3.428 -0.0859 -2.2127  1.8928
16083TIP3   OH269663   4.279   3.343  15.466  0.4524 -0.0114 -0.2987
16083TIP3    H169664   4.226   3.263  15.458  0.6936 -0.2312  0.2862
16083TIP3    H269665   4.242   3.402  15.400 -0.2691 -0.3021 -0.1641
16084TIP3   OH269666   2.189   0.561   4.356  0.0827 -0.4614  0.8852
16084TIP3    H169667   2.105   0.521   4.333 -1.6977  1.8366  2.8032
16084TIP3    H269668   2.199   0.633   4.294  0.3989 -0.4190  0.9848
16085TIP3   OH269669   2.740   2.594   1.123  0.5062 -0.4381 -0.3355
16085TIP3    H169670   2.802   2.664   1.102 -2.3112  1.4902 -3.0592
16085TIP3    H269671   2.748   2.532   1.051 -1.5741  0.5798 -1.5432
16086TIP3   OH269672   0.409   3.868  16.573  0.3276  1.1294 -0.1308
16086TIP3    H169673   0.502   3.887  16.589  0.2600  0.2919  1.4529
16086TIP3    H269674   0.377   3.946  16.528  1.3151  2.3914  1.2309
16087TIP3   OH269675   0.527   5.322  13.986  0.4286 -0.0960 -0.2599
16087TIP3    H169676   0.489   5.368  14.062  0.6131 -1.2237  0.5321
16087TIP3    H269677   0.570   5.391  13.936 -2.0371  1.1568 -0.8348
16088TIP3   OH269678   3.994   5.621   4.522  0.2544 -0.6965  0.2681
16088TIP3    H169679   4.059   5.643   4.456  1.1686  0.4368  1.4947
16088TIP3    H269680   3.916   5.597   4.471  1.0156 -0.1872 -1.2080
16089TIP3   OH269681   5.536   4.412   5.858  0.7001  0.2116 -0.2907
16089TIP3    H169682   5.592   4.398   5.782 -0.2217 -1.4447 -0.7056
16089TIP3    H269683   5.485   4.490   5.836 -0.1052 -0.6881 -1.7349
16090TIP3   OH269684   0.166   4.337   3.912  0.0309 -0.2125 -0.0550
16090TIP3    H169685   0.166   4.269   3.979  1.8851  0.2585  0.5068
16090TIP3    H269686   0.140   4.416   3.959  0.4399 -0.0583 -0.0788
16091TIP3   OH269687   3.672   4.734  13.297 -0.1541  0.2210  0.0537
16091TIP3    H169688   3.604   4.673  13.325  0.5617 -0.0387  1.3489
16091TIP3    H269689   3.630   4.791  13.234 -1.1598 -0.8768 -0.2921
16092TIP3   OH269690   0.180   3.438  14.258 -0.2328  0.1362 -0.3065
16092TIP3    H169691   0.089   3.410  14.260 -0.2458  0.1115 -0.9812
16092TIP3    H269692   0.202   3.454  14.350 -1.4002  1.6802 -0.2534
16093TIP3   OH269693   4.031   5.013  14.767 -0.2791 -0.3064  0.3889
16093TIP3    H169694   4.023   4.943  14.832 -0.4399  0.4316  1.1711
16093TIP3    H269695   4.125   5.019  14.750 -0.3084 -1.1520 -0.1968
16094TIP3   OH269696   5.976   5.044   2.424  0.1812 -0.0564 -1.3841
16094TIP3    H169697   6.064   5.032   2.389  0.3371  0.9320 -1.3499
16094TIP3    H269698   5.921   4.989   2.368  0.9410 -1.5626 -0.7282
16095TIP3   OH269699   0.714   1.496  14.080 -0.1126 -0.0767  0.0878
16095TIP3    H169700   0.659   1.574  14.093 -0.2330 -0.4282  1.9000
16095TIP3    H269701   0.783   1.504  14.146  0.5686 -0.9259 -0.4941
16096TIP3   OH269702   0.356   2.757  13.801 -0.1655 -0.4978  0.5777
16096TIP3    H169703   0.406   2.680  13.829 -2.5544 -2.4161 -0.0466
16096TIP3    H269704   0.286   2.765  13.865 -0.6831  0.3982 -0.0722
16097TIP3   OH269705   5.463   3.290  16.664  0.2422 -0.1335 -0.4840
16097TIP3    H169706   5.537   3.300  16.724  0.7628 -0.2259 -1.1043
16097TIP3    H269707   5.501   3.304  16.577 -0.0451 -2.2346 -0.9928
16098TIP3   OH269708   2.547   2.466  15.201 -0.3145  0.0856 -0.0294
16098TIP3    H169709   2.527   2.505  15.116 -2.3821  0.9030  0.7570
16098TIP3    H269710   2.630   2.506  15.227 -0.0651  0.4353 -1.3064
16099TIP3   OH269711   5.151   0.623  12.907  0.0301  0.1376  0.7933
16099TIP3    H169712   5.081   0.678  12.871  0.1954 -0.3777 -0.3863
16099TIP3    H269713   5.218   0.622  12.838  0.9322  0.1274  1.6499
16100TIP3   OH269714   0.632   1.963   5.694  0.1403  0.6190  0.3754
16100TIP3    H169715   0.706   1.978   5.753 -0.2751 -0.9516  1.3195
16100TIP3    H269716   0.673   1.948   5.608  1.2139 -2.9746  1.3504
16101TIP3   OH269717   3.158   0.666  13.070 -0.3256  0.5677 -0.7767
16101TIP3    H169718   3.146   0.753  13.031  0.1014  0.3015 -1.5129
16101TIP3    H269719   3.230   0.627  13.020 -0.7170 -0.3291 -0.6470
16102TIP3   OH269720   5.340   6.491  10.974 -0.1889 -0.4895  0.4317
16102TIP3    H169721   5.249   6.483  11.003 -0.6395  0.3056 -0.6528
16102TIP3    H269722   5.362   6.583  10.989  0.1677 -0.4901 -0.0507
16103TIP3   OH269723   0.852   1.029  11.222  0.4541  0.2407 -0.3650
16103TIP3    H169724   0.761   1.043  11.247  1.0562  2.1035  1.0129
16103TIP3    H269725   0.898   1.015  11.305  1.6113  0.5272 -0.9410
16104TIP3   OH269726   1.502   2.474  15.095  0.3814  0.0786 -0.1124
16104TIP3    H169727   1.482   2.381  15.097 -1.1691  0.3875 -0.2703
16104TIP3    H269728   1.541   2.492  15.181 -0.0863 -0.5542  0.2331
16105TIP3   OH269729   4.325   5.886  14.563  0.1458 -0.8137  0.0313
16105TIP3    H169730   4.293   5.936  14.488  0.2809 -2.0419 -0.8871
16105TIP3    H269731   4.250   5.832  14.589  0.0548 -0.2892  0.8921
16106TIP3   OH269732   0.953   4.670  13.888 -0.4551  0.0084 -0.8272
16106TIP3    H169733   0.869   4.686  13.931  0.2034 -0.4833  0.7198
16106TIP3    H269734   0.961   4.741  13.825 -2.6745 -0.7162 -2.0502
16107TIP3   OH269735   1.826   0.562   5.786  0.7797 -0.0096 -0.2264
16107TIP3    H169736   1.852   0.610   5.865 -0.5922  0.8440 -0.2722
16107TIP3    H269737   1.863   0.613   5.714  0.6877  0.0794 -0.2097
16108TIP3   OH269738   4.378   3.727  13.680 -0.6397 -0.1734 -0.3795
16108TIP3    H169739   4.443   3.661  13.703 -3.0918 -1.6170  3.4280
16108TIP3    H269740   4.332   3.690  13.605  1.2318 -0.2631 -1.5530
16109TIP3   OH269741   5.781   0.360   3.149  0.2726  0.1485  0.3665
16109TIP3    H169742   5.688   0.362   3.173  0.2360 -1.9990  0.6071
16109TIP3    H269743   5.781   0.345   3.055  0.4312  2.8158 -0.1350
16110TIP3   OH269744   0.764   3.815  12.096 -0.1238 -0.1573 -0.4474
16110TIP3    H169745   0.719   3.797  12.013 -0.6319  0.6368 -0.3601
16110TIP3    H269746   0.733   3.748  12.156  0.4898 -0.9305 -0.9811
16111TIP3   OH269747   5.174   5.887  12.695  0.1980 -0.4021 -0.1272
16111TIP3    H169748   5.107   5.916  12.758  1.6457 -1.2240  1.8916
16111TIP3    H269749   5.190   5.795  12.718  2.5200 -0.0219 -0.0374
16112TIP3   OH269750   3.208   3.907  15.662  0.1066  0.3776 -0.3729
16112TIP3    H169751   3.196   3.940  15.573 -2.3038  0.1573 -0.1821
16112TIP3    H269752   3.120   3.897  15.697  0.9836  0.6203  2.1336
16113TIP3   OH269753   1.320   0.564  11.907  0.1897  0.6352 -0.2522
16113TIP3    H169754   1.412   0.540  11.898 -0.0776 -0.0184 -1.3880
16113TIP3    H269755   1.315   0.654  11.875  0.6955  1.2800  1.3639
16114TIP3   OH269756   1.875   3.825  13.848  0.0281 -0.3635  0.2643
16114TIP3    H169757   1.831   3.815  13.932  0.4524  0.1672  0.5549
16114TIP3    H269758   1.829   3.765  13.790  0.4583 -1.6144  1.1622
16115TIP3   OH269759   6.171   1.343   1.307 -0.2096 -0.3419 -0.1886
16115TIP3    H169760   6.165   1.422   1.252  1.8992 -0.2439 -0.3621
16115TIP3    H269761   6.198   1.376   1.393 -1.2826 -0.7053  0.2980
16116TIP3   OH269762   6.103   5.365  12.117 -0.3522  0.6597 -0.4106
16116TIP3    H169763   6.137   5.393  12.032  0.3517  0.9316 -0.0536
16116TIP3    H269764   6.125   5.437  12.176  3.9886 -1.5984  1.1746
16117TIP3   OH269765   5.909   4.964  11.963  0.5758  0.6380 -0.2994
16117TIP3    H169766   5.995   4.926  11.981 -0.1407 -1.1372 -0.4675
16117TIP3    H269767   5.894   5.025  12.035  1.0259 -0.7284  1.0059
16118TIP3   OH269768   4.805   0.478   3.805  0.1575 -0.2376  0.0461
16118TIP3    H169769   4.844   0.563   3.783 -0.0423 -0.0174  0.5240
16118TIP3    H269770   4.730   0.470   3.746  1.3744 -1.0414 -1.4610
16119TIP3   OH269771   0.282   5.596  14.689  0.0619 -0.1429  0.0395
16119TIP3    H169772   0.271   5.513  14.643  0.8356  0.5559 -1.4804
16119TIP3    H269773   0.225   5.657  14.643 -0.5257  0.1798  1.1598
16120TIP3   OH269774   0.916   4.373   6.080  0.7471  0.6275  0.0325
16120TIP3    H169775   0.925   4.459   6.121  2.1684  0.5640 -0.1108
16120TIP3    H269776   0.936   4.310   6.149 -0.2193  0.3879  0.1172
16121TIP3   OH269777   1.273   5.263  17.156 -0.5438 -0.1988  0.2303
16121TIP3    H169778   1.213   5.241  17.084 -1.4360  0.1316  0.8508
16121TIP3    H269779   1.354   5.217  17.134 -0.7480  0.0080 -1.0564
16122TIP3   OH269780   1.738   3.640   4.950 -0.7644 -0.3382 -0.3630
16122TIP3    H169781   1.787   3.704   4.898 -0.5898 -0.6867 -0.6360
16122TIP3    H269782   1.701   3.581   4.884  0.0827 -1.2326 -0.0606
16123TIP3   OH269783   1.812   1.609   5.205  0.3360  0.0813 -0.2509
16123TIP3    H169784   1.901   1.641   5.224  0.0697 -0.2499  1.7747
16123TIP3    H269785   1.765   1.618   5.288 -1.4818  0.0478 -1.2332
16124TIP3   OH269786   2.859   3.346  15.651  0.0323  0.0763  0.1567
16124TIP3    H169787   2.895   3.278  15.594  0.2986  1.8983 -2.0074
16124TIP3    H269788   2.764   3.337  15.641  0.0747  0.2863 -0.4914
16125TIP3   OH269789   5.998   5.715   2.983 -0.2606 -0.1952 -0.3494
16125TIP3    H169790   6.007   5.797   2.935  0.7173  0.1760  0.4276
16125TIP3    H269791   5.971   5.651   2.917  3.5303 -0.2951 -2.0764
16126TIP3   OH269792   4.320   2.176  16.753 -0.7705 -0.3720 -0.1480
16126TIP3    H169793   4.293   2.115  16.822 -1.2246 -0.6177 -0.5375
16126TIP3    H269794   4.240   2.193  16.704 -0.0357 -1.9821 -2.0292
16127TIP3   OH269795   1.007   1.850  14.658  0.5938  0.2205  0.4444
16127TIP3    H169796   0.954   1.816  14.586  0.5344 -0.7166  0.9138
16127TIP3    H269797   0.943   1.883  14.721  0.6483  1.1341  0.0416
16128TIP3   OH269798   6.107   4.005   2.203  0.0841 -0.1382  0.1525
16128TIP3    H169799   6.054   3.957   2.267 -2.6501  0.5536 -1.4174
16128TIP3    H269800   6.159   4.066   2.255 -1.9515  0.3105  1.8128
16129TIP3   OH269801   0.838   0.174  13.615 -0.0306 -0.4741 -0.3109
16129TIP3    H169802   0.784   0.218  13.680  2.4644  1.6326  0.5054
16129TIP3    H269803   0.876   0.100  13.662  1.1420  0.5845  0.4799
16130TIP3   OH269804   4.794   2.297   3.611 -0.0577  0.5505 -0.3354
16130TIP3    H169805   4.702   2.316   3.627 -0.4048 -1.1395 -0.1499
16130TIP3    H269806   4.797   2.267   3.520  0.1364 -0.2840 -0.0647
16131TIP3   OH269807   0.528   4.181  16.511 -0.2519  0.5066  0.2344
16131TIP3    H169808   0.517   4.268  16.473 -0.9300  0.9462  1.3830
16131TIP3    H269809   0.500   4.190  16.602 -3.1625 -1.5644 -0.3103
16132TIP3   OH269810   0.165   6.790  15.962  0.2901 -0.1126  0.0676
16132TIP3    H169811   0.197   6.859  16.021 -0.8588 -1.2406  2.1538
16132TIP3    H269812   0.137   6.836  15.883  1.6047  1.5198  0.4897
16133TIP3   OH269813   0.055   4.761  12.762 -0.2071  0.1140 -0.3629
16133TIP3    H169814   0.066   4.783  12.669 -0.7904 -0.0409 -0.4714
16133TIP3    H269815  -0.036   4.732  12.769 -0.1264 -0.0002  0.2344
16134TIP3   OH269816   0.530   0.820   2.851  0.5096  0.5684 -0.5039
16134TIP3    H169817   0.553   0.727   2.850 -4.1350 -0.8146  0.4652
16134TIP3    H269818   0.573   0.854   2.930 -1.9290 -2.2465  2.2971
16135TIP3   OH269819   3.383   5.792   0.884  0.0780 -0.0725 -0.2173
16135TIP3    H169820   3.417   5.706   0.909 -0.8705 -0.4243 -0.0953
16135TIP3    H269821   3.459   5.840   0.851  0.9797 -0.3032  1.4425
16136TIP3   OH269822   0.345   0.593   4.112 -0.0352  0.1848 -0.3354
16136TIP3    H169823   0.403   0.549   4.049  0.2981 -0.5988  0.5069
16136TIP3    H269824   0.401   0.614   4.186 -0.4064  1.2019 -0.3185
16137TIP3   OH269825   3.902   6.418   5.001  0.2340  0.2647 -0.2452
16137TIP3    H169826   3.876   6.508   4.981 -0.6756  0.1004  0.1363
16137TIP3    H269827   3.993   6.412   4.971  0.0604  1.0743 -0.9796
16138TIP3   OH269828   1.495   6.145   4.212 -0.3385 -0.4855  0.3631
16138TIP3    H169829   1.564   6.079   4.199  0.5181  0.4757 -0.1411
16138TIP3    H269830   1.516   6.183   4.298 -1.0570 -1.1160  0.8268
16139TIP3   OH269831   4.743   0.266   6.024  0.3266  0.1390 -0.3904
16139TIP3    H169832   4.708   0.346   6.064  0.4082 -0.0249  0.0138
16139TIP3    H269833   4.700   0.262   5.938 -0.9781 -0.2734  0.2560
16140TIP3   OH269834   4.859   1.110  11.976  0.3014  0.0265 -0.0226
16140TIP3    H169835   4.903   1.033  11.940  0.7795  0.5923 -0.6668
16140TIP3    H269836   4.807   1.076  12.048  0.6416 -0.8781 -0.1920
16141TIP3   OH269837   4.804   6.199   0.891  0.1493  0.0425 -0.2784
16141TIP3    H169838   4.765   6.185   0.977 -1.4060  1.6399 -0.6663
16141TIP3    H269839   4.884   6.147   0.892  1.0348  1.2388  2.7235
16142TIP3   OH269840   5.576   4.967  13.609 -0.2861  0.0158  0.0630
16142TIP3    H169841   5.597   5.059  13.627  1.3881  0.0855 -1.8587
16142TIP3    H269842   5.493   4.952  13.656  1.3284  1.3063  3.7192
16143TIP3   OH269843   5.489   1.099  14.995 -0.4086  0.3282 -0.2519
16143TIP3    H169844   5.488   1.126  14.903  0.7485  0.4422 -0.2460
16143TIP3    H269845   5.531   1.013  14.994 -0.3246  0.3619  0.1717
16144TIP3   OH269846   4.326   1.993  11.496  0.5039  0.4860 -0.0537
16144TIP3    H169847   4.304   1.935  11.423 -0.0410  2.4627 -1.5408
16144TIP3    H269848   4.422   1.996  11.496  0.5766 -0.9258  0.5174
16145TIP3   OH269849   4.815   6.592   1.603 -0.0840  0.0733  0.1079
16145TIP3    H169850   4.887   6.529   1.603 -0.0910  0.0651  0.2790
16145TIP3    H269851   4.814   6.627   1.692  1.1878  1.7709 -0.4924
16146TIP3   OH269852   0.634   3.943  12.654 -0.3956 -0.0072 -0.3942
16146TIP3    H169853   0.577   3.907  12.721 -0.1619  1.6986  0.7989
16146TIP3    H269854   0.718   3.900  12.668 -0.0074  1.1744  1.2679
16147TIP3   OH269855   4.659   1.415   4.699  0.0964  0.6615 -0.0093
16147TIP3    H169856   4.741   1.367   4.711  1.3868  2.9133  0.6982
16147TIP3    H269857   4.633   1.441   4.788 -1.2688  0.2281 -0.2492
16148TIP3   OH269858   4.378   0.003   3.231  0.8432  0.7674 -0.1379
16148TIP3    H169859   4.467  -0.020   3.258  0.4051 -0.6752  0.1525
16148TIP3    H269860   4.389   0.055   3.151  1.8980 -0.6682 -0.9557
16149TIP3   OH269861   6.336   2.045   5.914 -0.5034 -0.0729 -0.2497
16149TIP3    H169862   6.366   2.129   5.878 -0.1662 -0.0369  0.1142
16149TIP3    H269863   6.333   1.987   5.838 -1.2226  0.3938 -0.5989
16150TIP3   OH269864   0.336   3.264  14.636 -0.2083  0.0166  0.0398
16150TIP3    H169865   0.353   3.321  14.711  0.4150 -1.1146  0.7909
16150TIP3    H269866   0.302   3.183  14.675 -0.1849 -0.4712 -0.9215
16151TIP3   OH269867   3.652   3.703   0.035  0.4568  0.2342 -0.2718
16151TIP3    H169868   3.642   3.705  -0.060  0.1520  0.2589 -0.2399
16151TIP3    H269869   3.569   3.735   0.069  0.6570  0.4761  0.0013
16152TIP3   OH269870   2.604   5.008  13.929  0.1656 -0.7029  0.4504
16152TIP3    H169871   2.691   4.990  13.964  0.1818  0.0689  0.8279
16152TIP3    H269872   2.610   5.097  13.895  0.0613 -1.3135 -1.2501
16153TIP3   OH269873   0.058   5.033   3.194 -0.3736  0.2850 -0.0025
16153TIP3    H169874   0.072   4.981   3.114 -1.3388 -1.7155  1.0665
16153TIP3    H269875   0.146   5.057   3.222  0.2132 -1.6003 -0.0613
16154TIP3   OH269876   1.544   3.121  10.258  0.2912  0.0841  0.0511
16154TIP3    H169877   1.534   3.032  10.225  0.5221  0.3234 -0.6823
16154TIP3    H269878   1.460   3.163  10.242  0.5545  0.3409 -0.6770
16155TIP3   OH269879   3.606   1.601   0.634 -0.4211 -0.0351  0.2108
16155TIP3    H169880   3.554   1.653   0.695 -0.6017 -0.8266  0.7624
16155TIP3    H269881   3.609   1.653   0.554 -1.4848  0.3382  0.3922
16156TIP3   OH269882   6.212   6.096  16.695  0.2751 -0.6407 -0.4229
16156TIP3    H169883   6.216   6.140  16.780 -2.0520 -1.7915  0.3688
16156TIP3    H269884   6.118   6.092  16.675  0.5481 -3.3082 -1.4672
16157TIP3   OH269885   3.967   4.785   3.924  0.3768  0.1471  0.2428
16157TIP3    H169886   3.893   4.761   3.979  0.3258  1.2089  0.6513
16157TIP3    H269887   3.945   4.872   3.891  0.2308 -0.5898 -1.7657
16158TIP3   OH269888   2.351   6.778  15.605  0.2841  0.1688 -0.4169
16158TIP3    H169889   2.362   6.844  15.674  0.5519  1.5349 -1.7112
16158TIP3    H269890   2.434   6.730  15.606  2.0221  2.8314 -2.3841
16159TIP3   OH269891   3.262   3.544  11.063 -0.2895 -0.1327  0.4623
16159TIP3    H169892   3.340   3.489  11.073 -1.0412 -1.0577  1.4819
16159TIP3    H269893   3.289   3.613  11.001  1.0318 -0.9670  0.0680
16160TIP3   OH269894   4.891   1.921  14.311 -0.3180 -0.0777  0.3146
16160TIP3    H169895   4.849   1.996  14.354  1.6175  0.0268  2.1853
16160TIP3    H269896   4.935   1.874  14.382 -0.0656 -2.0560 -1.0654
16161TIP3   OH269897   3.371   2.413  13.043 -0.2258  0.4586  0.1966
16161TIP3    H169898   3.373   2.378  13.132 -0.9976 -0.2633 -0.0628
16161TIP3    H269899   3.297   2.369  13.001  0.1998  0.7012 -0.8376
16162TIP3   OH269900   4.393   2.378  14.630 -0.0729  0.1577  0.1591
16162TIP3    H169901   4.380   2.412  14.541 -1.6035  0.2340  0.3867
16162TIP3    H269902   4.443   2.298  14.618 -1.7861 -0.8180 -0.9728
16163TIP3   OH269903   3.140   5.778  14.669 -0.2114  0.0305 -0.2015
16163TIP3    H169904   3.079   5.705  14.680 -1.2511  0.8381 -0.4338
16163TIP3    H269905   3.146   5.817  14.756 -0.1155  0.0163 -0.2018
16164TIP3   OH269906   0.300   5.942  13.883  0.4505  0.5536 -0.2936
16164TIP3    H169907   0.330   5.977  13.967  1.4410  0.7719 -0.7255
16164TIP3    H269908   0.375   5.953  13.824 -0.0897  0.0245 -1.1007
16165TIP3   OH269909   3.291   3.095  12.252  0.2122  0.6115 -0.5416
16165TIP3    H169910   3.244   3.071  12.172  1.0430 -3.2278 -0.0712
16165TIP3    H269911   3.282   3.019  12.309  2.9424  1.6360  1.4652
16166TIP3   OH269912   1.790   3.173  11.516  0.1914 -0.7239 -0.0569
16166TIP3    H169913   1.860   3.237  11.509 -1.0340  0.7755  0.7689
16166TIP3    H269914   1.756   3.185  11.605 -0.0462 -2.5850  0.1497
16167TIP3   OH269915   3.598   1.073   0.618  0.2895 -0.2452  0.1237
16167TIP3    H169916   3.687   1.046   0.592 -0.2369 -1.0580 -0.9348
16167TIP3    H269917   3.581   1.026   0.699  0.8174 -0.1116  0.3139
16168TIP3   OH269918   2.569   1.669   1.071 -0.0868 -0.1175  0.0386
16168TIP3    H169919   2.533   1.580   1.073 -0.7198  0.1135 -0.7757
16168TIP3    H269920   2.506   1.721   1.121 -1.1113  0.3548 -1.6836
16169TIP3   OH269921   6.572   1.980   1.747 -0.4323  0.2542 -0.0573
16169TIP3    H169922   6.663   1.978   1.718 -0.2850  1.0676  0.3110
16169TIP3    H269923   6.542   2.069   1.726 -1.3970 -0.2460 -0.9211
16170TIP3   OH269924   0.678   5.499  13.817 -0.1919 -0.0436 -0.0161
16170TIP3    H169925   0.765   5.475  13.786  0.2948 -0.0756  1.3214
16170TIP3    H269926   0.618   5.452  13.759  0.7068 -1.5969  0.2730
16171TIP3   OH269927   5.105   5.613   1.596 -0.0196  0.1272  0.2915
16171TIP3    H169928   5.089   5.519   1.605 -0.5528  0.0607 -1.1838
16171TIP3    H269929   5.025   5.653   1.630 -0.6618 -0.0287 -0.9879
16172TIP3   OH269930   3.981   0.165  15.261 -0.6662 -0.2805  0.0222
16172TIP3    H169931   3.908   0.147  15.202 -0.0991  1.0335 -1.1391
16172TIP3    H269932   3.956   0.246  15.305 -0.0905 -0.0250 -0.1083
16173TIP3   OH269933   3.980   5.375  10.967 -0.0527 -0.0284  0.0086
16173TIP3    H169934   3.936   5.398  10.885 -0.5082 -2.4748 -0.5115
16173TIP3    H269935   3.912   5.376  11.033  0.1689  1.2110  0.2392
16174TIP3   OH269936   3.788   0.777  14.842 -0.0639 -0.1151 -0.1698
16174TIP3    H169937   3.790   0.864  14.803  0.3266  0.1081  0.3431
16174TIP3    H269938   3.801   0.792  14.936  1.4275 -0.8405 -0.2429
16175TIP3   OH269939   0.533   0.306   0.291  0.2755 -0.1252 -0.0224
16175TIP3    H169940   0.455   0.263   0.255 -0.9188  0.9731  1.1461
16175TIP3    H269941   0.563   0.246   0.360 -1.0319  0.5296  1.1922
16176TIP3   OH269942   6.607   3.853  10.802  0.4417 -0.4608 -0.7208
16176TIP3    H169943   6.607   3.924  10.867  2.2462 -0.9696 -0.1093
16176TIP3    H269944   6.648   3.779  10.847 -0.7380 -1.6887 -1.5869
16177TIP3   OH269945   2.716   5.148   6.938 -0.5949  0.1196  0.4065
16177TIP3    H169946   2.662   5.069   6.927 -0.6165  0.1982 -0.1136
16177TIP3    H269947   2.658   5.212   6.979  0.0875 -0.8509  3.0207
16178TIP3   OH269948   0.968   4.660  15.653 -0.0404  0.2162 -0.0217
16178TIP3    H169949   0.994   4.569  15.670  0.0682  0.4800  1.4150
16178TIP3    H269950   1.051   4.707  15.646 -0.0943  0.1849 -0.9521
16179TIP3   OH269951   2.498   2.646   0.870  0.1485  0.2634 -1.1021
16179TIP3    H169952   2.451   2.572   0.908  0.2528  0.7031 -0.0883
16179TIP3    H269953   2.493   2.715   0.937  1.2909  0.6818 -1.4261
16180TIP3   OH269954   4.201   4.473  13.252  0.2987 -0.5972  0.8063
16180TIP3    H169955   4.276   4.419  13.276  0.3738 -1.4112 -1.0883
16180TIP3    H269956   4.127   4.412  13.250  0.0590 -0.2953  0.2785
16181TIP3   OH269957   1.101   3.536   5.061  0.5322  0.9126  0.0152
16181TIP3    H169958   1.175   3.559   5.006 -0.9086  1.9452 -1.6159
16181TIP3    H269959   1.120   3.447   5.092  2.1459  0.9279 -0.8370
16182TIP3   OH269960   0.339   3.599   5.229  0.5468 -0.2549  0.2425
16182TIP3    H169961   0.412   3.611   5.291 -0.1626  2.3551  0.7014
16182TIP3    H269962   0.353   3.667   5.163 -0.3060 -1.1265 -0.8613
16183TIP3   OH269963   6.024   0.738   1.537  0.0993 -0.0934 -0.9008
16183TIP3    H169964   6.067   0.811   1.493 -1.6453  0.8530 -1.1096
16183TIP3    H269965   5.931   0.754   1.526 -0.3948 -3.0970 -2.1955
16184TIP3   OH269966   3.248   4.034  11.477 -0.1071  0.0210 -0.5007
16184TIP3    H169967   3.258   4.012  11.384  0.1580  0.3605 -0.5561
16184TIP3    H269968   3.312   3.980  11.522 -1.3359 -1.3606 -0.3217
16185TIP3   OH269969   0.597   4.614  10.893  0.3869  0.0935 -0.1365
16185TIP3    H169970   0.586   4.519  10.897  0.5036  0.1298  1.5971
16185TIP3    H269971   0.536   4.643  10.825  0.2826 -1.2035 -0.6078
16186TIP3   OH269972   1.097   1.030  15.288  0.6675 -0.3666 -0.1398
16186TIP3    H169973   1.060   1.000  15.205 -2.3359  0.5835  0.7365
16186TIP3    H269974   1.177   0.978  15.298  2.4770  0.9757 -4.6083
16187TIP3   OH269975   4.139   6.648  14.856  0.5153 -0.2088  0.6901
16187TIP3    H169976   4.181   6.581  14.801 -1.0012  0.5689 -1.6032
16187TIP3    H269977   4.194   6.725  14.847 -0.2763  0.2346 -0.7217
16188TIP3   OH269978   4.468   4.921  17.086 -0.0794  0.2885  0.0044
16188TIP3    H169979   4.473   4.970  17.168 -1.7136 -1.2281  1.0896
16188TIP3    H269980   4.394   4.861  17.099  1.5598 -2.1944 -1.3755
16189TIP3   OH269981   4.846   3.185  14.799 -1.2126 -0.5292  0.1830
16189TIP3    H169982   4.857   3.257  14.737  1.0110 -0.9290  0.0309
16189TIP3    H269983   4.762   3.146  14.775 -1.2304  0.4068 -1.4334
16190TIP3   OH269984   0.932   1.381   4.634 -0.0745 -0.1473 -0.8705
16190TIP3    H169985   0.852   1.394   4.686 -0.1892 -0.1389 -1.0492
16190TIP3    H269986   0.987   1.456   4.657  0.2129 -0.5726 -0.1367
16191TIP3   OH269987   4.465   2.303   4.957  0.0110 -0.3876  0.9665
16191TIP3    H169988   4.441   2.225   4.908  0.1375 -0.2294  0.6500
16191TIP3    H269989   4.382   2.347   4.974  0.1796  1.6351 -2.5675
16192TIP3   OH269990   5.627   1.817  11.773  0.1714 -0.2398 -0.3311
16192TIP3    H169991   5.604   1.830  11.681  1.1494 -0.3044 -0.6023
16192TIP3    H269992   5.601   1.727  11.792  2.2292 -1.1193 -1.3099
16193TIP3   OH269993   0.485   2.823   0.004  0.1542  0.0301  0.2672
16193TIP3    H169994   0.430   2.877  -0.053  0.3122  0.7128  0.7556
16193TIP3    H269995   0.557   2.880   0.029  1.3015 -0.9561 -0.6405
16194TIP3   OH269996   1.155   6.544  11.493 -0.2724  0.7739  0.6100
16194TIP3    H169997   1.068   6.532  11.455 -0.4738 -0.0775  1.3073
16194TIP3    H269998   1.216   6.523  11.422 -0.6358 -1.5588  0.9393
16195TIP3   OH269999   3.691   3.574  16.728  0.5374  0.8622  0.4938
16195TIP3    H170000   3.677   3.496  16.780 -2.9837  0.9947 -0.0414
16195TIP3    H270001   3.708   3.542  16.639 -1.2562  0.6570  0.2032
16196TIP3   OH270002   5.678   1.639  12.973  0.2610 -0.6015 -0.3096
16196TIP3    H170003   5.687   1.734  12.965  0.9684 -0.7188 -1.0372
16196TIP3    H270004   5.620   1.614  12.902  1.0893 -0.8562 -0.9049
16197TIP3   OH270005   4.973   4.599   0.718 -0.1481  0.0021 -0.3696
16197TIP3    H170006   4.958   4.683   0.674 -1.3782  0.7716  1.4023
16197TIP3    H270007   4.945   4.533   0.653 -0.7461  1.0342 -1.1926
16198TIP3   OH270008   3.105   1.619   5.673 -0.1186 -0.0576  0.0700
16198TIP3    H170009   3.083   1.708   5.700  2.0186  0.2676  0.9686
16198TIP3    H270010   3.082   1.615   5.580  2.5511  2.4999 -0.8286
16199TIP3   OH270011   0.347   2.246  14.394  0.1484 -0.0012  0.6482
16199TIP3    H170012   0.401   2.312  14.438  0.3273 -0.7331  1.5695
16199TIP3    H270013   0.343   2.274  14.303  1.2961  0.5845  0.7666
16200TIP3   OH270014   2.552   4.184  13.109  0.3465 -0.3753  0.2977
16200TIP3    H170015   2.623   4.167  13.047  1.0964 -0.3169  1.1281
16200TIP3    H270016   2.529   4.098  13.144  1.3302 -0.2122  1.4348
16201TIP3   OH270017   2.669   2.451  16.283  0.2053  0.3175  0.3311
16201TIP3    H170018   2.634   2.362  16.287  0.3839  0.2837  1.2077
16201TIP3    H270019   2.679   2.468  16.189 -1.2755 -0.0056  0.0911
16202TIP3   OH270020   1.613   1.062   1.689  0.6199 -0.4309  0.8503
16202TIP3    H170021   1.676   1.126   1.722  0.1568 -0.1310  1.1662
16202TIP3    H270022   1.667   0.990   1.657  1.1697  0.2246  0.2515
16203TIP3   OH270023   3.918   0.369   5.698 -0.0444  0.5084  0.3683
16203TIP3    H170024   3.994   0.325   5.659  1.9861  2.9804  1.2384
16203TIP3    H270025   3.891   0.433   5.632 -0.8651  0.2003  0.3989
16204TIP3   OH270026   5.417   1.118  16.615  0.2372  0.2355  0.5262
16204TIP3    H170027   5.334   1.069  16.611 -0.7981  1.8164  1.6176
16204TIP3    H270028   5.392   1.208  16.595  1.6609  0.7938  1.1759
16205TIP3   OH270029   2.050   5.761   4.244 -0.2334  0.2019  0.2240
16205TIP3    H170030   2.077   5.832   4.185 -1.2136  0.3293 -0.0998
16205TIP3    H270031   1.988   5.709   4.191 -2.3464  1.1926  1.5865
16206TIP3   OH270032   1.510   4.959  12.583  0.2822 -0.0410 -0.4182
16206TIP3    H170033   1.416   4.979  12.589  0.2479 -0.2726 -0.1990
16206TIP3    H270034   1.516   4.895  12.512  0.2129 -0.4154 -0.0911
16207TIP3   OH270035   5.971   1.511   1.481  0.1672  0.0686  0.2134
16207TIP3    H170036   6.061   1.541   1.473 -0.3260  1.3188 -1.0035
16207TIP3    H270037   5.918   1.585   1.450 -1.2315 -0.9915 -0.0310
16208TIP3   OH270038   1.422   2.691   5.762  0.0652  0.2472 -0.2597
16208TIP3    H170039   1.431   2.596   5.774  1.4077  0.3201 -0.4703
16208TIP3    H270040   1.445   2.728   5.848  0.1093  0.3935 -0.3341
16209TIP3   OH270041   0.359   6.371  15.872  0.6111 -0.1628 -0.1947
16209TIP3    H170042   0.436   6.401  15.919  0.9533  0.0287 -0.8667
16209TIP3    H270043   0.286   6.394  15.929  1.1069 -1.5470  1.0742
16210TIP3   OH270044   4.773   4.617  10.884  0.0360 -0.3731 -0.3861
16210TIP3    H170045   4.678   4.617  10.875 -0.2738  0.6222  2.2814
16210TIP3    H270046   4.804   4.678  10.816 -1.0679 -1.5164 -1.9956
16211TIP3   OH270047   6.547   5.869  16.375  0.1581  0.6335 -0.6454
16211TIP3    H170048   6.568   5.779  16.399  1.8245  1.0570 -0.4215
16211TIP3    H270049   6.517   5.909  16.457  0.7496  0.6482 -0.4322
16212TIP3   OH270050   0.425   2.252  13.652 -0.5128  0.1228 -0.3390
16212TIP3    H170051   0.519   2.253  13.635 -0.2825 -1.1535  0.6717
16212TIP3    H270052   0.414   2.314  13.725 -0.7860  1.7806 -1.7098
16213TIP3   OH270053   4.895   1.210  13.064  0.4225  0.1425 -0.2983
16213TIP3    H170054   4.908   1.299  13.032 -0.6216  0.1899 -0.6475
16213TIP3    H270055   4.824   1.175  13.010 -0.8493 -0.0676  1.4188
16214TIP3   OH270056   2.861   3.319  15.944  0.0651 -0.1633 -0.6382
16214TIP3    H170057   2.956   3.333  15.940 -0.0687  0.8883 -0.5603
16214TIP3    H270058   2.841   3.266  15.867  0.8672 -1.3987 -0.0223
16215TIP3   OH270059   3.796   0.485   0.193  0.2708 -0.1768  0.0654
16215TIP3    H170060   3.770   0.514   0.280 -0.4894 -2.3185  0.6151
16215TIP3    H270061   3.713   0.473   0.146  0.6049 -0.3685 -0.4831
16216TIP3   OH270062   2.345   1.774   4.868 -0.4282  0.6229  0.3103
16216TIP3    H170063   2.375   1.833   4.799 -0.7940  3.1256  2.1333
16216TIP3    H270064   2.250   1.768   4.855 -0.5516  1.4029  0.7607
16217TIP3   OH270065   0.242   6.102   5.527  0.0723 -0.4794  0.5833
16217TIP3    H170066   0.277   6.056   5.604  1.6877  1.6461  1.2411
16217TIP3    H270067   0.167   6.151   5.561  1.3850  1.2592  1.1515
16218TIP3   OH270068   0.983   4.945  16.720  0.2981  0.3895  0.0109
16218TIP3    H170069   1.013   4.875  16.662 -0.3522  1.0674 -1.1618
16218TIP3    H270070   0.916   4.903  16.774 -0.1999  0.1280 -0.7900
16219TIP3   OH270071   6.216   2.062   4.997 -0.1916  0.2581  0.1004
16219TIP3    H170072   6.223   2.154   4.974 -0.2569  0.2650  0.1081
16219TIP3    H270073   6.185   2.062   5.088  0.4114  0.2352  0.3096
16220TIP3   OH270074   1.173   0.975   0.707 -0.1997 -0.0429 -0.4813
16220TIP3    H170075   1.242   0.924   0.751 -1.9602 -0.4898  1.9368
16220TIP3    H270076   1.140   0.916   0.639 -0.1715 -0.9825  0.2899
16221TIP3   OH270077   5.783   0.831   2.837  0.0239 -0.4116 -0.1001
16221TIP3    H170078   5.857   0.817   2.778 -0.7511 -1.4623 -0.8449
16221TIP3    H270079   5.747   0.744   2.852 -1.0182  0.0748  0.3224
16222TIP3   OH270080   5.906   3.396  10.488 -0.2306 -0.0731 -0.3232
16222TIP3    H170081   5.992   3.360  10.470  0.7309  1.2438  1.3426
16222TIP3    H270082   5.890   3.378  10.581 -0.0384  2.8670  0.3962
16223TIP3   OH270083   1.366   5.340   6.049 -0.2781  0.3135  0.1084
16223TIP3    H170084   1.362   5.431   6.078  0.2101  0.7659 -1.1832
16223TIP3    H270085   1.325   5.341   5.963 -0.6242 -0.7784  0.2457
16224TIP3   OH270086   3.672   3.865   3.197 -0.2928 -0.0450 -0.3215
16224TIP3    H170087   3.749   3.895   3.246  0.2744 -0.9135 -0.6743
16224TIP3    H270088   3.602   3.925   3.224  0.3064  0.2494  0.6190
16225TIP3   OH270089   0.133   5.905  14.120  0.4664 -0.2064 -0.7553
16225TIP3    H170090   0.145   5.999  14.108  0.6498 -0.4155 -2.4522
16225TIP3    H270091   0.171   5.866  14.041  2.0728 -1.8311  0.7241
16226TIP3   OH270092   2.259   1.506   3.025 -0.4867 -0.5352  0.0860
16226TIP3    H170093   2.352   1.504   3.046 -0.0099 -1.3267 -1.9368
16226TIP3    H270094   2.241   1.598   3.004 -0.6205 -0.0307  2.1362
16227TIP3   OH270095   3.298   3.098   5.685  0.0215 -0.6813  0.3103
16227TIP3    H170096   3.353   3.153   5.741 -1.5087  0.3694  0.8707
16227TIP3    H270097   3.304   3.011   5.723  0.5354 -0.3803  0.9312
16228TIP3   OH270098   4.820   1.935  14.043 -0.2731 -0.0655  0.1821
16228TIP3    H170099   4.849   1.922  14.134  2.7439 -2.7156 -0.9627
16228TIP3    H270100   4.882   1.998  14.007 -0.2876 -0.4322 -0.4967
16229TIP3   OH270101   0.462   4.467  15.792  0.4582  0.1982  0.2264
16229TIP3    H170102   0.503   4.484  15.707  0.4659 -0.7057  0.0403
16229TIP3    H270103   0.503   4.386  15.823  0.8354  0.7863  1.3413
16230TIP3   OH270104   6.740   3.288   5.109  0.0528 -0.0256  0.4312
16230TIP3    H170105   6.716   3.284   5.017  0.3771  0.2212  0.3344
16230TIP3    H270106   6.826   3.330   5.110  1.1130 -2.0718  0.6697
16231TIP3   OH270107   1.230   0.785  16.482  0.1093  0.2399  0.5898
16231TIP3    H170108   1.159   0.771  16.544 -0.9033  2.1376 -0.0638
16231TIP3    H270109   1.252   0.697  16.450  0.5769 -0.8030  3.4425
16232TIP3   OH270110   3.038   5.115  14.765  0.2633 -0.7202  0.5629
16232TIP3    H170111   3.102   5.060  14.719 -0.0057 -0.0384 -0.6668
16232TIP3    H270112   3.086   5.194  14.788 -0.5055  0.5949 -1.9770
16233TIP3   OH270113   4.254   4.365  13.600  0.0952 -0.4636 -0.8771
16233TIP3    H170114   4.216   4.282  13.571  0.6707 -0.9811 -0.1930
16233TIP3    H270115   4.248   4.362  13.695 -1.2749  0.9692 -0.8924
16234TIP3   OH270116   0.253   1.782  15.098 -0.4010 -0.8453  0.2333
16234TIP3    H170117   0.226   1.695  15.067  0.7096 -1.3008  0.4768
16234TIP3    H270118   0.312   1.813  15.030 -2.2913  0.6053 -0.8364
16235TIP3   OH270119   5.581   6.702  16.577 -0.2285  0.3150  0.4987
16235TIP3    H170120   5.638   6.761  16.528 -1.5747  1.0731 -0.2147
16235TIP3    H270121   5.500   6.752  16.589 -0.8389 -0.8196  1.2502
16236TIP3   OH270122   5.941   1.359   0.113  0.0967  0.1319 -0.0681
16236TIP3    H170123   5.962   1.405   0.032  2.4740 -1.1443 -0.2806
16236TIP3    H270124   6.001   1.398   0.177  2.9416 -3.1162 -0.4724
16237TIP3   OH270125   4.559   2.176   4.647  0.2196  0.1057  0.1980
16237TIP3    H170126   4.558   2.126   4.565  1.6196  1.7311 -0.8634
16237TIP3    H270127   4.468   2.171   4.678  0.0292 -1.9507 -0.5301
16238TIP3   OH270128   5.668   4.857  14.405 -0.4172 -0.6837 -0.1742
16238TIP3    H170129   5.679   4.808  14.323  2.0161 -0.8494  0.1902
16238TIP3    H270130   5.694   4.796  14.474 -3.2640 -0.8406  0.9035
16239TIP3   OH270131   6.604   1.165  13.120 -0.1504 -0.1598  0.1257
16239TIP3    H170132   6.530   1.178  13.060  0.4323 -0.5026 -0.6883
16239TIP3    H270133   6.592   1.077  13.155 -0.6830  0.1705  0.8036
16240TIP3   OH270134   1.626   3.848  16.897 -0.0148 -0.3295  0.0923
16240TIP3    H170135   1.681   3.787  16.945  2.3802  0.6247 -1.2409
16240TIP3    H270136   1.600   3.800  16.818  0.2705 -0.2385 -0.0549
16241TIP3   OH270137   4.524   5.274  17.138  0.0741  0.1107  0.3389
16241TIP3    H170138   4.493   5.229  17.059 -0.6137  0.1628  0.5656
16241TIP3    H270139   4.523   5.367  17.115 -3.3308  0.4721  1.3732
16242TIP3   OH270140   3.326   2.150  11.779  0.1609 -0.2823  0.6201
16242TIP3    H170141   3.366   2.066  11.803  0.2274 -0.2760  0.5331
16242TIP3    H270142   3.233   2.139  11.797  0.2936 -0.0646  1.4823
16243TIP3   OH270143   5.015   1.897   0.107 -0.0687 -0.5218  0.3365
16243TIP3    H170144   4.946   1.883   0.172  0.1387  1.0161  0.9397
16243TIP3    H270145   5.014   1.991   0.091  0.2872 -0.7874 -1.4826
16244TIP3   OH270146   4.174   5.541  11.743 -0.2986  0.5441 -0.1253
16244TIP3    H170147   4.235   5.494  11.799 -2.7407 -0.7383  1.6500
16244TIP3    H270148   4.210   5.532  11.655  1.6678 -0.7130  0.7497
16245TIP3   OH270149   5.489   4.319  15.082  0.5477 -0.0765 -0.2847
16245TIP3    H170150   5.420   4.260  15.113 -0.0686  0.3855 -0.7504
16245TIP3    H270151   5.489   4.390  15.146  0.2417  0.1743 -0.5609
16246TIP3   OH270152   3.235   1.548  14.011  0.2511  0.1384 -0.2252
16246TIP3    H170153   3.227   1.501  13.927 -0.9735  0.2494 -0.1864
16246TIP3    H270154   3.329   1.564  14.020  0.3444  0.8881 -2.0070
16247TIP3   OH270155   6.036   1.963   1.028  0.8608  0.2543  0.0444
16247TIP3    H170156   6.003   1.966   1.118  0.8707  1.1012  0.0189
16247TIP3    H270157   5.964   1.994   0.974  1.4588  1.5171 -0.0659
16248TIP3   OH270158   5.350   5.133  17.081  0.1189  0.0846  0.0932
16248TIP3    H170159   5.324   5.042  17.062  0.8820 -0.4602  1.5371
16248TIP3    H270160   5.319   5.148  17.170 -1.0288  1.6693 -0.5360
16249TIP3   OH270161   4.299   5.932  11.850 -0.3375 -0.2721  0.2611
16249TIP3    H170162   4.377   5.971  11.810 -1.0187 -0.6893 -1.6184
16249TIP3    H270163   4.328   5.845  11.879  0.1295 -0.0403  0.4989
16250TIP3   OH270164   0.187   5.968   5.179  0.0707 -0.3606  0.3725
16250TIP3    H170165   0.131   5.980   5.102 -0.4442 -0.6660  0.6873
16250TIP3    H270166   0.245   6.044   5.179 -0.8326  0.3530  0.4393
16251TIP3   OH270167   3.677   5.583   1.044 -0.2539 -0.2917 -0.2723
16251TIP3    H170168   3.628   5.606   1.123  2.2170 -0.6159  1.4558
16251TIP3    H270169   3.702   5.668   1.006  1.3451 -0.0834  1.1723
16252TIP3   OH270170   0.742   0.820  12.070 -0.6725  0.3421 -0.8035
16252TIP3    H170171   0.650   0.844  12.082 -0.8945 -0.3109 -1.1407
16252TIP3    H270172   0.773   0.880  12.003  0.4613  3.7400  2.3814
16253TIP3   OH270173   1.168   3.711   2.991  0.3845 -0.0987  0.0908
16253TIP3    H170174   1.263   3.706   2.979  0.4410  1.2267 -0.1951
16253TIP3    H270175   1.135   3.731   2.903  0.0339  1.3565  0.5265
16254TIP3   OH270176   4.367   0.195  12.365 -0.2306  0.1985  0.4992
16254TIP3    H170177   4.430   0.129  12.392 -0.8489 -0.8728 -0.5770
16254TIP3    H270178   4.383   0.207  12.272 -1.7597 -0.2940  0.1443
16255TIP3   OH270179   4.887   0.416   2.745  0.0941  0.4080  0.3553
16255TIP3    H170180   4.808   0.451   2.787 -0.4180 -1.0887  0.6963
16255TIP3    H270181   4.857   0.387   2.659  0.2980 -0.0553  0.4386
16256TIP3   OH270182   0.042   2.154  14.213 -0.4586  0.7132 -0.1594
16256TIP3    H170183   0.008   2.241  14.232 -0.9154  0.8775 -1.6057
16256TIP3    H270184  -0.011   2.095  14.266 -0.1155  1.2882  0.8684
16257TIP3   OH270185   3.049   4.186  16.738  0.2918  0.6299 -0.0456
16257TIP3    H170186   3.120   4.247  16.717 -0.2743  1.0368 -0.8627
16257TIP3    H270187   2.993   4.189  16.661 -1.3746  1.4188  1.1374
16258TIP3   OH270188   3.734   5.788  15.820  0.4124 -0.1138  0.2815
16258TIP3    H170189   3.729   5.877  15.787  0.6936 -0.9591 -2.2341
16258TIP3    H270190   3.646   5.771  15.855  0.3520  1.1083  0.7785
16259TIP3   OH270191   3.374   5.668  12.516  0.2686 -0.6055 -0.2013
16259TIP3    H170192   3.338   5.630  12.436  0.9180 -0.0521 -0.7680
16259TIP3    H270193   3.465   5.639  12.517  0.4874  0.0716 -0.0994
16260TIP3   OH270194   5.033   0.030   5.387 -0.2413  0.0971  0.3113
16260TIP3    H170195   5.032  -0.045   5.447 -0.1394 -1.7518 -1.8648
16260TIP3    H270196   5.116   0.021   5.340  0.2376  2.2043  0.6618
16261TIP3   OH270197   1.698   0.838   3.108 -0.7537 -0.2717 -0.4850
16261TIP3    H170198   1.646   0.912   3.141  0.5428 -0.0450  1.1545
16261TIP3    H270199   1.634   0.783   3.063 -1.9969  1.1427 -0.5507
16262TIP3   OH270200   1.412   5.482   2.199  0.4220 -0.2728  0.0297
16262TIP3    H170201   1.335   5.454   2.248 -0.6207  1.1744 -0.6955
16262TIP3    H270202   1.463   5.534   2.261  0.0417  0.0166  0.1024
16263TIP3   OH270203   4.523   2.750  15.290  0.5942  0.0394 -0.2897
16263TIP3    H170204   4.480   2.796  15.362 -0.9273 -1.6365 -0.0665
16263TIP3    H270205   4.576   2.683  15.333  0.1565 -0.5780 -0.6887
16264TIP3   OH270206   1.861   2.017  12.284  0.2181  0.0135  0.5162
16264TIP3    H170207   1.929   1.985  12.226 -0.6443 -0.0900 -0.4673
16264TIP3    H270208   1.907   2.071  12.348  1.1210  0.7621 -0.7194
16265TIP3   OH270209   1.121   2.603  11.603  0.0394 -0.2150 -0.1139
16265TIP3    H170210   1.042   2.565  11.566  0.0798 -1.7601  1.2974
16265TIP3    H270211   1.191   2.543  11.577  0.5032  0.2514  0.0315
16266TIP3   OH270212   0.416   1.960   4.032 -0.0054  1.1617  0.8028
16266TIP3    H170213   0.375   1.911   3.961  0.4884  0.1572  1.1887
16266TIP3    H270214   0.381   2.049   4.023  0.0457  1.0600 -0.6814
16267TIP3   OH270215   3.492   0.910  12.797  0.4359  0.3829 -0.0814
16267TIP3    H170216   3.412   0.899  12.746 -0.6414 -0.5900  1.7527
16267TIP3    H270217   3.463   0.944  12.881  1.8746 -0.5888  0.8505
16268TIP3   OH270218   4.651   4.904  13.641 -0.2146 -0.1695 -0.6307
16268TIP3    H170219   4.629   4.996  13.656  0.6592  0.0808 -0.8029
16268TIP3    H270220   4.625   4.888  13.550  0.9002  0.3218 -1.0598
16269TIP3   OH270221   6.337   1.042   1.902 -0.8373  0.0939  0.4893
16269TIP3    H170222   6.357   1.094   1.825 -1.5558 -0.2346  0.0781
16269TIP3    H270223   6.363   0.953   1.878  0.8425  0.2975  1.3541
16270TIP3   OH270224   5.573   6.417  14.782 -0.2076 -0.0456  0.3663
16270TIP3    H170225   5.576   6.438  14.689 -1.3402 -0.9967  0.0932
16270TIP3    H270226   5.658   6.377  14.801 -0.5186 -1.2528 -0.6350
16271TIP3   OH270227   4.499   3.996  17.063 -0.1467  0.0845 -0.1538
16271TIP3    H170228   4.584   4.005  17.105 -0.6754  0.9429  0.7972
16271TIP3    H270229   4.439   3.977  17.135 -0.9639  0.8751 -0.6072
16272TIP3   OH270230   0.028   1.709   1.184  0.6124  0.1964 -0.0324
16272TIP3    H170231   0.107   1.655   1.194 -0.1191 -0.7731  0.6380
16272TIP3    H270232   0.046   1.788   1.235  0.9310 -0.2647  0.5748
16273TIP3   OH270233   2.872   2.579  12.597 -0.2323  0.0625 -0.1638
16273TIP3    H170234   2.840   2.636  12.667 -0.6137  0.6453 -0.8028
16273TIP3    H270235   2.796   2.528  12.571  0.0686 -0.6272  0.2876
16274TIP3   OH270236   4.065   2.376   4.753 -0.2050 -0.2216  0.1126
16274TIP3    H170237   4.022   2.291   4.756 -0.8620  0.0746 -0.5546
16274TIP3    H270238   4.139   2.364   4.694 -2.0288  0.3891 -2.4428
16275TIP3   OH270239   6.200   0.396   5.125  0.0660 -0.1601  0.1880
16275TIP3    H170240   6.133   0.345   5.079 -0.3274 -0.2342  0.8418
16275TIP3    H270241   6.175   0.392   5.217 -0.4503  1.9169  0.1836
16276TIP3   OH270242   3.964   1.780  14.463  0.0083  0.0514 -0.2457
16276TIP3    H170243   4.023   1.809  14.393  0.8921 -1.9362 -0.3966
16276TIP3    H270244   3.950   1.858  14.516  2.0750  0.8204 -0.7306
16277TIP3   OH270245   6.264   0.205  14.924  0.7632  0.5976  0.3897
16277TIP3    H170246   6.172   0.228  14.919  0.1870 -1.2800  1.1315
16277TIP3    H270247   6.288   0.220  15.016 -0.2188 -3.3188  1.4761
16278TIP3   OH270248   5.479   5.167  10.878 -0.1685  0.2798 -0.0272
16278TIP3    H170249   5.471   5.254  10.840 -2.0970  0.7329  1.2583
16278TIP3    H270250   5.472   5.107  10.803  0.0001  1.2045 -0.7929
16279TIP3   OH270251   3.558   5.189   2.282  0.0593 -0.1564 -0.5123
16279TIP3    H170252   3.606   5.232   2.211 -0.1725 -1.9099 -1.7915
16279TIP3    H270253   3.502   5.258   2.318  1.7699  1.3339 -0.5362
16280TIP3   OH270254   3.337   3.929  11.244  0.1059  0.1514  0.0062
16280TIP3    H170255   3.364   3.937  11.153 -2.2502  1.4249 -0.6667
16280TIP3    H270256   3.332   3.835  11.260  0.6372 -0.0824 -1.1356
16281TIP3   OH270257   1.620   0.819  14.423  0.0896  0.0995  0.0740
16281TIP3    H170258   1.581   0.903  14.399 -1.0903 -0.1064  1.1774
16281TIP3    H270259   1.585   0.756  14.359  1.6973  0.5548 -1.3364
16282TIP3   OH270260   4.986   6.612  16.155 -0.0285  0.4219 -0.6595
16282TIP3    H170261   5.052   6.680  16.169 -0.1006  0.0099  2.3496
16282TIP3    H270262   4.903   6.657  16.164 -0.1417  0.4686 -1.8275
16283TIP3   OH270263   4.214   6.621   1.299  0.3387  0.0702 -0.2254
16283TIP3    H170264   4.231   6.662   1.214  2.2681  2.0862  1.0485
16283TIP3    H270265   4.214   6.693   1.362 -0.2369 -1.4530  1.6141
16284TIP3   OH270266   5.231   1.903  16.435  0.3386 -0.1311  0.1163
16284TIP3    H170267   5.171   1.977  16.443  1.4595  0.8070  0.1140
16284TIP3    H270268   5.190   1.833  16.485 -0.2413  0.8212  1.0099
16285TIP3   OH270269   2.581   0.148  14.008  0.0308  0.2102 -0.0726
16285TIP3    H170270   2.550   0.064  14.041 -1.6769  1.2441  1.1052
16285TIP3    H270271   2.593   0.134  13.914  0.4227 -1.5004  0.1971
16286TIP3   OH270272   6.760   4.872   5.415 -0.0311 -0.0332 -0.6063
16286TIP3    H170273   6.792   4.957   5.445 -1.0434 -0.0107  0.4778
16286TIP3    H270274   6.806   4.808   5.469 -1.1126 -0.0410  0.3315
16287TIP3   OH270275   0.416   1.292   1.901 -0.1872  0.4800 -0.4964
16287TIP3    H170276   0.506   1.268   1.879 -0.3655  0.3273 -1.0654
16287TIP3    H270277   0.419   1.387   1.914  0.5738  0.1731  2.0241
16288TIP3   OH270278   2.776   4.096  13.643 -0.0797 -0.0640  0.1998
16288TIP3    H170279   2.759   4.176  13.694  1.2891  0.9905 -0.9308
16288TIP3    H270280   2.711   4.097  13.573 -1.2928 -0.9762  1.2649
16289TIP3   OH270281   3.707   3.447  16.483 -0.1701  0.1821  0.1427
16289TIP3    H170282   3.703   3.507  16.408 -3.1479 -0.2489 -0.1700
16289TIP3    H270283   3.760   3.374  16.452 -2.1310 -0.4620 -2.0177
16290TIP3   OH270284   5.181   2.186  15.749 -0.3385 -0.5773  0.5872
16290TIP3    H170285   5.178   2.189  15.654  1.2496 -0.0057  0.5157
16290TIP3    H270286   5.126   2.259  15.778 -2.3562 -1.8632  0.2094
16291TIP3   OH270287   5.864   0.390   3.960  0.0103  0.0402 -0.0061
16291TIP3    H170288   5.866   0.356   3.870  0.6591 -0.7924  0.3042
16291TIP3    H270289   5.869   0.485   3.950 -1.7178  0.0779 -0.9052
16292TIP3   OH270290   3.152   6.260  11.166  0.0446 -0.7652 -0.3088
16292TIP3    H170291   3.164   6.346  11.126 -1.6541 -0.1794  0.3570
16292TIP3    H270292   3.083   6.219  11.113 -0.7372 -0.8044  0.7152
16293TIP3   OH270293   4.025   3.202  13.107  0.0445 -0.0897 -0.5225
16293TIP3    H170294   4.117   3.176  13.098  1.3871  3.6657  0.3300
16293TIP3    H270295   3.982   3.169  13.028  2.0301 -2.1464 -0.8368
16294TIP3   OH270296   5.866   5.033   5.418  0.1329 -0.2082 -0.0516
16294TIP3    H170297   5.842   5.061   5.507  1.0112 -0.2154  0.1953
16294TIP3    H270298   5.885   4.939   5.427  0.4308 -0.1637 -0.1981
16295TIP3   OH270299   4.018   6.286  12.468 -0.4027  0.3138  0.3922
16295TIP3    H170300   3.983   6.230  12.399 -0.4191  0.2965  0.4147
16295TIP3    H270301   4.020   6.374  12.429  1.6844 -0.0384 -0.4335
16296TIP3   OH270302   0.659   0.525   1.699  0.1178 -0.0781 -0.3653
16296TIP3    H170303   0.568   0.551   1.714  0.0658 -0.5135  0.0744
16296TIP3    H270304   0.710   0.580   1.759 -0.0669 -1.6143  1.2620
16297TIP3   OH270305   2.244   5.440  13.180  0.3921 -0.6666  0.1740
16297TIP3    H170306   2.268   5.532  13.168  1.7981 -1.0684 -0.2805
16297TIP3    H270307   2.246   5.403  13.092 -0.6723 -1.0324  0.2883
16298TIP3   OH270308   0.988   3.711  16.449  0.1903  0.1895  0.1224
16298TIP3    H170309   1.056   3.748  16.393 -0.5890  1.3112 -0.1230
16298TIP3    H270310   0.993   3.763  16.530  0.4333 -0.5400  0.5829
16299TIP3   OH270311   0.861   4.369  13.437 -0.4235  0.0769  0.0497
16299TIP3    H170312   0.879   4.347  13.529 -2.9901 -1.1494  0.3420
16299TIP3    H270313   0.870   4.286  13.391  2.3501  0.9530 -1.1724
16300TIP3   OH270314   4.992   4.480   1.965  0.1785  0.4153  0.2105
16300TIP3    H170315   4.924   4.519   2.020 -0.7696  0.5325 -0.9989
16300TIP3    H270316   5.036   4.418   2.022 -2.1931 -1.0806  0.5626
16301TIP3   OH270317   0.230   3.568   5.718  0.0198 -0.4848 -0.7427
16301TIP3    H170318   0.184   3.611   5.790 -0.6428 -1.0257 -0.8338
16301TIP3    H270319   0.228   3.631   5.646  2.3874  0.8780  0.2619
16302TIP3   OH270320   1.685   3.616   2.179 -0.0548 -0.0056 -0.1304
16302TIP3    H170321   1.746   3.645   2.110  2.1803 -0.1589  1.6563
16302TIP3    H270322   1.688   3.520   2.174 -1.1865 -0.0278 -0.8289
16303TIP3   OH270323   5.453   1.498   5.107 -0.2639 -0.0726 -0.2110
16303TIP3    H170324   5.422   1.557   5.039  0.7883  1.8183  0.8694
16303TIP3    H270325   5.413   1.529   5.187 -1.6186 -2.3714  0.0998
16304TIP3   OH270326   3.442   2.987   2.839 -0.0278 -0.2899 -0.1003
16304TIP3    H170327   3.486   2.927   2.900  1.3226  0.4954 -0.2609
16304TIP3    H270328   3.464   3.074   2.871  3.0016  0.2434 -3.1054
16305TIP3   OH270329   5.720   5.836   0.558 -0.9465  0.0490 -0.0348
16305TIP3    H170330   5.724   5.844   0.462 -1.1362  2.2339  0.0977
16305TIP3    H270331   5.811   5.831   0.586 -0.7733  1.6083 -0.2219
16306TIP3   OH270332   5.626   2.246   1.585 -0.0203  0.0374  0.2679
16306TIP3    H170333   5.659   2.229   1.673 -0.8759  0.2211  0.6354
16306TIP3    H270334   5.667   2.329   1.560  0.6846 -0.3097  0.2507
16307TIP3   OH270335   3.474   3.208   2.599 -0.1247 -0.6413  0.1852
16307TIP3    H170336   3.532   3.136   2.574  0.1134 -0.8547  1.2852
16307TIP3    H270337   3.532   3.283   2.607 -0.3994 -0.2686 -1.1273
16308TIP3   OH270338   3.137   5.823   4.251  0.0801 -0.3228 -0.0483
16308TIP3    H170339   3.229   5.824   4.279 -0.2772 -0.3213  1.2223
16308TIP3    H270340   3.125   5.908   4.209  0.6474 -0.2908 -0.1599
16309TIP3   OH270341   3.549   6.708   4.309  0.0836  0.3797 -0.2460
16309TIP3    H170342   3.557   6.761   4.230 -1.2760  0.4064 -0.3800
16309TIP3    H270343   3.467   6.735   4.350 -0.2529 -1.0412  0.1028
16310TIP3   OH270344   1.815   5.962   3.954 -0.9050  0.2017  0.3212
16310TIP3    H170345   1.858   6.004   3.879 -1.3960  0.1521  0.0110
16310TIP3    H270346   1.846   5.871   3.951  0.9582  0.7283  1.5781
16311TIP3   OH270347   6.675   1.110  13.923  0.0095 -0.2404 -0.2385
16311TIP3    H170348   6.721   1.043  13.873 -0.3196  0.0701 -0.9671
16311TIP3    H270349   6.684   1.190  13.871  1.3248  0.5625  1.1308
16312TIP3   OH270350   4.904   0.496  13.039  0.2845  0.1596  0.4484
16312TIP3    H170351   4.871   0.579  13.072  0.6560  1.3007 -1.8533
16312TIP3    H270352   4.981   0.520  12.986 -0.7965 -1.3530 -1.9917
16313TIP3   OH270353   0.732   0.224  13.075 -0.2762  0.2044 -0.2905
16313TIP3    H170354   0.689   0.156  13.128 -0.8610  0.5079 -0.3651
16313TIP3    H270355   0.783   0.275  13.138 -1.3162  0.8352  0.0671
16314TIP3   OH270356   5.631   6.469  16.677  0.6161  0.2474 -0.3569
16314TIP3    H170357   5.599   6.543  16.626 -0.1674 -0.0265 -0.2786
16314TIP3    H270358   5.724   6.485  16.688  0.6786  0.6227 -1.3497
16315TIP3   OH270359   6.123   3.418  13.656 -0.6342 -0.7886  0.2455
16315TIP3    H170360   6.210   3.438  13.621 -1.3273  0.0049 -1.0818
16315TIP3    H270361   6.121   3.461  13.742  0.0717 -0.2997  0.0261
16316TIP3   OH270362   5.193   1.899   2.235  0.4018  0.6744  0.1331
16316TIP3    H170363   5.165   1.841   2.305  1.2909  0.5207  0.3628
16316TIP3    H270364   5.281   1.871   2.213 -0.1077  0.2516 -1.5488
16317TIP3   OH270365   2.091   5.000  14.543  0.1548 -0.0887  0.1055
16317TIP3    H170366   2.050   4.918  14.569 -0.0850  0.3245  1.0762
16317TIP3    H270367   2.104   4.992  14.449 -1.6585 -0.4546 -0.1445
16318TIP3   OH270368   0.326   4.363   0.856  0.2899 -0.4836 -0.1484
16318TIP3    H170369   0.257   4.303   0.827 -1.3124  0.6027  1.2398
16318TIP3    H270370   0.310   4.444   0.806 -0.1119  0.1096  0.9004
16319TIP3   OH270371   1.808   6.772   5.024  0.1522 -0.4524  0.2914
16319TIP3    H170372   1.734   6.790   5.081  1.4200 -1.1062  2.2167
16319TIP3    H270373   1.814   6.676   5.021  2.5234 -0.4702  2.4512
16320TIP3   OH270374   6.012   2.319   4.011 -0.0221  0.6345 -0.2038
16320TIP3    H170375   5.991   2.252   4.076  3.4660 -1.3775 -0.9103
16320TIP3    H270376   6.015   2.401   4.061 -0.3289 -0.3760  1.5527
16321TIP3   OH270377   6.337   3.174  11.291 -0.4774  0.4568 -0.6794
16321TIP3    H170378   6.417   3.159  11.240  0.9708 -0.1494  1.6296
16321TIP3    H270379   6.348   3.262  11.327 -0.8354  0.3571 -0.3269
16322TIP3   OH270380   0.935   0.074  14.323 -0.4013 -0.1004  0.6115
16322TIP3    H170381   0.909   0.138  14.390  0.4118  0.7026  0.1884
16322TIP3    H270382   1.031   0.073  14.328 -0.3780 -0.7340  0.0937
16323TIP3   OH270383   1.826   0.963   4.173  0.9511  0.3407  0.3539
16323TIP3    H170384   1.817   0.996   4.263  0.6093 -2.2355  1.3563
16323TIP3    H270385   1.752   0.904   4.162  1.6498 -0.2972 -1.1995
16324TIP3   OH270386   2.450   6.675   2.487 -0.0905  0.2812 -0.1174
16324TIP3    H170387   2.483   6.628   2.411  1.4928  0.3227  0.5197
16324TIP3    H270388   2.449   6.767   2.461  1.6510  0.4411  0.3021
16325TIP3   OH270389   5.039   5.730   1.202  0.1905 -0.1486 -0.1422
16325TIP3    H170390   5.126   5.704   1.173  0.3511 -0.2933  0.4592
16325TIP3    H270391   5.055   5.795   1.270 -0.1772  0.0493 -0.2425
16326TIP3   OH270392   2.266   5.429   5.770  0.2497  0.0742  0.0016
16326TIP3    H170393   2.188   5.389   5.810  0.8922  0.6628  1.9554
16326TIP3    H270394   2.334   5.422   5.838  0.5761  3.8862  0.2972
16327TIP3   OH270395   6.226   1.908  13.379  0.3789 -0.1826 -0.6549
16327TIP3    H170396   6.189   1.842  13.438  0.0455  0.9459  0.4674
16327TIP3    H270397   6.271   1.969  13.438  0.9785  0.3917 -1.6871
16328TIP3   OH270398   5.065   4.007   2.102  0.5065 -0.0161  0.1998
16328TIP3    H170399   4.991   4.050   2.058 -0.4747 -0.2636  1.5476
16328TIP3    H270400   5.106   3.954   2.033  1.8152  3.0148 -1.5452
16329TIP3   OH270401   0.219   1.465  14.219 -0.3191  0.2315  0.5224
16329TIP3    H170402   0.208   1.494  14.128  1.7712 -0.7421 -0.0999
16329TIP3    H270403   0.258   1.540  14.263  0.2387  0.1394  0.1925
16330TIP3   OH270404   6.307   6.015   4.979  0.2081 -0.2519 -0.3709
16330TIP3    H170405   6.380   5.972   5.022  1.6984  1.5716 -0.9445
16330TIP3    H270406   6.339   6.103   4.958 -2.2985  0.8009 -0.2343
16331TIP3   OH270407   5.529   6.331  15.352 -0.6398  0.1971  0.3070
16331TIP3    H170408   5.497   6.404  15.405  1.1579  0.4708  1.1050
16331TIP3    H270409   5.504   6.354  15.262 -0.1021  1.8176  0.5416
16332TIP3   OH270410   6.117   1.735  11.898  0.5639  0.3343 -0.1289
16332TIP3    H170411   6.172   1.700  11.828 -1.1308 -1.7502 -0.5241
16332TIP3    H270412   6.077   1.658  11.937 -0.8545  1.6701  1.1684
16333TIP3   OH270413   6.096   1.617  12.382 -0.2044  0.3138  0.1231
16333TIP3    H170414   6.013   1.578  12.354 -0.1014  0.1741  0.0062
16333TIP3    H270415   6.125   1.562  12.455 -1.0344  1.3577  1.2670
16334TIP3   OH270416   6.586   4.365  13.193 -0.7490  0.1343  0.0296
16334TIP3    H170417   6.616   4.276  13.214 -0.7281 -0.1499 -1.1649
16334TIP3    H270418   6.518   4.352  13.127  0.2736  1.0738 -1.2640
16335TIP3   OH270419   6.111   6.338  12.852  0.3035 -0.6259 -0.3833
16335TIP3    H170420   6.175   6.273  12.822  0.5413  0.2583 -1.8371
16335TIP3    H270421   6.029   6.311  12.812  0.1656 -0.6600 -0.0795
16336TIP3   OH270422   6.329   3.352   0.782  0.1374 -0.2178  0.7313
16336TIP3    H170423   6.251   3.406   0.791  0.4334  0.7268 -1.5422
16336TIP3    H270424   6.399   3.402   0.825  0.3086  1.0617 -0.9284
16337TIP3   OH270425   5.599   5.138  14.370 -0.4060  0.6456 -0.0459
16337TIP3    H170426   5.644   5.187  14.439  0.5846  1.3051 -1.1025
16337TIP3    H270427   5.624   5.047  14.385 -0.2550  0.7716  0.5042
16338TIP3   OH270428   6.149   3.788   3.048  0.1217 -0.0018 -0.3465
16338TIP3    H170429   6.198   3.857   3.094 -0.1997  0.0975 -0.1500
16338TIP3    H270430   6.074   3.771   3.104 -1.0827  1.1633 -1.5456
16339TIP3   OH270431   1.322   2.142  14.257 -0.0242  0.8530  0.4145
16339TIP3    H170432   1.416   2.142  14.238 -0.4445 -0.1027 -1.9945
16339TIP3    H270433   1.315   2.100  14.342  1.7646  1.5781  0.9718
16340TIP3   OH270434   0.514   4.442   5.308  0.1609 -0.5995 -0.3755
16340TIP3    H170435   0.444   4.420   5.370 -0.4077  1.2937 -0.3072
16340TIP3    H270436   0.590   4.461   5.364 -0.0322  0.0004 -0.3192
16341TIP3   OH270437   4.360   2.073   0.576 -0.0937 -0.5520 -0.2810
16341TIP3    H170438   4.385   2.000   0.633 -1.3999  0.1098  1.2067
16341TIP3    H270439   4.367   2.150   0.632 -0.5625  0.2362 -1.2816
16342TIP3   OH270440   6.573   6.267   4.463 -0.4963 -0.1494 -0.2730
16342TIP3    H170441   6.611   6.294   4.546  0.5012 -0.0320 -0.7452
16342TIP3    H270442   6.633   6.200   4.430  0.0698  1.0008 -1.6795
16343TIP3   OH270443   0.038   3.354   4.309  0.5078 -0.2034  0.0541
16343TIP3    H170444   0.117   3.401   4.284 -0.4190  0.7320 -1.2521
16343TIP3    H270445   0.060   3.262   4.296  1.3305  0.0539 -0.4580
16344TIP3   OH270446   6.413   6.400   5.769 -0.5754 -0.2463 -0.2851
16344TIP3    H170447   6.467   6.433   5.841 -1.2627  1.3704 -0.4767
16344TIP3    H270448   6.325   6.392   5.806 -0.0899 -4.2313  0.4407
16345TIP3   OH270449   4.754   1.162   2.735 -0.3368  0.4493 -0.2418
16345TIP3    H170450   4.709   1.103   2.675  1.2943 -2.1811  0.9195
16345TIP3    H270451   4.735   1.126   2.822  1.2031  1.2631  0.4647
16346TIP3   OH270452   2.360   6.398   1.531 -0.1842 -0.3336  0.3791
16346TIP3    H170453   2.280   6.346   1.522 -0.3381 -0.0128 -0.1765
16346TIP3    H270454   2.393   6.377   1.619 -2.3335  1.5518  1.7486
16347TIP3   OH270455   5.918   5.080   1.729 -0.4650  0.7854  0.2907
16347TIP3    H170456   5.975   5.064   1.804 -0.3187 -0.0352  0.0136
16347TIP3    H270457   5.877   5.164   1.748  1.5918  1.9152  0.0161
16348TIP3   OH270458   1.116   5.370   2.321  0.1606  0.1476  0.4237
16348TIP3    H170459   1.084   5.378   2.412  0.4263 -0.4645  0.5721
16348TIP3    H270460   1.048   5.412   2.269 -0.9436 -1.1870  0.7339
16349TIP3   OH270461   3.454   0.571   1.706 -0.1845 -0.5684 -0.0661
16349TIP3    H170462   3.364   0.567   1.739 -0.0668 -2.4387  0.1773
16349TIP3    H270463   3.503   0.615   1.776 -0.7420 -0.4397  0.2500
16350TIP3   OH270464   1.656   1.144  12.118  0.4673 -0.6348 -0.3437
16350TIP3    H170465   1.695   1.188  12.043 -0.3789 -0.3866 -0.6405
16350TIP3    H270466   1.566   1.124  12.091  0.8513 -2.6996 -0.2953
16351TIP3   OH270467   0.257   0.186  11.619  0.1983 -0.2144  0.0471
16351TIP3    H170468   0.254   0.267  11.569  2.5545  1.0772  1.7752
16351TIP3    H270469   0.252   0.214  11.711  0.5601 -2.0493  0.6761
16352TIP3   OH270470   4.698   2.399  13.001  0.1672 -0.4691 -1.0273
16352TIP3    H170471   4.687   2.315  12.955  0.2906 -0.6626 -0.7035
16352TIP3    H270472   4.773   2.385  13.058  0.2877 -0.0818 -1.0927
16353TIP3   OH270473   1.287   2.464   5.384  0.1872 -0.1710 -0.6277
16353TIP3    H170474   1.231   2.522   5.436 -0.3201  0.5060 -1.8864
16353TIP3    H270475   1.376   2.491   5.406  0.0874 -1.4585  1.6297
16354TIP3   OH270476   3.536   5.427   1.476 -0.0960 -0.3712  1.2177
16354TIP3    H170477   3.485   5.449   1.398  1.6320  0.8965  0.3968
16354TIP3    H270478   3.479   5.450   1.550 -1.0104  0.2182  0.3401
16355TIP3   OH270479   2.437   3.970   5.479 -0.0601 -0.5558  0.1381
16355TIP3    H170480   2.516   3.993   5.429 -0.2841  0.2004  0.1279
16355TIP3    H270481   2.415   3.882   5.449 -0.3498 -0.0185 -1.3098
16356TIP3   OH270482   4.915   5.191  12.475  0.3171  0.4406  0.3558
16356TIP3    H170483   4.902   5.121  12.411 -0.6490  0.5150  0.4492
16356TIP3    H270484   5.008   5.188  12.495  0.6818  0.5412 -1.1899
16357TIP3   OH270485   0.040   3.545   4.025  0.0981  0.2709 -0.0970
16357TIP3    H170486   0.095   3.517   3.952 -0.6778 -1.2716 -0.1375
16357TIP3    H270487   0.095   3.535   4.102 -0.1113 -1.3302 -0.1281
16358TIP3   OH270488   5.001   5.724  11.190  0.4305  0.3189  0.2018
16358TIP3    H170489   4.994   5.753  11.099  1.7736 -0.9016 -0.3256
16358TIP3    H270490   4.916   5.744  11.228 -0.1919  0.7682 -1.3417
16359TIP3   OH270491   3.125   5.899   1.731 -0.3937 -0.0018  0.0569
16359TIP3    H170492   3.056   5.856   1.681 -1.2066 -1.0143  1.9403
16359TIP3    H270493   3.193   5.832   1.741  0.3580  0.6128 -0.7807
16360TIP3   OH270494   1.716   6.101   2.399 -0.0938  0.6547  1.0669
16360TIP3    H170495   1.795   6.150   2.423 -0.1091  0.9829  0.4551
16360TIP3    H270496   1.645   6.164   2.408 -0.0767  0.8433 -0.0264
16361TIP3   OH270497   1.828   0.237   0.030  0.2736 -0.5215  0.0983
16361TIP3    H170498   1.911   0.189   0.019 -0.2203 -1.6009  0.8984
16361TIP3    H270499   1.797   0.210   0.116 -1.2188 -0.6045 -0.4486
16362TIP3   OH270500   6.696   3.800   5.658 -0.1431 -0.0024  0.3993
16362TIP3    H170501   6.785   3.806   5.693 -0.1239 -1.5369  0.6756
16362TIP3    H270502   6.695   3.716   5.611 -1.0606  0.6140 -0.7172
16363TIP3   OH270503   3.296   3.932   2.616  1.0276  0.4163  0.5297
16363TIP3    H170504   3.364   3.990   2.585  0.7830  0.7953  0.6980
16363TIP3    H270505   3.323   3.845   2.585  0.1887  0.9078 -1.8327
16364TIP3   OH270506   3.463   2.181   1.782  0.5297  0.1202 -0.4658
16364TIP3    H170507   3.411   2.101   1.787 -1.2981  1.2939  0.2807
16364TIP3    H270508   3.460   2.207   1.690 -1.2325  0.7777 -0.2572
16365TIP3   OH270509   3.775   5.776  12.652 -0.0368 -0.2298 -0.0858
16365TIP3    H170510   3.823   5.858  12.639 -0.3694 -0.1161 -0.6475
16365TIP3    H270511   3.782   5.758  12.745 -0.9681  1.0737  0.2739
16366TIP3   OH270512   3.632   4.874  16.925  0.4343 -0.4621 -0.2631
16366TIP3    H170513   3.578   4.822  16.865  0.4764 -1.2780  0.3984
16366TIP3    H270514   3.583   4.956  16.936 -0.0489 -0.6954 -0.6441
16367TIP3   OH270515   0.807   2.713  13.546  0.0369 -0.8286  0.1256
16367TIP3    H170516   0.896   2.738  13.570 -0.0559 -0.3527 -0.0174
16367TIP3    H270517   0.804   2.619  13.560  0.7820 -0.9658 -0.5686
16368TIP3   OH270518   3.465   4.269  15.732  0.0252  0.0063 -0.2241
16368TIP3    H170519   3.514   4.276  15.650 -0.6855 -2.9648 -1.0200
16368TIP3    H270520   3.505   4.194  15.777 -0.0762  1.1246  1.8317
16369TIP3   OH270521   4.379   5.414  14.259 -0.1599  0.4606  0.1637
16369TIP3    H170522   4.471   5.388  14.252  0.1486  1.0397  1.5829
16369TIP3    H270523   4.372   5.494  14.207 -0.4629 -0.8554 -1.9255
16370TIP3   OH270524   5.994   3.812   0.545 -0.2328  0.0862 -0.6308
16370TIP3    H170525   6.034   3.794   0.460 -0.0517 -1.0150 -0.3288
16370TIP3    H270526   5.900   3.815   0.527 -0.1738  0.1907 -0.9271
16371TIP3   OH270527   1.266   4.419   4.890 -0.2455  0.0068 -0.4190
16371TIP3    H170528   1.188   4.449   4.843 -0.2901 -0.6463 -0.7628
16371TIP3    H270529   1.233   4.391   4.975 -0.0572  1.9621  0.3536
16372TIP3   OH270530   5.477   6.717   2.432 -0.3959  0.5420  0.0828
16372TIP3    H170531   5.545   6.675   2.485  0.1284 -2.0457 -2.4219
16372TIP3    H270532   5.519   6.733   2.348 -1.9171  2.2239 -0.4088
16373TIP3   OH270533   0.706   6.216  16.045  0.6919 -0.4272 -0.0730
16373TIP3    H170534   0.663   6.300  16.059  0.4533 -0.2135 -1.8129
16373TIP3    H270535   0.794   6.227  16.080  0.4861  0.3526  0.2120
16374TIP3   OH270536   2.837   4.228   3.124 -0.0342 -0.5032 -0.2803
16374TIP3    H170537   2.805   4.313   3.154 -0.3765 -0.3867 -0.9381
16374TIP3    H270538   2.834   4.172   3.201 -2.1617 -0.5862 -0.3557
16375TIP3   OH270539   2.433   4.294   4.739 -0.1879 -0.5676 -0.1182
16375TIP3    H170540   2.341   4.319   4.747 -0.4821 -0.8692 -1.9764
16375TIP3    H270541   2.478   4.342   4.809 -1.2737  2.1971 -1.1651
16376TIP3   OH270542   2.817   0.342   5.920 -0.4077  0.7599  0.4043
16376TIP3    H170543   2.839   0.307   5.833 -0.8492  0.3450  0.4531
16376TIP3    H270544   2.886   0.309   5.977 -2.2754 -2.5142  1.0225
16377TIP3   OH270545   6.093   5.078  11.416  0.2486 -0.0576  0.5341
16377TIP3    H170546   6.083   5.046  11.505 -2.7560  1.3546  0.8230
16377TIP3    H270547   6.056   5.166  11.417 -1.1937 -0.5017 -2.3413
16378TIP3   OH270548   3.462   1.038   4.051 -0.0750  0.1729  0.3960
16378TIP3    H170549   3.539   0.981   4.045 -0.4671 -0.2815 -0.5594
16378TIP3    H270550   3.430   1.043   3.961 -1.9118 -0.6888  0.9584
16379TIP3   OH270551   0.824   3.192  12.559 -0.0820 -0.4702  0.0584
16379TIP3    H170552   0.769   3.181  12.481 -1.1083  0.9347  0.5392
16379TIP3    H270553   0.911   3.162  12.532 -0.5309 -0.4604 -1.4700
16380TIP3   OH270554   6.575   6.047   3.110 -0.2234  0.6025  0.3061
16380TIP3    H170555   6.652   6.080   3.063 -0.9070 -1.4762 -2.5746
16380TIP3    H270556   6.611   5.997   3.183  1.2151 -0.0971 -0.8170
16381TIP3   OH270557   0.272   5.989  12.384 -0.1477 -0.1859 -0.2366
16381TIP3    H170558   0.324   6.053  12.334 -0.5964 -0.1710 -0.6876
16381TIP3    H270559   0.196   6.038  12.413  0.3135 -0.0851  0.8286
16382TIP3   OH270560   0.406   3.768   0.964  0.0940  0.0550 -0.3029
16382TIP3    H170561   0.352   3.705   1.011 -1.3695  1.1261 -0.4965
16382TIP3    H270562   0.379   3.759   0.873  0.1341  0.6984 -0.3806
16383TIP3   OH270563   6.046   6.551  15.753  0.0987 -0.2220  0.9468
16383TIP3    H170564   6.091   6.543  15.837 -0.4169  0.3162  1.2815
16383TIP3    H270565   6.032   6.461  15.725  1.0162 -0.4060  1.0261
16384TIP3   OH270566   3.123   0.521  17.099  0.6782  0.1286  0.3873
16384TIP3    H170567   3.106   0.571  17.179  0.0459  0.1164  0.2702
16384TIP3    H270568   3.092   0.578  17.028  2.0170  0.4952  0.0747
16385TIP3   OH270569   5.266   2.729  15.594 -0.5439  0.9072  0.0293
16385TIP3    H170570   5.281   2.729  15.688  0.5879  0.4599 -0.1331
16385TIP3    H270571   5.243   2.820  15.573 -0.8998  0.9874  0.7403
16386TIP3   OH270572   1.727   1.837  12.993  0.3238 -1.2094 -0.1711
16386TIP3    H170573   1.643   1.833  13.039 -0.4054  0.6159 -1.2570
16386TIP3    H270574   1.714   1.787  12.913  0.4298 -1.3254 -0.1165
16387TIP3   OH270575   5.128   0.463  15.051 -0.4416  0.3421 -0.1790
16387TIP3    H170576   5.113   0.386  15.106  0.6143 -1.1666 -1.8485
16387TIP3    H270577   5.221   0.481  15.061 -0.7277  1.5927  0.3758
16388TIP3   OH270578   3.154   4.861   6.101 -0.2176  0.0271 -0.2182
16388TIP3    H170579   3.066   4.822   6.102  0.0719 -0.8546 -2.7131
16388TIP3    H270580   3.155   4.920   6.177 -1.6388 -2.6974  2.0746
16389TIP3   OH270581   1.303   0.335   2.516 -0.0332 -0.4656 -0.1474
16389TIP3    H170582   1.235   0.375   2.462 -1.3714 -1.3412  0.8190
16389TIP3    H270583   1.354   0.281   2.455  1.0310  1.6324 -1.2304
16390TIP3   OH270584   1.757   1.646   3.064 -0.0940 -0.2195  0.5972
16390TIP3    H170585   1.771   1.573   3.124 -0.4814 -0.1332  0.7965
16390TIP3    H270586   1.673   1.627   3.023 -0.0050 -0.0891  0.3533
16391TIP3   OH270587   5.125   6.708   1.673 -0.6644  0.2110 -0.2464
16391TIP3    H170588   5.195   6.672   1.618 -1.4149 -0.6935 -0.6386
16391TIP3    H270589   5.157   6.794   1.700  0.0881  0.3112 -1.3980
16392TIP3   OH270590   6.624   4.689   0.053  0.4154 -0.3077  0.0657
16392TIP3    H170591   6.639   4.745   0.130  1.5882 -2.2347  1.3270
16392TIP3    H270592   6.706   4.692   0.005 -0.0335  0.2265 -0.6763
16393TIP3   OH270593   5.979   1.954  13.688  0.2102  0.1085  0.7841
16393TIP3    H170594   6.045   1.903  13.641  1.1524  2.9397 -1.2893
16393TIP3    H270595   6.002   1.944  13.781  0.0771 -3.3877  0.5425
16394TIP3   OH270596   4.183   0.830  16.350 -0.1808 -0.0631  0.5954
16394TIP3    H170597   4.102   0.879  16.337  0.9836  1.6238 -0.7437
16394TIP3    H270598   4.171   0.749  16.300 -1.2170 -0.0624  0.8278
16395TIP3   OH270599   0.185   3.791  14.932 -0.1593  0.3967 -0.0656
16395TIP3    H170600   0.185   3.701  14.901  0.2832 -0.2715  1.7215
16395TIP3    H270601   0.102   3.802  14.977  0.6534  0.1507  1.5717
16396TIP3   OH270602   0.683   5.659   3.031  0.2525  0.0935 -0.2267
16396TIP3    H170603   0.707   5.741   2.987 -1.5234  0.7057 -0.1376
16396TIP3    H270604   0.714   5.671   3.121  2.7484 -0.6428 -0.9072
16397TIP3   OH270605   5.801   0.917  14.838  0.0677  0.0729  0.6673
16397TIP3    H170606   5.873   0.979  14.827  0.2330 -0.1403  0.5586
16397TIP3    H270607   5.842   0.831  14.838 -0.1728 -0.0433  0.7359
16398TIP3   OH270608   1.783   6.423  10.664 -0.5928 -0.3037  0.6811
16398TIP3    H170609   1.864   6.472  10.652  0.0733 -1.4004  0.5116
16398TIP3    H270610   1.715   6.478  10.626 -0.0130  0.8669  1.2865
16399TIP3   OH270611   0.513   5.654  16.396  0.2433  0.3491 -0.1830
16399TIP3    H170612   0.593   5.680  16.443  0.3469  1.7054 -1.0479
16399TIP3    H270613   0.513   5.559  16.400  2.3691  0.2704 -0.8887
16400TIP3   OH270614   3.191   1.610  13.584  0.0336  0.4602 -0.1537
16400TIP3    H170615   3.133   1.619  13.508 -0.4893 -0.4051  0.1349
16400TIP3    H270616   3.154   1.670  13.649 -1.3876 -1.0744  0.5204
16401TIP3   OH270617   0.544   5.460  14.326  0.2385 -0.5236  0.2118
16401TIP3    H170618   0.608   5.475  14.396 -0.4905 -1.2216  1.0526
16401TIP3    H270619   0.515   5.370  14.340 -0.8502 -0.2557 -0.2176
16402TIP3   OH270620   5.489   2.628   5.507 -0.0679 -0.0859 -0.0855
16402TIP3    H170621   5.583   2.612   5.501 -0.2772 -1.9739  0.8277
16402TIP3    H270622   5.453   2.586   5.428 -0.1465  0.6645 -0.4518
16403TIP3   OH270623   3.929   0.613  10.966  0.1990  0.1208 -0.0707
16403TIP3    H170624   3.990   0.635  11.036 -0.5815 -1.8504  1.3059
16403TIP3    H270625   3.853   0.576  11.011  0.4147 -2.9631 -1.9926
16404TIP3   OH270626   0.321   0.343  10.988 -0.1682 -0.1111 -0.2246
16404TIP3    H170627   0.357   0.358  11.076 -2.0359  1.4113  0.3397
16404TIP3    H270628   0.255   0.275  11.000  0.7984 -1.1927 -0.8228
16405TIP3   OH270629   5.543   3.346   4.481  0.4077 -0.1269  0.3192
16405TIP3    H170630   5.628   3.304   4.471  1.1799  1.3840  0.2156
16405TIP3    H270631   5.502   3.301   4.555  1.4380 -0.6431  0.5962
16406TIP3   OH270632   1.110   4.459  15.738  0.2880 -0.3126 -0.9076
16406TIP3    H170633   1.110   4.376  15.786  2.3995 -0.3276 -0.8587
16406TIP3    H270634   1.181   4.509  15.777 -0.2247  1.0978 -1.7006
16407TIP3   OH270635   4.608   1.584   0.047  0.0307  0.3189  0.6768
16407TIP3    H170636   4.595   1.497   0.084  2.5323 -0.3305  0.2655
16407TIP3    H270637   4.653   1.633   0.116  1.0110  0.4041  0.0057
16408TIP3   OH270638   1.248   3.026  16.275 -0.2104 -0.1306  0.0973
16408TIP3    H170639   1.203   2.952  16.235  0.1512 -1.0982  1.4154
16408TIP3    H270640   1.278   3.079  16.201 -2.0647 -0.3045 -0.8514
16409TIP3   OH270641   2.351   0.805   2.422  0.4095  0.0593 -0.4877
16409TIP3    H170642   2.281   0.821   2.484  1.0488 -1.3305  0.6436
16409TIP3    H270643   2.431   0.830   2.468  0.9062 -1.1514 -0.6413
16410TIP3   OH270644   6.281   0.251  15.187 -0.1061  0.0632 -0.2004
16410TIP3    H170645   6.304   0.208  15.270 -1.1257 -0.3101 -0.0874
16410TIP3    H270646   6.282   0.344  15.207  2.7254  0.1903 -0.5981
16411TIP3   OH270647   0.264   1.823  13.682 -0.0075 -0.0342  0.1033
16411TIP3    H170648   0.288   1.915  13.676 -0.3953  0.2273  2.0777
16411TIP3    H270649   0.348   1.776  13.677  0.1016  0.2787 -2.2525
16412TIP3   OH270650   0.023   2.296   1.584 -0.6046 -0.3409 -0.0067
16412TIP3    H170651   0.027   2.223   1.646  1.2824  1.0618  1.6240
16412TIP3    H270652   0.087   2.273   1.516 -2.0364 -1.4531 -1.0592
16413TIP3   OH270653   3.419   2.586   5.108  0.3054  0.4930  0.1511
16413TIP3    H170654   3.496   2.643   5.110  0.9008 -0.2075 -1.0679
16413TIP3    H270655   3.407   2.558   5.199  1.3519  0.7983  0.3994
16414TIP3   OH270656   2.373   1.394   1.644 -0.4476  0.2504 -0.2452
16414TIP3    H170657   2.443   1.367   1.704 -0.3673  1.6658  0.3337
16414TIP3    H270658   2.420   1.420   1.564 -0.3055  1.0720  0.0957
16415TIP3   OH270659   4.763   4.522   3.771 -0.8147 -0.4969  0.0836
16415TIP3    H170660   4.759   4.507   3.676  0.0083 -2.0415  0.2739
16415TIP3    H270661   4.775   4.617   3.779  1.0763 -0.5488 -1.4390
16416TIP3   OH270662   2.581   5.995  14.875 -0.0263 -0.9701 -0.0797
16416TIP3    H170663   2.649   5.990  14.808  0.1775  0.3435  0.0064
16416TIP3    H270664   2.628   6.019  14.955 -0.3525 -1.9045  0.4059
16417TIP3   OH270665   2.227   4.933   0.862  0.0303  0.5043  0.3268
16417TIP3    H170666   2.142   4.968   0.890 -0.8819 -0.7629 -0.7325
16417TIP3    H270667   2.206   4.873   0.790  1.9363  0.8926 -0.6125
16418TIP3   OH270668   6.510   1.771   0.755 -0.1681  0.3627  0.1092
16418TIP3    H170669   6.532   1.759   0.663 -1.2909  0.7862 -0.2384
16418TIP3    H270670   6.484   1.685   0.786 -0.7082  0.3954 -0.2406
16419TIP3   OH270671   1.118   3.637  12.833  0.5361  0.3740  0.0124
16419TIP3    H170672   1.164   3.555  12.846 -0.0948 -0.0635 -0.4282
16419TIP3    H270673   1.180   3.693  12.786  1.8365  1.0210  2.3475
16420TIP3   OH270674   6.119   3.015  15.286 -0.0600  0.1384  0.2551
16420TIP3    H170675   6.149   2.971  15.365  0.4977 -0.1807 -0.1266
16420TIP3    H270676   6.026   2.990  15.280  0.5879 -2.4070 -0.8103
16421TIP3   OH270677   6.584   3.189  17.126 -0.1381  0.1698 -0.3505
16421TIP3    H170678   6.526   3.127  17.083 -0.5232  0.0782  0.2786
16421TIP3    H270679   6.649   3.212  17.060 -0.5776 -0.1384 -0.8992
16422TIP3   OH270680   6.377   2.230   2.250 -0.4639 -0.0034 -0.0704
16422TIP3    H170681   6.310   2.162   2.239 -0.2038 -0.0469 -1.5826
16422TIP3    H270682   6.347   2.281   2.325  0.0884 -2.6412  2.1454
16423TIP3   OH270683   1.319   0.299  14.856 -0.5691  0.3114 -0.5555
16423TIP3    H170684   1.247   0.345  14.898 -1.4325 -1.7311  0.3776
16423TIP3    H270685   1.285   0.211  14.840  1.5782 -0.6310 -0.4082
16424TIP3   OH270686   2.058   4.814  11.900  0.0450  0.3496 -0.9577
16424TIP3    H170687   2.136   4.773  11.864  1.3707  1.3549  0.6148
16424TIP3    H270688   1.992   4.804  11.831  1.2751 -1.3007 -1.9832
16425TIP3   OH270689   6.698   4.239   4.805  0.4066  0.2985 -0.0802
16425TIP3    H170690   6.645   4.162   4.825  1.1991 -0.0766  0.6549
16425TIP3    H270691   6.636   4.312   4.803 -0.0270  0.0094  1.6004
16426TIP3   OH270692   0.957   2.773  11.312 -0.2597  0.0744 -0.8817
16426TIP3    H170693   0.928   2.817  11.232 -1.5231 -1.6065 -1.3973
16426TIP3    H270694   0.877   2.755  11.360  0.4383  0.4929  0.4875
16427TIP3   OH270695   0.874   5.467   2.189  0.1619  0.2594 -0.4703
16427TIP3    H170696   0.810   5.521   2.235  0.0578 -1.0061  0.9754
16427TIP3    H270697   0.827   5.385   2.171  1.0101 -0.2452 -0.4424
16428TIP3   OH270698   3.329   3.269   3.977 -0.3830 -0.2358 -0.5045
16428TIP3    H170699   3.264   3.330   3.942 -1.7844 -1.1578  0.4156
16428TIP3    H270700   3.289   3.235   4.057  1.6653 -0.0800  0.6528
16429TIP3   OH270701   5.065   1.661  15.643  0.4746  0.2847 -0.8012
16429TIP3    H170702   5.068   1.566  15.638 -1.8675  0.1101 -0.2938
16429TIP3    H270703   5.153   1.687  15.669  0.8920 -1.8231  0.0784
16430TIP3   OH270704   1.851   2.112   2.406 -0.2142  0.0578  0.0506
16430TIP3    H170705   1.821   2.022   2.419 -0.5665  0.0343 -0.8037
16430TIP3    H270706   1.863   2.147   2.494  0.6813 -1.0607  0.3942
16431TIP3   OH270707   0.040   1.591  14.007  0.0866  0.5681  0.3598
16431TIP3    H170708  -0.028   1.645  13.966  0.7950  1.1628 -0.0634
16431TIP3    H270709   0.002   1.503  14.011 -1.0991  1.0866  1.0782
16432TIP3   OH270710   2.063   0.984  13.564  0.1575  0.2581 -0.3743
16432TIP3    H170711   2.112   1.048  13.513  0.1111  2.0483  1.6802
16432TIP3    H270712   2.045   1.028  13.647  0.8704 -2.7123  1.5154
16433TIP3   OH270713   1.776   2.654  10.449 -0.3301  0.0716  0.3517
16433TIP3    H170714   1.704   2.690  10.398  0.9392  1.0958 -0.7737
16433TIP3    H270715   1.810   2.583  10.395  1.5957  1.7352 -0.7372
16434TIP3   OH270716   1.542   2.501   3.293  0.4822 -0.2621  0.2681
16434TIP3    H170717   1.471   2.557   3.325 -0.3747 -1.1960  0.0619
16434TIP3    H270718   1.567   2.448   3.369  0.1267 -0.7703  0.0352
16435TIP3   OH270719   3.654   6.395   0.610 -0.1805 -0.0993 -0.5224
16435TIP3    H170720   3.722   6.347   0.657 -1.4046 -1.0822  0.3223
16435TIP3    H270721   3.665   6.368   0.519 -0.4026 -1.4943 -0.1641
16436TIP3   OH270722   5.047   4.777   5.398  0.0709  0.2567 -0.6153
16436TIP3    H170723   5.054   4.703   5.338 -0.8062  0.4508 -0.9662
16436TIP3    H270724   5.073   4.741   5.484  1.0062 -0.0995 -1.0295
16437TIP3   OH270725   4.824   1.294   0.259  0.4509  0.9223  0.1615
16437TIP3    H170726   4.781   1.233   0.199  0.1305  1.6150 -0.3213
16437TIP3    H270727   4.910   1.310   0.220 -0.0343  1.9429 -0.5091
16438TIP3   OH270728   5.007   4.263   2.161  0.1403 -0.0848 -0.1996
16438TIP3    H170729   4.917   4.240   2.182 -0.2547  1.6224  0.0888
16438TIP3    H270730   5.053   4.179   2.159 -0.7817 -0.7891  2.7790
16439TIP3   OH270731   2.642   6.084   1.974  0.0380 -0.1523 -0.2303
16439TIP3    H170732   2.705   6.024   1.934  0.8347  1.2085 -1.1364
16439TIP3    H270733   2.559   6.038   1.970  0.4183 -0.7739 -1.9071
16440TIP3   OH270734   3.271   4.630   4.727 -0.7861 -0.1144 -0.0520
16440TIP3    H170735   3.184   4.645   4.691 -1.0751  1.1302  1.0744
16440TIP3    H270736   3.288   4.707   4.782  0.1154 -1.3465  1.4868
16441TIP3   OH270737   3.733   5.846  11.583  0.2469  0.3633 -0.3355
16441TIP3    H170738   3.772   5.902  11.649  1.2302 -2.1651  1.3981
16441TIP3    H270739   3.802   5.783  11.561 -1.4731 -1.6415 -0.3306
16442TIP3   OH270740   5.583   4.320   3.257 -0.2271  0.3522  0.1901
16442TIP3    H170741   5.532   4.240   3.267  0.8343 -0.2622  0.9798
16442TIP3    H270742   5.593   4.331   3.163 -0.4830 -0.3777  0.0704
16443TIP3   OH270743   1.017   5.698  10.756  0.1782 -0.4207 -0.0591
16443TIP3    H170744   0.949   5.759  10.727  0.8393  0.2191 -0.2948
16443TIP3    H270745   1.068   5.680  10.677  1.2558  0.3778  0.4283
16444TIP3   OH270746   2.001   5.453   5.085  0.4634  0.6516 -0.2252
16444TIP3    H170747   1.912   5.488   5.093 -0.0437 -0.9392  1.9776
16444TIP3    H270748   2.014   5.442   4.991 -2.4916 -1.0523 -0.5470
16445TIP3   OH270749   5.616   1.527   2.811 -0.0695  0.4972  0.1918
16445TIP3    H170750   5.675   1.587   2.859  1.6455 -1.2102  0.3480
16445TIP3    H270751   5.620   1.445   2.860 -1.1108 -0.2285 -0.8823
16446TIP3   OH270752   0.050   4.127  14.053 -0.3377  0.3470 -0.1110
16446TIP3    H170753   0.135   4.171  14.050 -1.1038  1.8933 -0.0930
16446TIP3    H270754  -0.008   4.183  14.001 -1.6864  0.1254  1.0882
16447TIP3   OH270755   5.377   6.181  14.984  0.1086 -0.1268 -0.4775
16447TIP3    H170756   5.403   6.118  15.052  3.8966  2.6895  1.0826
16447TIP3    H270757   5.295   6.219  15.016  1.0165  0.0519  1.8517
16448TIP3   OH270758   5.185   1.117  13.271  0.0900 -0.0338 -0.3714
16448TIP3    H170759   5.267   1.076  13.242 -0.0180 -0.2409 -0.3818
16448TIP3    H270760   5.174   1.192  13.213 -0.3147 -0.6535 -1.1095
16449TIP3   OH270761   4.747   5.138  11.161  0.4031  0.1744 -0.0932
16449TIP3    H170762   4.737   5.212  11.101 -0.3610  0.7483  0.6895
16449TIP3    H270763   4.807   5.078  11.118  0.7780  1.1112 -0.8969
16450TIP3   OH270764   5.403   3.381   4.057 -0.0934 -0.2110 -0.0366
16450TIP3    H170765   5.421   3.311   4.121  0.9691 -0.2349 -0.3387
16450TIP3    H270766   5.371   3.454   4.110 -1.5363 -1.0155  0.2549
16451TIP3   OH270767   1.604   6.329  14.036  0.4833 -0.0978  0.3491
16451TIP3    H170768   1.615   6.307  13.944  0.3223 -0.0247  0.3128
16451TIP3    H270769   1.675   6.283  14.080  2.0795  1.8228 -0.0925
16452TIP3   OH270770   2.538   6.560   3.285  0.2788 -0.2069  0.4234
16452TIP3    H170771   2.584   6.608   3.216 -2.7253  0.5524 -1.2339
16452TIP3    H270772   2.549   6.614   3.363 -2.0676  2.8095 -1.1279
16453TIP3   OH270773   4.847   0.522   1.818 -0.4599  0.5266 -0.1744
16453TIP3    H170774   4.869   0.430   1.832  1.1152  0.8038 -0.5616
16453TIP3    H270775   4.853   0.534   1.723 -1.8756  0.7643 -0.2540
16454TIP3   OH270776   0.325   1.359   5.380 -0.2035 -0.1210 -0.3046
16454TIP3    H170777   0.397   1.423   5.384  1.6014 -2.0439 -0.1762
16454TIP3    H270778   0.269   1.391   5.308  0.7249  1.4736 -0.3760
16455TIP3   OH270779   2.332   5.195  14.526 -0.1684  0.4970  0.5320
16455TIP3    H170780   2.249   5.208  14.572 -0.7249  1.1765 -0.5993
16455TIP3    H270781   2.319   5.239  14.442  0.7591 -0.7657 -0.3086
16456TIP3   OH270782   6.609   3.858   5.301  0.3990  0.2972 -0.1465
16456TIP3    H170783   6.592   3.781   5.357 -0.6117  0.5289 -0.1115
16456TIP3    H270784   6.535   3.860   5.240  0.7655  0.8645 -0.5805
16457TIP3   OH270785   3.857   5.707   2.365  0.0053  0.1491 -0.2088
16457TIP3    H170786   3.857   5.722   2.460  0.6305  2.3954 -0.5001
16457TIP3    H270787   3.767   5.720   2.338 -0.6011 -2.4950  0.2746
16458TIP3   OH270788   5.748   4.963   3.117  0.3319 -0.3017 -0.0794
16458TIP3    H170789   5.721   4.946   3.207 -0.5865 -0.2996 -0.3447
16458TIP3    H270790   5.710   5.048   3.096  0.3236 -0.4157 -0.5462
16459TIP3   OH270791   6.261   3.221  15.380 -0.2150  0.1125 -0.2523
16459TIP3    H170792   6.198   3.287  15.406 -0.1202 -0.5325  1.8024
16459TIP3    H270793   6.210   3.156  15.331 -0.4429  1.2645 -1.6192
16460TIP3   OH270794   3.431   5.451   4.041  0.1498  0.3138  0.6037
16460TIP3    H170795   3.340   5.422   4.039  0.1307  0.3985  0.2153
16460TIP3    H270796   3.428   5.541   4.007  0.6841 -0.4927 -1.7420
16461TIP3   OH270797   3.917   6.694   5.049 -0.0698 -0.2866 -0.4669
16461TIP3    H170798   3.853   6.765   5.050  0.2324  0.0043 -1.1017
16461TIP3    H270799   4.002   6.737   5.060  0.1747 -0.4681 -1.5281
16462TIP3   OH270800   4.564   5.207  16.597  0.1167 -0.0963  0.7039
16462TIP3    H170801   4.536   5.137  16.539  0.3083 -0.5250  1.1258
16462TIP3    H270802   4.633   5.253  16.549  2.1622 -2.0408  1.5792
16463TIP3   OH270803   3.701   0.177   4.957 -0.2173  0.3454  0.1543
16463TIP3    H170804   3.710   0.273   4.959  1.3591  0.2285 -0.3099
16463TIP3    H270805   3.677   0.153   5.046 -2.4105  1.3055 -0.1126
16464TIP3   OH270806   1.690   3.203  11.763  0.1613 -0.4197 -0.5457
16464TIP3    H170807   1.669   3.292  11.790  2.8450  0.9941 -2.5202
16464TIP3    H270808   1.738   3.166  11.837 -0.8919 -0.2161  0.2542
16465TIP3   OH270809   1.661   6.602   2.494  0.0548 -0.4549 -0.1390
16465TIP3    H170810   1.684   6.641   2.409 -0.7193 -0.6599 -0.4567
16465TIP3    H270811   1.578   6.643   2.517 -1.2828 -2.5533 -0.9430
16466TIP3   OH270812   0.936   2.623   0.586 -0.3556  0.0198  0.6305
16466TIP3    H170813   0.920   2.622   0.680  1.2291  1.5444  0.9714
16466TIP3    H270814   0.925   2.715   0.561 -1.7736 -0.5047 -0.9069
16467TIP3   OH270815   1.628   5.605   2.315 -0.4135  0.2755 -0.0020
16467TIP3    H170816   1.683   5.630   2.241 -0.3547 -1.5704 -0.6148
16467TIP3    H270817   1.669   5.649   2.390  2.0844 -1.1688 -0.4052
16468TIP3   OH270818   5.295   4.519  16.119  0.3892  0.6971 -0.0413
16468TIP3    H170819   5.239   4.466  16.176 -0.7417  0.6726 -1.1583
16468TIP3    H270820   5.363   4.458  16.089  1.1274  0.7525  1.3868
16469TIP3   OH270821   1.466   5.544   0.437 -0.2844 -0.0086 -0.4079
16469TIP3    H170822   1.429   5.600   0.369  3.2529  1.7918 -1.1244
16469TIP3    H270823   1.492   5.464   0.390  0.6902  0.5799 -0.9255
16470TIP3   OH270824   4.094   6.713  12.620 -0.8001 -0.1572 -0.4038
16470TIP3    H170825   4.125   6.788  12.670 -1.0147 -0.8069  0.7278
16470TIP3    H270826   4.116   6.734  12.529  3.6687 -0.8551  0.2893
16471TIP3   OH270827   2.729   6.037  15.125  0.5446  0.2391 -0.8453
16471TIP3    H170828   2.807   6.038  15.180  0.6416 -1.2412 -0.8929
16471TIP3    H270829   2.743   6.107  15.061  0.9473  1.2256  0.2894
16472TIP3   OH270830   4.365   1.774  11.659  0.0404 -0.0487  0.1775
16472TIP3    H170831   4.376   1.851  11.604 -0.6968  1.0571  1.4985
16472TIP3    H270832   4.379   1.806  11.748 -0.9609 -1.2801  0.8171
16473TIP3   OH270833   5.792   1.441   2.332  0.1987 -0.0455 -0.0634
16473TIP3    H170834   5.770   1.430   2.424  1.9696 -1.3196  0.2639
16473TIP3    H270835   5.826   1.531   2.326  1.7217 -0.5158  0.9284
16474TIP3   OH270836   1.828   3.340   4.398 -0.4242 -0.0766 -0.3670
16474TIP3    H170837   1.801   3.275   4.463 -1.8133  0.1732 -0.6615
16474TIP3    H270838   1.800   3.304   4.314 -0.7143  0.6382 -0.5871
16475TIP3   OH270839   6.092   0.459  14.838  0.1876 -0.2218 -0.5616
16475TIP3    H170840   6.149   0.410  14.779  0.8940 -1.8100  1.3134
16475TIP3    H270841   6.042   0.391  14.884 -0.9416  0.9966  0.0582
16476TIP3   OH270842   0.286   6.066   0.271  0.5516 -0.1299  0.1328
16476TIP3    H170843   0.211   6.052   0.329  0.0274  1.1712 -0.2025
16476TIP3    H270844   0.272   6.005   0.198 -0.2650  0.2208 -0.0073
16477TIP3   OH270845   0.323   5.400  15.079 -0.4208 -0.0925 -0.6638
16477TIP3    H170846   0.372   5.477  15.106  0.3800 -1.0733  0.7534
16477TIP3    H270847   0.245   5.436  15.035  0.0157  1.5086 -0.1941
16478TIP3   OH270848   1.693   1.707  13.509  0.3617 -0.0997 -0.3655
16478TIP3    H170849   1.653   1.743  13.588  1.6828  0.8606 -0.1003
16478TIP3    H270850   1.668   1.768  13.440  2.2224  1.1533  0.0025
16479TIP3   OH270851   0.057   1.137   1.755  0.2763  0.1287 -0.4807
16479TIP3    H170852   0.002   1.210   1.781  1.7285  0.6489  1.3784
16479TIP3    H270853   0.064   1.083   1.834  0.4646 -1.2093 -1.3821
16480TIP3   OH270854   0.721   5.546   6.550 -0.0078  0.2125  0.1847
16480TIP3    H170855   0.661   5.612   6.516 -0.4824 -1.3896 -2.3215
16480TIP3    H270856   0.693   5.464   6.510  2.5027 -1.0043  0.6688
16481TIP3   OH270857   2.770   5.550  12.832 -0.9715 -0.4606 -0.6579
16481TIP3    H170858   2.801   5.541  12.742 -1.2259  0.9248 -0.9035
16481TIP3    H270859   2.764   5.644  12.846 -1.4241 -0.6641  0.6493
16482TIP3   OH270860   3.196   4.049   1.891  0.5132  0.6739  0.1627
16482TIP3    H170861   3.267   4.011   1.839 -0.5955  0.0095 -0.9260
16482TIP3    H270862   3.185   4.137   1.855  0.7339  0.7434  0.2686
16483TIP3   OH270863   2.775   0.259  13.573 -0.1133  0.1347  0.1070
16483TIP3    H170864   2.832   0.259  13.496 -1.6027 -0.7389 -1.0529
16483TIP3    H270865   2.690   0.288  13.540 -0.7799 -0.2381  1.4339
16484TIP3   OH270866   4.721   5.244  11.649 -0.4124 -0.1816 -0.0519
16484TIP3    H170867   4.722   5.185  11.574 -1.0695  2.7589 -2.5726
16484TIP3    H270868   4.810   5.279  11.654  0.0081 -1.3286  1.5050
16485TIP3   OH270869   6.211   0.094  15.795 -0.0944  0.4686  0.2763
16485TIP3    H170870   6.137   0.151  15.816 -0.3244 -0.6182  2.8535
16485TIP3    H270871   6.286   0.136  15.838 -0.1773 -0.8564  1.7843
16486TIP3   OH270872   1.760   4.755  11.848 -0.4225  0.9012  0.1959
16486TIP3    H170873   1.712   4.746  11.765 -0.2227 -0.4343  0.1936
16486TIP3    H270874   1.705   4.708  11.912  1.0253 -1.0348  0.1072
16487TIP3   OH270875   0.356   2.888  16.065 -0.0534 -0.0667  0.3271
16487TIP3    H170876   0.262   2.878  16.075 -0.1513  1.5924  1.4812
16487TIP3    H270877   0.367   2.977  16.031  1.0167 -1.0130 -2.0661
16488TIP3   OH270878   5.976   1.891   3.976  0.1285  0.4978  0.0693
16488TIP3    H170879   6.012   1.977   3.954 -0.5291  1.5111  2.5565
16488TIP3    H270880   5.927   1.865   3.898  2.1197  1.3383 -1.5394
16489TIP3   OH270881   0.838   3.255   0.553  0.4276 -0.2740  0.4161
16489TIP3    H170882   0.756   3.297   0.581  0.6589  0.4254  0.0498
16489TIP3    H270883   0.857   3.192   0.623  0.1775  0.3669  1.0729
16490TIP3   OH270884   5.824   3.776   6.065  0.2904  0.3074 -0.5761
16490TIP3    H170885   5.730   3.765   6.079  0.7249 -1.4725  1.4822
16490TIP3    H270886   5.849   3.849   6.123  0.3198  0.0818 -0.2982
16491TIP3   OH270887   3.267   2.346   4.280  0.6002 -0.1279  0.0586
16491TIP3    H170888   3.304   2.434   4.268 -0.0029  0.1302  0.0594
16491TIP3    H270889   3.235   2.322   4.193  0.2757 -0.1204  0.1744
16492TIP3   OH270890   6.142   5.895   4.392 -0.0827  0.3457  0.2975
16492TIP3    H170891   6.182   5.930   4.313 -3.1986 -1.3151 -2.2400
16492TIP3    H270892   6.206   5.834   4.427  1.0127  0.3896 -1.5160
16493TIP3   OH270893   1.175   5.079   5.726 -0.3185  0.2295 -0.4491
16493TIP3    H170894   1.224   5.088   5.644 -1.1505  1.2148 -0.8597
16493TIP3    H270895   1.091   5.043   5.699 -0.5072  0.3212  0.0101
16494TIP3   OH270896   5.641   5.745  11.430 -0.3091 -0.2485 -0.1845
16494TIP3    H170897   5.584   5.692  11.485 -2.3039  0.4992 -1.4284
16494TIP3    H270898   5.728   5.732  11.467 -1.3138 -1.0342  2.1273
16495TIP3   OH270899   4.597   3.845   2.928  0.0565  0.4373  0.1800
16495TIP3    H170900   4.683   3.804   2.915 -0.7085 -0.7277 -1.7199
16495TIP3    H270901   4.542   3.776   2.965 -0.1793  1.0661  1.0360
16496TIP3   OH270902   6.589   5.401   4.258  0.6060 -0.0293  0.0100
16496TIP3    H170903   6.494   5.394   4.254  0.6277 -0.4287  0.0649
16496TIP3    H270904   6.618   5.314   4.288  1.0978 -0.5505 -1.8158
16497TIP3   OH270905   5.650   6.653   3.942 -0.1295  0.5805  0.1517
16497TIP3    H170906   5.559   6.663   3.972 -0.2331  0.0525  0.0187
16497TIP3    H270907   5.665   6.559   3.943  0.4179  0.6664  0.1632
16498TIP3   OH270908   6.347   1.505   3.540  0.3173  0.0709  0.1340
16498TIP3    H170909   6.404   1.502   3.617  1.4213 -2.3401 -0.6749
16498TIP3    H270910   6.259   1.498   3.576  0.5269  2.5276  1.3277
16499TIP3   OH270911   4.876   3.718   2.978 -0.1559 -0.1198  0.2885
16499TIP3    H170912   4.902   3.798   3.024  0.7819  0.8253 -1.7300
16499TIP3    H270913   4.936   3.651   3.011  1.4123  0.8470 -0.4742
16500TIP3   OH270914   2.770   2.819  13.161  0.6211 -0.4749 -0.0595
16500TIP3    H170915   2.821   2.749  13.121  1.6989  0.7863 -0.9694
16500TIP3    H270916   2.833   2.889  13.176 -0.6293  0.7391 -0.2661
16501TIP3   OH270917   2.463   5.140   3.454 -0.3094 -0.6950 -0.0823
16501TIP3    H170918   2.558   5.151   3.448 -0.6105  4.1077 -0.0336
16501TIP3    H270919   2.447   5.128   3.547  0.2122 -0.1228  0.0911
16502TIP3   OH270920   2.721   4.005   3.571 -0.3154  0.6638 -0.1806
16502TIP3    H170921   2.642   4.057   3.585 -1.9952 -1.9945  0.9442
16502TIP3    H270922   2.753   3.984   3.658  0.8108  0.4599 -0.6178
16503TIP3   OH270923   0.214   1.985   2.383  0.2340 -0.1501 -0.7313
16503TIP3    H170924   0.304   2.008   2.405  0.3688 -1.5829  0.4383
16503TIP3    H270925   0.199   1.902   2.429 -1.3229 -0.5088 -1.7988
16504TIP3   OH270926   4.027   1.477   0.867  0.3631 -0.1521 -0.2132
16504TIP3    H170927   4.014   1.540   0.796  0.8116  0.0975 -0.0787
16504TIP3    H270928   4.068   1.401   0.825  1.6829  0.4386 -0.0413
16505TIP3   OH270929   5.446   5.939  11.178 -0.3820 -0.2041 -0.3304
16505TIP3    H170930   5.355   5.958  11.200  0.3120  2.4065  0.6116
16505TIP3    H270931   5.447   5.937  11.082 -1.3928 -0.1379 -0.3585
16506TIP3   OH270932   6.722   0.701  14.318  0.1566 -0.2787 -0.2737
16506TIP3    H170933   6.636   0.687  14.277  0.5995  0.6424 -1.5727
16506TIP3    H270934   6.776   0.739  14.249  1.2990  0.1958  0.8393
16507TIP3   OH270935   1.227   4.606  12.434 -0.1624 -0.6677 -0.0199
16507TIP3    H170936   1.207   4.691  12.474  0.1153 -0.8565  0.5319
16507TIP3    H270937   1.163   4.546  12.475  0.4429 -0.9567  0.5193
16508TIP3   OH270938   0.152   3.935   4.708  0.5937  0.9164  0.2952
16508TIP3    H170939   0.204   3.886   4.645  1.1247  1.0922  0.5868
16508TIP3    H270940   0.204   4.013   4.727  1.0378  0.2976  1.8452
16509TIP3   OH270941   4.694   3.229  16.145 -0.2054  0.2227  0.3456
16509TIP3    H170942   4.762   3.279  16.100 -0.2490  0.7159  0.8237
16509TIP3    H270943   4.706   3.139  16.113  0.6388  0.3099  0.3959
16510TIP3   OH270944   5.481   6.010  15.171 -0.3024  0.0841  0.2209
16510TIP3    H170945   5.510   6.012  15.262  2.7021 -0.1255 -0.6245
16510TIP3    H270946   5.504   5.922  15.141 -3.3339 -0.6589 -0.2098
16511TIP3   OH270947   3.814   0.774   0.874  0.6761 -0.2303 -0.1723
16511TIP3    H170948   3.789   0.827   0.950  0.2541  0.1386 -0.5568
16511TIP3    H270949   3.908   0.788   0.865  0.8259 -0.6660  0.5676
16512TIP3   OH270950   3.591   5.070   4.537 -0.4092 -0.1413 -0.1540
16512TIP3    H170951   3.510   5.105   4.575 -0.0432  2.8078 -1.7713
16512TIP3    H270952   3.566   5.038   4.451 -0.1801 -1.0446  0.1097
16513TIP3   OH270953   0.812   5.161  12.867 -0.1174 -0.0369 -0.9497
16513TIP3    H170954   0.851   5.084  12.908 -0.8849  0.2673  0.3984
16513TIP3    H270955   0.880   5.194  12.809  1.1689 -0.2506  0.3933
16514TIP3   OH270956   2.866   2.292  10.820  0.1046 -0.2531  0.4957
16514TIP3    H170957   2.793   2.252  10.774 -0.5220 -0.3966  1.5850
16514TIP3    H270958   2.936   2.226  10.818 -0.6372 -1.0986  1.5664
16515TIP3   OH270959   1.527   1.584   2.937  0.6805 -0.2807  0.4219
16515TIP3    H170960   1.501   1.492   2.942  0.2610 -0.2207 -0.5285
16515TIP3    H270961   1.445   1.632   2.933  0.9121  0.0589 -0.2717
16516TIP3   OH270962   3.233   1.803   2.575 -0.0409 -0.2158 -0.2899
16516TIP3    H170963   3.202   1.892   2.556 -0.0463 -0.2714 -0.5409
16516TIP3    H270964   3.321   1.816   2.610 -0.1538 -0.0910 -0.0511
16517TIP3   OH270965   4.214   2.975  12.417  0.0051  0.1712 -0.4634
16517TIP3    H170966   4.174   3.014  12.495 -2.1976  1.5428 -2.1614
16517TIP3    H270967   4.247   2.890  12.447  1.7070  1.7116  2.5525
16518TIP3   OH270968   5.133   2.457   5.402  0.3474  0.0528  0.3466
16518TIP3    H170969   5.095   2.427   5.319 -0.8470 -0.5314  1.0785
16518TIP3    H270970   5.226   2.471   5.382  0.5488 -2.1558 -0.5645
16519TIP3   OH270971   4.838   6.026  11.524  0.5545  0.3952  0.2728
16519TIP3    H170972   4.877   5.961  11.582 -1.5596 -1.5194 -0.2901
16519TIP3    H270973   4.751   6.043  11.561 -0.5538 -0.2949 -1.7827
16520TIP3   OH270974   6.753   6.005   3.618 -0.2435 -0.3204  0.1142
16520TIP3    H170975   6.846   5.987   3.631 -0.1497 -1.3812 -1.6637
16520TIP3    H270976   6.748   6.099   3.603  0.5465 -0.2658  0.1805
16521TIP3   OH270977   0.278   1.692   5.053 -0.2238  0.5078  0.5242
16521TIP3    H170978   0.265   1.722   5.143 -0.7817  0.3236  0.5056
16521TIP3    H270979   0.231   1.608   5.048  3.0712 -1.5701  1.2387
16522TIP3   OH270980   2.744   3.183   0.172  0.0556  0.0624  0.2283
16522TIP3    H170981   2.671   3.121   0.174  1.0039 -1.1333  2.7715
16522TIP3    H270982   2.820   3.132   0.145  1.1057 -0.3849  3.5411
16523TIP3   OH270983   1.147   0.191  15.272  0.4729 -0.1098 -0.2737
16523TIP3    H170984   1.216   0.256  15.281  0.0023  0.7278 -2.3148
16523TIP3    H270985   1.099   0.216  15.194 -0.1729 -2.5081 -0.7457
16524TIP3   OH270986   0.770   5.816  15.019  0.1656 -0.1653 -0.7360
16524TIP3    H170987   0.795   5.818  15.111 -2.8176  0.7103  0.1644
16524TIP3    H270988   0.794   5.729  14.989 -0.3380 -1.0786  1.3707
16525TIP3   OH270989   1.919   6.762   4.230  0.3428 -0.2626  0.2318
16525TIP3    H170990   1.896   6.852   4.256 -0.5795 -0.6139  0.6809
16525TIP3    H270991   1.925   6.714   4.313  3.1173 -0.1555  0.1999
16526TIP3   OH270992   6.096   4.866   0.263  0.1563  0.2116  0.2459
16526TIP3    H170993   6.075   4.959   0.260  1.2037  0.7195  3.5123
16526TIP3    H270994   6.076   4.841   0.353  2.0760 -2.1171  0.1169
16527TIP3   OH270995   2.627   5.155   4.816  0.0274 -0.1189 -0.2907
16527TIP3    H170996   2.589   5.071   4.841 -1.9673  0.6415 -0.5024
16527TIP3    H270997   2.608   5.213   4.890  1.6229  0.1061 -0.0237
16528TIP3   OH270998   0.772   2.484  10.546 -0.5714 -0.4059 -0.1314
16528TIP3    H170999   0.809   2.412  10.597 -0.6271 -2.1958 -2.4373
16528TIP3    H271000   0.848   2.538  10.522 -0.1863 -1.0028 -0.2886
16529TIP3   OH271001   5.602   3.955  13.824  0.7534 -0.0229 -0.2300
16529TIP3    H171002   5.681   3.902  13.823  1.1293  0.4800  1.0404
16529TIP3    H271003   5.629   4.037  13.865  0.3862  1.4921 -2.8106
16530TIP3   OH271004   5.946   1.778   1.414  0.9430  0.4778  0.5963
16530TIP3    H171005   5.914   1.858   1.455  1.8898  1.1609  0.0445
16530TIP3    H271006   5.947   1.797   1.320  0.9918 -0.2534  0.4360
16531TIP3   OH271007   2.438   5.460   0.237  0.2309 -0.3434 -0.0309
16531TIP3    H171008   2.475   5.549   0.238  0.6817 -0.4249 -2.5969
16531TIP3    H271009   2.356   5.469   0.189 -0.1921 -1.1693  0.5196
16532TIP3   OH271010   0.230   1.805   3.835 -0.4919 -0.4328 -0.4531
16532TIP3    H171011   0.136   1.802   3.853 -0.2311 -0.3129  1.0393
16532TIP3    H271012   0.261   1.717   3.853 -0.4512 -0.7427 -1.9068
16533TIP3   OH271013   1.723   2.593  17.113  0.5624 -0.3394 -0.5162
16533TIP3    H171014   1.661   2.601  17.185 -0.4130  1.0630 -1.4569
16533TIP3    H271015   1.798   2.547  17.151  1.0080  2.1662  2.0293
16534TIP3   OH271016   5.971   2.319  12.480  0.2492 -0.0659  0.4008
16534TIP3    H171017   5.877   2.301  12.478  0.4052 -0.8464 -0.1794
16534TIP3    H271018   5.977   2.411  12.507 -0.5801 -0.6552  2.8422
16535TIP3   OH271019   6.324   5.325  13.795  0.4577  0.7302 -0.1725
16535TIP3    H171020   6.270   5.399  13.766 -1.0212 -0.3392 -0.2650
16535TIP3    H271021   6.312   5.322  13.890 -1.9382 -1.1235 -0.4283
16536TIP3   OH271022   0.983   6.014   5.769  0.8273 -0.0545  0.3691
16536TIP3    H171023   1.004   5.923   5.786  0.2986 -0.5316 -1.3426
16536TIP3    H271024   1.066   6.052   5.737  0.2031 -1.0147 -2.8105
16537TIP3   OH271025   2.735   5.429   1.658 -0.0866  0.2412  0.0361
16537TIP3    H171026   2.682   5.362   1.702  1.5689 -0.6319  0.7822
16537TIP3    H271027   2.694   5.439   1.572 -1.2063 -0.6948  0.4319
16538TIP3   OH271028   1.810   3.889   2.533  0.3877  0.2143 -0.4936
16538TIP3    H171029   1.717   3.875   2.515  0.0801  1.9515 -0.4437
16538TIP3    H271030   1.828   3.837   2.610 -0.9131  0.9207  0.3245
16539TIP3   OH271031   6.716   5.956  16.193  0.0165 -0.4335  0.1429
16539TIP3    H171032   6.670   5.925  16.271 -1.4723 -1.7179 -1.1924
16539TIP3    H271033   6.808   5.934  16.209 -0.0415  0.5387  2.0804
16540TIP3   OH271034   5.962   6.230  13.823  0.1526 -0.0561  0.1633
16540TIP3    H171035   5.881   6.263  13.863 -0.1940  1.1594 -1.4595
16540TIP3    H271036   5.985   6.153  13.876 -2.9721 -1.4786 -0.3403
16541TIP3   OH271037   0.298   3.731  11.938 -0.1603  0.1835 -0.2005
16541TIP3    H171038   0.380   3.684  11.926 -0.6854 -1.2148  1.2565
16541TIP3    H271039   0.323   3.823  11.938  1.1132 -0.1233 -1.6751
16542TIP3   OH271040   5.300   3.311  14.471 -0.6162  0.1513 -0.2514
16542TIP3    H171041   5.274   3.345  14.557 -0.3034 -0.7784  0.2226
16542TIP3    H271042   5.368   3.246  14.490  0.8802  1.3101 -1.3327
16543TIP3   OH271043   3.815   1.248   1.228 -0.0301 -0.0912  0.3378
16543TIP3    H171044   3.846   1.244   1.138 -0.8892  0.2948  0.0102
16543TIP3    H271045   3.731   1.293   1.222 -0.3494 -0.5369  1.2626
16544TIP3   OH271046   4.366   0.176  13.611  0.3121  0.7135  0.9118
16544TIP3    H171047   4.358   0.081  13.619  1.1200  0.5113 -0.4561
16544TIP3    H271048   4.458   0.191  13.591 -0.0097  1.6951  0.0960
16545TIP3   OH271049   3.809   0.571  13.971  0.0283  0.1284 -0.4023
16545TIP3    H171050   3.868   0.559  13.897  0.0497 -2.2576 -0.0686
16545TIP3    H271051   3.819   0.492  14.023 -1.2230  1.0176  1.2949
16546TIP3   OH271052   5.407   2.393  15.640 -0.2775 -0.3682  0.8217
16546TIP3    H171053   5.422   2.447  15.718 -0.5511  0.1480  0.5176
16546TIP3    H271054   5.314   2.373  15.642 -0.4660  0.3965  0.1514
16547TIP3   OH271055   3.969   3.158   1.695  0.3606  0.3770  0.5496
16547TIP3    H171056   4.008   3.186   1.612  0.1129 -1.5737 -0.2674
16547TIP3    H271057   3.907   3.228   1.716  1.2786  1.4918 -0.2646
16548TIP3   OH271058   1.206   1.928   2.617  0.5725 -0.3387 -0.2691
16548TIP3    H171059   1.184   2.021   2.614 -1.4564 -0.7649 -0.3250
16548TIP3    H271060   1.301   1.926   2.622  0.7839  1.7081 -1.9148
16549TIP3   OH271061   5.132   2.244  13.682  0.0004  0.1431  0.3644
16549TIP3    H171062   5.202   2.274  13.740 -0.3950 -0.0606  0.9586
16549TIP3    H271063   5.165   2.260  13.594  0.6397  0.3934  0.6456
16550TIP3   OH271064   6.183   1.426  14.047  0.0255  0.3024 -0.0679
16550TIP3    H171065   6.192   1.385  14.133  0.2772  0.5304  0.0134
16550TIP3    H271066   6.098   1.470  14.051 -0.0667  0.1249 -0.0180
16551TIP3   OH271067   2.613   5.296  12.110  0.0606 -0.2815 -0.1550
16551TIP3    H171068   2.692   5.279  12.162  0.3898 -0.1846 -0.6200
16551TIP3    H271069   2.545   5.313  12.175  0.0284 -1.9838  0.3001
16552TIP3   OH271070   1.512   3.850   5.655  0.1260  0.3729  0.1564
16552TIP3    H171071   1.491   3.824   5.565 -0.0969 -1.0093  0.5860
16552TIP3    H271072   1.434   3.827   5.706  0.4756  0.5897  0.7998
16553TIP3   OH271073   4.404   2.812   1.616 -0.2693 -0.3713 -0.2709
16553TIP3    H171074   4.357   2.765   1.685 -0.3829 -1.1235 -0.8445
16553TIP3    H271075   4.493   2.823   1.650 -0.8984  1.3677  0.9689
16554TIP3   OH271076   5.167   6.086   2.017 -0.3189  0.4562 -0.1704
16554TIP3    H171077   5.190   6.153   1.953  1.7107 -1.0250 -1.1149
16554TIP3    H271078   5.172   6.131   2.101  1.6985  1.3904 -0.7175
16555TIP3   OH271079   3.830   6.523   0.130  0.1802  0.0043  0.3309
16555TIP3    H171080   3.868   6.449   0.083 -1.7718  0.2735 -1.8330
16555TIP3    H271081   3.905   6.579   0.151  1.3501 -1.1136 -0.7021
16556TIP3   OH271082   5.830   6.005   0.104 -0.2450 -0.6795 -0.3520
16556TIP3    H171083   5.766   5.935   0.088 -0.8799 -0.0726 -0.5534
16556TIP3    H271084   5.897   5.992   0.038  0.0093 -1.5157  0.0551
16557TIP3   OH271085   1.628   4.410   3.234  0.2182 -0.0555  0.3806
16557TIP3    H171086   1.577   4.352   3.178 -1.0296  1.4164 -0.0873
16557TIP3    H271087   1.572   4.428   3.309  0.3732  0.8683  0.2966
16558TIP3   OH271088   6.638   0.603   1.715 -0.5725  0.4151  0.2405
16558TIP3    H171089   6.608   0.516   1.743 -0.9309 -0.0109 -1.3318
16558TIP3    H271090   6.586   0.621   1.637  1.4697  0.7986 -1.1048
16559TIP3   OH271091   3.754   1.816  14.264  0.2646 -0.2680 -0.0511
16559TIP3    H171092   3.699   1.892  14.281 -2.2726 -1.6490 -1.5648
16559TIP3    H271093   3.730   1.753  14.332  0.4628 -0.6418 -0.3230
16560TIP3   OH271094   0.940   5.107  13.555  0.6325  0.1583  0.4040
16560TIP3    H171095   0.985   5.192  13.553  2.7567 -0.8542  2.0299
16560TIP3    H271096   1.006   5.044  13.530 -0.3598 -1.2463  1.2112
16561TIP3   OH271097   5.306   3.131  15.945 -0.3531  0.2669 -0.0775
16561TIP3    H171098   5.349   3.197  15.890 -0.7191  0.4731 -0.1156
16561TIP3    H271099   5.338   3.150  16.034  0.0794  0.0605 -0.1838
16562TIP3   OH271100   1.549   2.816   2.149 -0.4651  0.2356  0.4647
16562TIP3    H171101   1.456   2.796   2.153 -0.5735  0.4091 -0.9352
16562TIP3    H271102   1.589   2.758   2.214 -1.4319 -0.4833  0.4239
16563TIP3   OH271103   4.981   6.643  11.442 -0.5106  0.1965  0.2965
16563TIP3    H171104   5.068   6.674  11.467 -0.4038  0.6690 -0.6075
16563TIP3    H271105   4.994   6.550  11.421  0.2670  0.7428 -1.9292
16564TIP3   OH271106   0.287   0.497   6.227  0.3166 -0.3203 -0.2175
16564TIP3    H171107   0.279   0.526   6.136  0.3017 -0.9441 -0.4202
16564TIP3    H271108   0.348   0.423   6.223  1.3301  0.4539  0.4542
16565TIP3   OH271109   1.115   4.216  15.875 -0.2795 -0.1271 -0.3011
16565TIP3    H171110   1.146   4.172  15.954 -1.8029 -0.2788  0.2542
16565TIP3    H271111   1.093   4.144  15.816 -0.3969 -0.0515 -0.3491
16566TIP3   OH271112   6.735   3.651   4.636  0.7073  0.1209 -1.1721
16566TIP3    H171113   6.666   3.702   4.679 -1.5581 -2.6117 -1.2685
16566TIP3    H271114   6.794   3.625   4.708  0.0933  0.2250 -0.6238
16567TIP3   OH271115   0.032   4.244  11.623 -0.1789  0.4551 -0.0164
16567TIP3    H171116   0.003   4.172  11.679 -0.4992 -2.3409 -3.4611
16567TIP3    H271117  -0.021   4.319  11.651 -0.0739 -0.6102  3.5175
16568TIP3   OH271118   3.296   1.180   0.146  0.0855  0.0105  0.3318
16568TIP3    H171119   3.216   1.204   0.192  0.2496 -0.8012  1.0727
16568TIP3    H271120   3.347   1.130   0.210  2.0091  2.0264  0.4955
16569TIP3   OH271121   0.630   6.247   3.443  0.1606  0.0029 -0.4790
16569TIP3    H171122   0.651   6.332   3.404  0.4139  0.6701  1.0442
16569TIP3    H271123   0.702   6.191   3.417  2.8143  1.6302  2.6620
16570TIP3   OH271124   1.296   4.379  16.089 -0.0557  0.3239  0.0380
16570TIP3    H171125   1.275   4.448  16.026 -0.1553  1.5207  1.3302
16570TIP3    H271126   1.218   4.323  16.089 -0.8183  1.3627  0.4426
16571TIP3   OH271127   1.080   0.180  13.925  0.1313  0.0412  0.2568
16571TIP3    H171128   1.113   0.148  14.009  0.7333  1.2645  0.5076
16571TIP3    H271129   1.007   0.121  13.904 -0.0927 -0.2294  1.6809
16572TIP3   OH271130   6.578   2.705   3.696 -1.1328 -1.4138 -0.3142
16572TIP3    H171131   6.494   2.691   3.739 -0.9940 -3.4205 -0.5991
16572TIP3    H271132   6.580   2.641   3.624  0.3204 -0.9151 -0.7580
16573TIP3   OH271133   5.445   0.006   4.043  0.3332  0.1752 -0.2582
16573TIP3    H171134   5.440   0.087   3.993 -1.2528  0.2800 -0.0023
16573TIP3    H271135   5.355  -0.008   4.074  0.6934 -1.3887  0.1597
16574TIP3   OH271136   1.507   0.960   5.294 -0.3048  0.0025 -0.5716
16574TIP3    H171137   1.546   1.046   5.281 -0.5336  0.0742 -0.7834
16574TIP3    H271138   1.444   0.971   5.364  0.6275 -0.2924  0.3359
16575TIP3   OH271139   4.402   0.141   6.251 -0.0499  0.0983  0.1551
16575TIP3    H171140   4.392   0.171   6.160 -1.5190 -1.6456 -0.3058
16575TIP3    H271141   4.318   0.161   6.292  0.7977  1.4031  1.3453
16576TIP3   OH271142   5.648   3.348  16.873 -0.5463  0.4521  0.2164
16576TIP3    H171143   5.693   3.324  16.954 -1.0579  0.2767  0.4547
16576TIP3    H271144   5.588   3.419  16.900  0.0844  1.1640 -0.2338
16577TIP3   OH271145   4.096   1.748   0.112 -0.5500  0.6529  0.4659
16577TIP3    H171146   4.177   1.748   0.060 -0.8214  0.5537  0.0410
16577TIP3    H271147   4.053   1.830   0.088 -0.7650  0.5194  0.3920
16578TIP3   OH271148   3.637   6.324   1.127 -0.6315  0.1517 -0.2185
16578TIP3    H171149   3.574   6.349   1.059 -1.3203  2.0675  1.0141
16578TIP3    H271150   3.661   6.407   1.169 -1.1668 -1.0023  2.6443
16579TIP3   OH271151   0.080   0.655   1.124 -0.0139 -0.4007  0.1552
16579TIP3    H171152   0.009   0.599   1.155 -0.8513  0.5489 -0.0095
16579TIP3    H271153   0.096   0.625   1.034 -1.1242  0.2462 -0.2711
16580TIP3   OH271154   6.083   5.231   3.250 -0.1731  1.3022 -0.0827
16580TIP3    H171155   6.138   5.161   3.285 -0.4837  0.6438 -0.8898
16580TIP3    H271156   6.004   5.228   3.305 -0.8007  0.0507 -0.9971
16581TIP3   OH271157   6.154   4.938   5.244 -0.0050 -0.0569  0.3006
16581TIP3    H171158   6.228   4.903   5.292  0.3012  0.5210  0.2528
16581TIP3    H271159   6.159   4.897   5.158 -0.5476 -1.0796  0.7414
16582TIP3   OH271160   2.070   1.856   3.619  0.1170 -0.3075 -0.0299
16582TIP3    H171161   1.994   1.862   3.676  1.6624 -0.1000  2.1553
16582TIP3    H271162   2.081   1.762   3.604  0.9995 -0.6045  2.0350
16583TIP3   OH271163   1.016   1.037   5.094  0.5155 -0.5218 -0.0799
16583TIP3    H171164   0.955   1.046   5.167 -0.1038  1.0320 -0.7331
16583TIP3    H271165   1.079   0.971   5.123  0.4100  0.1902  1.9190
16584TIP3   OH271166   2.858   3.797   4.989 -0.9629  0.2167 -0.1823
16584TIP3    H171167   2.790   3.865   4.986 -1.7787 -0.5457  0.5191
16584TIP3    H271168   2.852   3.754   4.904 -2.1616 -0.5923  0.2939
16585TIP3   OH271169   2.573   1.962   5.102 -0.4100  0.3738 -0.3131
16585TIP3    H171170   2.640   2.023   5.071 -0.6315 -0.0941 -1.7836
16585TIP3    H271171   2.620   1.880   5.117 -0.4569  0.3556 -0.2666
16586TIP3   OH271172   1.313   3.483   5.600  0.4984 -0.3631  0.3461
16586TIP3    H171173   1.324   3.520   5.687  0.6010 -2.2189  1.1890
16586TIP3    H271174   1.238   3.423   5.609  0.8471 -0.9914 -0.6822
16587TIP3   OH271175   1.404   1.501  17.112  0.1932 -0.1671  0.0456
16587TIP3    H171176   1.388   1.576  17.169  0.6767 -0.7805  1.0126
16587TIP3    H271177   1.413   1.426  17.172  0.1198 -0.9320 -0.8678
16588TIP3   OH271178   0.223   2.457   2.336 -0.5188 -0.2861  0.2186
16588TIP3    H171179   0.223   2.546   2.301 -0.1782  0.0264  0.9929
16588TIP3    H271180   0.163   2.409   2.279 -0.8219  0.4749 -0.1213
16589TIP3   OH271181   0.331   5.532  13.800 -0.5143  0.2656  0.2338
16589TIP3    H171182   0.406   5.490  13.759 -1.3979  0.0080 -1.1886
16589TIP3    H271183   0.369   5.597  13.859  0.8308  0.4531 -0.7941
16590TIP3   OH271184   4.876   3.454   1.344  0.1244 -0.2273  0.0560
16590TIP3    H171185   4.816   3.431   1.415  1.7677 -0.1850  1.5229
16590TIP3    H271186   4.830   3.426   1.264 -2.5761  1.3455  0.9199
16591TIP3   OH271187   4.021   5.214   2.296  0.3081 -0.1803 -0.4097
16591TIP3    H171188   4.069   5.286   2.256  0.5022  0.3180  0.6886
16591TIP3    H271189   3.949   5.257   2.343  0.8384 -0.6298  0.8486
16592TIP3   OH271190   4.247   4.525  11.188 -0.5043 -0.6618  0.1172
16592TIP3    H171191   4.257   4.440  11.230  0.6769 -1.7391 -2.1471
16592TIP3    H271192   4.336   4.551  11.164 -1.1125 -0.2837 -1.9353
16593TIP3   OH271193   1.660   5.901  13.511 -0.4469  0.5275 -0.5754
16593TIP3    H171194   1.569   5.928  13.518 -0.8992 -1.2781  1.6677
16593TIP3    H271195   1.656   5.811  13.477  0.3630 -0.0792  0.8636
16594TIP3   OH271196   6.542   2.863   5.325  0.3659  0.4168 -0.4781
16594TIP3    H171197   6.469   2.801   5.333  0.5263  0.4154  1.3841
16594TIP3    H271198   6.501   2.949   5.332  0.6543  0.4201  3.0179
16595TIP3   OH271199   2.253   3.325  11.733  0.4886  0.3432  0.4780
16595TIP3    H171200   2.274   3.377  11.656  0.0931 -0.1833  0.0097
16595TIP3    H271201   2.298   3.242  11.719  1.2986  0.6269  1.3269
16596TIP3   OH271202   3.017   2.763   2.246 -0.8156  0.1856  0.5724
16596TIP3    H171203   3.006   2.668   2.238 -0.4757  0.1070  0.9962
16596TIP3    H271204   2.968   2.785   2.326  0.5218  0.1021  1.4502
16597TIP3   OH271205   2.179   0.290  15.059  0.1528  0.0420 -0.6809
16597TIP3    H171206   2.222   0.374  15.042 -0.0474  0.2906  0.0018
16597TIP3    H271207   2.099   0.313  15.107 -0.1292 -0.5079 -0.8762
16598TIP3   OH271208   0.915   2.229  16.095  0.1635  0.9169 -0.1724
16598TIP3    H171209   0.848   2.168  16.064  1.4843 -0.1815 -0.9873
16598TIP3    H271210   0.869   2.312  16.105 -1.3865  0.1151 -0.3564
16599TIP3   OH271211   6.415   1.138   1.664  0.0319  0.9927  0.1209
16599TIP3    H171212   6.390   1.228   1.682 -1.3725  0.5869  0.3542
16599TIP3    H271213   6.446   1.139   1.574 -2.8040  1.2288 -0.9483
16600TIP3   OH271214   1.435   1.826  13.691  0.5699 -0.8225 -0.2902
16600TIP3    H171215   1.406   1.836  13.600 -0.0737  2.5933  0.1563
16600TIP3    H271216   1.367   1.773  13.732 -1.1161  0.7049 -1.0105
16601TIP3   OH271217   1.281   0.921  13.180 -0.0961 -0.0812 -0.7784
16601TIP3    H171218   1.221   0.996  13.174 -0.5407 -0.4962 -1.9665
16601TIP3    H271219   1.360   0.956  13.219 -0.5569  0.8455 -0.6479
16602TIP3   OH271220   1.384   0.398  16.184 -0.3574 -0.4574  0.2931
16602TIP3    H171221   1.478   0.379  16.178  0.6276  3.7863 -1.7762
16602TIP3    H271222   1.354   0.401  16.093 -2.4038 -1.2054  0.8905
16603TIP3   OH271223   5.951   1.806   0.045  0.2041 -0.1683 -0.1350
16603TIP3    H171224   6.040   1.800   0.009 -0.2468  0.9746 -1.5495
16603TIP3    H271225   5.963   1.831   0.136  1.3265  0.5488 -0.4572
16604TIP3   OH271226   1.833   3.791  11.623  0.3144  0.4132 -0.6222
16604TIP3    H171227   1.834   3.777  11.528  0.5415 -1.4473 -0.3650
16604TIP3    H271228   1.923   3.814  11.645  0.9444 -1.8989 -0.5201
16605TIP3   OH271229   5.241   6.711   3.200  0.4745  0.6478  0.0836
16605TIP3    H171230   5.177   6.657   3.154  0.2016  0.2565  0.9114
16605TIP3    H271231   5.213   6.801   3.182 -0.2093  0.4854  0.2865
16606TIP3   OH271232   1.783   3.828  12.051  0.0026 -0.2855 -0.5122
16606TIP3    H171233   1.806   3.918  12.030  1.3065 -0.4694  0.0513
16606TIP3    H271234   1.687   3.828  12.051 -0.0629  1.4761  0.9327
16607TIP3   OH271235   3.618   0.527  11.786  0.1370  0.1539 -0.6670
16607TIP3    H171236   3.652   0.555  11.871  2.0695 -0.1014 -1.2923
16607TIP3    H271237   3.693   0.537  11.726 -0.7796 -0.9211 -2.0584
16608TIP3   OH271238   1.822   4.455  16.781  0.8364 -0.1323  0.6314
16608TIP3    H171239   1.728   4.436  16.792  0.8598  0.4371  2.0686
16608TIP3    H271240   1.825   4.524  16.715  0.2467 -0.2201  0.5033
16609TIP3   OH271241   3.031   4.123   5.262 -0.3579  0.3486 -0.2490
16609TIP3    H171242   3.067   4.109   5.175  1.0239  1.6187  0.0771
16609TIP3    H271243   3.088   4.073   5.320 -2.7094 -2.5640 -0.2021
16610TIP3   OH271244   0.579   1.169  12.328  0.0100  0.3420 -0.2828
16610TIP3    H171245   0.559   1.257  12.297  0.8183  0.7989  0.4422
16610TIP3    H271246   0.542   1.167  12.417 -2.4841 -1.0176 -1.2482
16611TIP3   OH271247   3.440   4.842  12.221 -0.2855 -0.5940  0.3379
16611TIP3    H171248   3.413   4.934  12.219  1.8281  0.0791  0.5197
16611TIP3    H271249   3.517   4.841  12.277  0.3011 -2.3113 -0.4414
16612TIP3   OH271250   0.826   4.459   3.072  0.1653 -0.7999  0.0668
16612TIP3    H171251   0.792   4.404   3.142 -0.2772 -1.2924 -0.5176
16612TIP3    H271252   0.793   4.418   2.991  0.8206 -0.3610 -0.4379
16613TIP3   OH271253   4.358   5.689   2.712 -0.1820 -0.0467  0.6936
16613TIP3    H171254   4.350   5.784   2.702  0.0095 -0.1469 -0.5532
16613TIP3    H271255   4.391   5.659   2.627  1.3381 -1.0502  1.6072
16614TIP3   OH271256   0.144   6.664   2.326 -0.0567 -0.4906  0.3273
16614TIP3    H171257   0.212   6.608   2.365 -1.6099 -3.0886 -0.4252
16614TIP3    H271258   0.070   6.659   2.386 -0.3901  0.4294  0.0151
16615TIP3   OH271259   2.978   0.919  15.399 -0.3733 -0.0357 -0.1078
16615TIP3    H171260   2.958   0.884  15.486  0.1077 -1.5564 -0.5717
16615TIP3    H271261   3.019   0.845  15.353  3.5904  1.9546 -0.1835
16616TIP3   OH271262   1.144   1.409   3.037  0.2249 -0.3704 -0.1873
16616TIP3    H171263   1.173   1.465   3.109  0.7277 -1.5441  0.5628
16616TIP3    H271264   1.196   1.437   2.962 -0.5720  1.1196 -0.2066
16617TIP3   OH271265   0.645   3.948  11.463  0.2976  0.2953 -0.1542
16617TIP3    H171266   0.738   3.927  11.459 -0.2002 -1.9488 -2.4987
16617TIP3    H271267   0.628   4.000  11.385 -0.5550 -0.0781 -0.2312
16618TIP3   OH271268   6.074   0.774   2.299  0.2100 -0.2033 -0.1170
16618TIP3    H171269   6.092   0.798   2.208 -1.7590  0.1001 -0.4708
16618TIP3    H271270   5.994   0.821   2.321  0.6073 -0.3363  1.7701
16619TIP3   OH271271   0.343   5.229   1.498 -0.0542  0.5117 -0.5483
16619TIP3    H171272   0.359   5.303   1.440  3.2087  0.2035 -0.2785
16619TIP3    H271273   0.428   5.185   1.504 -0.2045  0.3386  4.1392
16620TIP3   OH271274   0.559   2.539  13.092 -0.1373  0.0932  0.5098
16620TIP3    H171275   0.639   2.568  13.136 -0.2614  2.0879 -0.4608
16620TIP3    H271276   0.512   2.621  13.072 -1.1170 -0.8582 -1.3478
16621TIP3   OH271277   1.987   5.897   6.199  0.0268 -0.0682  0.3235
16621TIP3    H171278   2.078   5.876   6.177 -0.1004 -0.6765  0.3657
16621TIP3    H271279   1.991   5.931   6.288 -0.0245 -2.0617  1.1352
16622TIP3   OH271280   1.268   0.644   2.001 -0.0857 -0.5206 -0.0792
16622TIP3    H171281   1.310   0.705   2.061 -0.8690  1.0219 -1.0384
16622TIP3    H271282   1.253   0.565   2.054  2.6769 -0.6636  0.6694
16623TIP3   OH271283   3.727   0.693   5.285 -0.0522 -0.4021  0.9737
16623TIP3    H171284   3.781   0.710   5.208 -0.1911 -1.4307  0.6334
16623TIP3    H271285   3.643   0.663   5.250 -0.5608  0.3498  1.5142
16624TIP3   OH271286   2.450   4.210   4.272  0.1305 -0.1672 -0.1265
16624TIP3    H171287   2.546   4.217   4.269  0.2239 -0.6215  1.1226
16624TIP3    H271288   2.424   4.200   4.181  0.9819  3.0613 -0.8366
16625TIP3   OH271289   5.259   2.226  14.923  0.2598  0.1475  0.0051
16625TIP3    H171290   5.226   2.146  14.883  0.7452 -0.4187  0.7165
16625TIP3    H271291   5.191   2.291  14.908 -0.2825 -0.4872 -0.2906
16626TIP3   OH271292   1.039   3.076   2.206 -0.2034 -0.0254  0.0607
16626TIP3    H171293   1.023   3.052   2.115 -1.3034  0.8783  0.0003
16626TIP3    H271294   0.959   3.050   2.252  0.2114 -0.1693  0.7179
16627TIP3   OH271295   6.741   5.133  12.042  0.1101 -0.0242 -0.1503
16627TIP3    H171296   6.803   5.133  11.969  0.6611 -3.0333  0.1962
16627TIP3    H271297   6.659   5.102  12.004  0.3665 -1.4799  0.4133
16628TIP3   OH271298   1.095   6.422  17.000  0.0577  0.3167 -0.0561
16628TIP3    H171299   1.177   6.372  17.007 -0.4467 -0.3138  1.7996
16628TIP3    H271300   1.026   6.356  17.013 -0.7599  0.9161 -1.1582
16629TIP3   OH271301   2.558   1.347   0.067  0.6587  0.0114 -0.2249
16629TIP3    H171302   2.618   1.286   0.109  1.1685  0.0161 -0.9361
16629TIP3    H271303   2.472   1.305   0.076  0.6543  0.3017  1.3467
16630TIP3   OH271304   3.016   0.650   0.174 -0.0307  0.3684 -0.2097
16630TIP3    H171305   2.944   0.672   0.234 -0.2812  1.1986 -0.8000
16630TIP3    H271306   3.087   0.708   0.201  0.3460 -0.2882  0.2219
16631TIP3   OH271307   2.111   6.633   4.103  0.1992 -0.4410  0.4606
16631TIP3    H171308   2.190   6.688   4.104  0.2727 -0.4452 -1.4010
16631TIP3    H271309   2.048   6.680   4.157  0.5496  1.0327 -0.3622
16632TIP3   OH271310   0.797   0.682   4.234 -0.5567 -0.1453  0.1109
16632TIP3    H171311   0.835   0.600   4.267 -1.8476 -0.7348  0.1839
16632TIP3    H271312   0.872   0.733   4.204  0.3197 -1.1158  0.5978
16633TIP3   OH271313   2.533   1.031   0.729  0.1646  0.1829 -0.0282
16633TIP3    H171314   2.526   1.092   0.656 -0.5703  0.2033  0.0537
16633TIP3    H271315   2.627   1.014   0.737  0.4171  1.5658  0.1674
16634TIP3   OH271316   2.687   0.149   6.147  0.8343  0.1075 -0.5878
16634TIP3    H171317   2.749   0.208   6.103  1.7236  0.7572  1.4352
16634TIP3    H271318   2.739   0.072   6.169  0.0239 -0.8706 -1.9179
16635TIP3   OH271319   6.421   6.081  11.905 -0.4594 -0.0186  0.3175
16635TIP3    H171320   6.476   6.064  11.828  0.5601  1.6536  0.6253
16635TIP3    H271321   6.473   6.141  11.959 -1.2867 -0.9041  2.1803
16636TIP3   OH271322   6.475   2.399  11.569 -0.3793  0.2099 -0.6303
16636TIP3    H171323   6.499   2.374  11.480  0.7883 -0.2771 -0.1946
16636TIP3    H271324   6.537   2.468  11.592  0.0930 -0.4728  0.2118
16637TIP3   OH271325   4.815   3.190  16.723 -0.1229  0.0347 -0.3538
16637TIP3    H171326   4.870   3.158  16.794  0.7312 -0.4998 -1.2299
16637TIP3    H271327   4.864   3.169  16.643 -1.1455  0.4449 -1.1138
16638TIP3   OH271328   4.601   6.710  14.579  0.4492  0.4438  0.1804
16638TIP3    H171329   4.623   6.793  14.623  1.6208  1.0748 -1.4907
16638TIP3    H271330   4.668   6.700  14.512 -1.0698 -0.6226 -1.2758
16639TIP3   OH271331   2.879   3.540  15.417  0.8656  0.2697 -0.3839
16639TIP3    H171332   2.925   3.530  15.500  1.7325  0.7657 -0.7896
16639TIP3    H271333   2.856   3.450  15.391  0.5169  0.1190  0.4126
16640TIP3   OH271334   5.214   1.199  11.694  0.0276  0.1184 -0.2349
16640TIP3    H171335   5.123   1.225  11.711  0.6259  0.9980  2.0679
16640TIP3    H271336   5.221   1.111  11.730  0.0538 -0.0156 -0.5648
16641TIP3   OH271337   4.597   0.022   1.307 -0.7001 -0.2202 -0.5648
16641TIP3    H171338   4.548   0.045   1.228 -0.0809 -0.4460 -1.0249
16641TIP3    H271339   4.565   0.083   1.373 -2.0402 -0.7668 -0.6822
16642TIP3   OH271340   5.161   5.448  15.563 -0.0227 -0.1067  0.6497
16642TIP3    H171341   5.193   5.444  15.653 -0.7752  0.0776  0.9313
16642TIP3    H271342   5.140   5.357  15.541 -0.0111 -0.1270  0.7227
16643TIP3   OH271343   5.058   5.472   3.962  0.2626  0.2119  0.7440
16643TIP3    H171344   5.004   5.398   3.991  0.7357  0.2754  1.8336
16643TIP3    H271345   4.994   5.540   3.939 -0.1464 -0.0844  0.9788
16644TIP3   OH271346   4.833   5.445   5.792  0.0044  0.3246  0.2550
16644TIP3    H171347   4.865   5.375   5.849 -0.3090 -1.0376 -1.1856
16644TIP3    H271348   4.904   5.508   5.789  1.6665 -1.4872 -0.9702
16645TIP3   OH271349   2.090   1.226   5.958  0.6012  0.1204  0.0953
16645TIP3    H171350   2.046   1.190   6.035  1.1750  1.4006  1.0632
16645TIP3    H271351   2.064   1.169   5.886 -1.7891  0.2408  0.8021
16646TIP3   OH271352   4.453   5.182   4.667 -0.1284  0.1974  0.4024
16646TIP3    H171353   4.450   5.091   4.637 -0.7953  0.3735 -0.0851
16646TIP3    H271354   4.368   5.197   4.708 -0.7321  1.1147 -1.0967
16647TIP3   OH271355   4.846   4.853   4.566 -0.3964  1.1868 -0.0178
16647TIP3    H171356   4.855   4.944   4.539 -0.3138  0.9306 -0.8863
16647TIP3    H271357   4.911   4.806   4.513  0.4824  0.7887  1.3458
16648TIP3   OH271358   2.011   3.988   4.252  0.2633  0.1609  0.0154
16648TIP3    H171359   1.941   3.932   4.220 -1.3753 -0.3086  3.8318
16648TIP3    H271360   2.082   3.928   4.276  2.0675  0.6079 -3.5021
16649TIP3   OH271361   0.027   5.244   1.694 -0.2198 -0.4741  0.7107
16649TIP3    H171362   0.071   5.329   1.694  0.5353 -0.8422  1.8553
16649TIP3    H271363   0.096   5.181   1.713 -1.2908 -1.0339  3.0467
16650TIP3   OH271364   2.646   2.667  11.568 -0.3196 -0.0123  0.8054
16650TIP3    H171365   2.610   2.695  11.652 -0.2949 -0.9703  1.1510
16650TIP3    H271366   2.661   2.573  11.579  1.0221  0.1080  0.2116
16651TIP3   OH271367   1.296   5.647  16.983  0.3200  0.3427  0.0895
16651TIP3    H171368   1.312   5.554  16.970  1.7943  0.5006  0.6025
16651TIP3    H271369   1.201   5.656  16.979  0.2226 -0.8903 -1.8218
16652TIP3   OH271370   1.750   4.728   2.015  0.1973  0.3107  0.3351
16652TIP3    H171371   1.708   4.699   2.095 -0.5238  2.3969  0.7639
16652TIP3    H271372   1.708   4.676   1.946 -2.9500  2.0451  0.7712
16653TIP3   OH271373   6.244   6.526   1.756  0.3272  0.3580 -0.2689
16653TIP3    H171374   6.333   6.504   1.727  0.1932 -0.8695  0.2258
16653TIP3    H271375   6.247   6.621   1.769  1.1670  0.5479 -1.6091
16654TIP3   OH271376   6.102   6.617   3.684  0.0126  0.5691 -0.6541
16654TIP3    H171377   6.083   6.706   3.714  0.5668  0.7691 -0.8783
16654TIP3    H271378   6.185   6.625   3.637  0.3676 -0.1703 -0.1728
16655TIP3   OH271379   3.058   1.290   0.223  0.0636  0.3713 -0.3422
16655TIP3    H171380   3.059   1.371   0.274  0.5389  0.6282 -0.7473
16655TIP3    H271381   3.002   1.310   0.148 -4.0395 -1.2399  1.9732
16656TIP3   OH271382   3.080   2.910   0.625 -0.2083  0.0422 -0.2940
16656TIP3    H171383   3.161   2.859   0.629  0.6195  1.2872 -0.4628
16656TIP3    H271384   3.110   3.001   0.622 -1.6262  0.5260 -0.3169
16657TIP3   OH271385   6.427   1.640  10.677  0.5726 -0.1862  0.6942
16657TIP3    H171386   6.445   1.705  10.744 -0.3554 -1.3742  2.1565
16657TIP3    H271387   6.501   1.647  10.616  1.0234  1.4645  1.3781
16658TIP3   OH271388   5.189   0.008  11.544 -0.2870  0.1962 -0.2695
16658TIP3    H171389   5.128   0.017  11.617  0.9320 -1.4295  1.0272
16658TIP3    H271390   5.228   0.095  11.534 -0.5585  0.4710  0.9512
16659TIP3   OH271391   4.292   5.861  16.673 -0.2265 -0.1285  0.1520
16659TIP3    H171392   4.363   5.923  16.661  1.3850 -2.0342 -0.7904
16659TIP3    H271393   4.230   5.880  16.603 -0.5918  1.4046  0.8507
16660TIP3   OH271394   6.253   6.313  14.513  0.1290 -0.2900  0.0021
16660TIP3    H171395   6.344   6.333  14.490  0.3552 -1.9544 -0.7308
16660TIP3    H271396   6.201   6.350  14.441  0.3019 -0.0509 -0.0001
16661TIP3   OH271397   3.939   3.234   0.079  0.0685 -0.4217 -0.2575
16661TIP3    H171398   3.989   3.270   0.153 -0.9420 -1.0644  0.7776
16661TIP3    H271399   3.977   3.147   0.066  1.3785  0.3192 -1.6438
16662TIP3   OH271400   5.757   0.273  13.869  0.0592 -0.0085  0.1682
16662TIP3    H171401   5.813   0.346  13.897  0.8793 -0.4608 -0.2474
16662TIP3    H271402   5.762   0.275  13.773  0.6896 -1.0505  0.1647
16663TIP3   OH271403   0.515   6.161  16.767  0.4325 -0.1513  0.3515
16663TIP3    H171404   0.491   6.209  16.846  0.6152  0.1302  0.2369
16663TIP3    H271405   0.560   6.083  16.799 -0.4310 -0.5790  0.5634
16664TIP3   OH271406   5.651   0.304   0.587  0.1872 -0.0779  0.1594
16664TIP3    H171407   5.684   0.297   0.677  1.1964 -0.8347 -0.2414
16664TIP3    H271408   5.661   0.215   0.552 -0.2889  0.1931 -0.6713
16665TIP3   OH271409   1.240   4.974   6.797  0.3715 -0.0375  0.2021
16665TIP3    H171410   1.304   4.910   6.768  1.0349 -0.3125  2.1401
16665TIP3    H271411   1.183   4.926   6.857  0.0747  0.8634  0.6605
16666TIP3   OH271412   4.370   3.090   3.562 -0.0605  0.2839 -0.4472
16666TIP3    H171413   4.378   3.001   3.596 -0.5783  0.5228  0.3301
16666TIP3    H271414   4.390   3.082   3.468 -0.3063 -0.6798 -0.4272
16667TIP3   OH271415   1.710   6.195  15.866  0.1111  0.5202 -0.8219
16667TIP3    H171416   1.653   6.140  15.919  2.3236 -1.2756 -0.1498
16667TIP3    H271417   1.670   6.195  15.779 -0.6679 -1.0911 -0.4987
16668TIP3   OH271418   6.316   3.984  10.752 -0.8097  0.4345 -0.6148
16668TIP3    H171419   6.329   4.079  10.752  0.0158  0.3338 -0.8032
16668TIP3    H271420   6.307   3.962  10.659  0.7307  0.1247 -0.7115
16669TIP3   OH271421   2.905   3.586   1.989  0.9877 -0.1062 -0.1708
16669TIP3    H171422   2.869   3.611   1.904  1.4705  2.8924  0.3988
16669TIP3    H271423   2.996   3.616   1.987  1.9557 -2.6984  0.3899
16670TIP3   OH271424   0.546   0.918   4.172 -0.4109  0.4554  0.1070
16670TIP3    H171425   0.572   0.827   4.183 -0.7744  0.1815 -1.1850
16670TIP3    H271426   0.629   0.966   4.162 -0.2306  0.2601  0.6012
16671TIP3   OH271427   1.318   5.980   6.226 -0.6778  0.2019 -0.1230
16671TIP3    H171428   1.350   6.057   6.179 -3.6240  1.3203 -0.4828
16671TIP3    H271429   1.295   6.012   6.313  2.2904 -1.3277  1.4032
16672TIP3   OH271430   3.431   4.443   0.695 -0.3098  0.6659  0.7013
16672TIP3    H171431   3.407   4.532   0.722 -0.3939  0.8863 -0.0666
16672TIP3    H271432   3.462   4.453   0.605 -1.3834 -0.2381  0.2068
16673TIP3   OH271433   0.383   3.086  12.431 -0.2975  0.2232  0.5316
16673TIP3    H171434   0.375   3.149  12.360 -2.8309  1.7322  2.0069
16673TIP3    H271435   0.342   3.006  12.396  0.8964  0.0665 -0.5717
16674TIP3   OH271436   5.215   0.154  12.739 -0.2886  0.0782 -0.1098
16674TIP3    H171437   5.267   0.203  12.675  0.3726 -0.3931  0.0558
16674TIP3    H271438   5.230   0.200  12.822  0.4488 -0.4728  0.0732
16675TIP3   OH271439   3.530   2.062  15.042  0.0249  0.1883 -0.5247
16675TIP3    H171440   3.624   2.046  15.035 -0.0880 -0.1815 -1.2786
16675TIP3    H271441   3.489   1.982  15.009 -0.5703 -0.2690  1.2579
16676TIP3   OH271442   0.544   2.014  11.996 -0.2875 -0.2764  0.7531
16676TIP3    H171443   0.621   2.038  11.945 -0.3911 -2.2293 -0.4316
16676TIP3    H271444   0.552   2.065  12.077  1.0852  1.1728 -0.2418
16677TIP3   OH271445   0.660   4.107   5.284  0.1189  0.1039  0.5724
16677TIP3    H171446   0.656   4.014   5.307 -1.1049  0.2144  0.8706
16677TIP3    H271447   0.728   4.143   5.339  1.7068 -0.9074 -0.6404
16678TIP3   OH271448   4.290   5.578  10.843 -0.3158  0.1321  0.1124
16678TIP3    H171449   4.276   5.673  10.839 -1.1155  0.0133  0.0520
16678TIP3    H271450   4.354   5.561  10.773 -0.3042  0.5997  0.0047
16679TIP3   OH271451   0.617   5.771   6.213 -0.1876 -0.3640 -0.0992
16679TIP3    H171452   0.558   5.802   6.282 -0.0203 -0.7921  0.2352
16679TIP3    H271453   0.601   5.831   6.140 -0.1086  0.3119  0.4267
16680TIP3   OH271454   2.625   0.556  14.944  0.0761  0.7993  0.2531
16680TIP3    H171455   2.640   0.493  14.873  0.8771 -0.3550  1.3903
16680TIP3    H271456   2.577   0.628  14.903 -0.3455 -0.2802 -1.2375
16681TIP3   OH271457   5.595   2.887   5.416  0.5000  0.3764  0.3802
16681TIP3    H171458   5.631   2.799   5.403  0.4813 -0.0392  2.7120
16681TIP3    H271459   5.558   2.911   5.331  0.6896 -1.7764 -0.3644
16682TIP3   OH271460   4.130   3.448  11.230  0.5094 -0.3983  0.3292
16682TIP3    H171461   4.172   3.534  11.227  1.4053 -0.8161  0.6074
16682TIP3    H271462   4.088   3.440  11.144 -0.2701  0.6380  0.5861
16683TIP3   OH271463   4.937   4.400   0.522  0.0720  0.1608  0.2714
16683TIP3    H171464   4.922   4.422   0.430 -0.8590 -1.2783  0.0473
16683TIP3    H271465   5.026   4.365   0.524  1.1768  2.7362  0.4579
16684TIP3   OH271466   2.620   5.501   5.543 -0.0626  0.7884 -0.3112
16684TIP3    H171467   2.586   5.562   5.478 -1.1097  0.3890 -0.1660
16684TIP3    H271468   2.665   5.557   5.607 -2.5912  1.6925  0.8266
16685TIP3   OH271469   5.173   4.085  15.114 -0.0430 -0.2393 -0.1934
16685TIP3    H171470   5.188   4.153  15.179 -2.4448 -1.2966  1.6105
16685TIP3    H271471   5.243   4.022  15.128  0.8257  0.6698 -0.2992
16686TIP3   OH271472   2.539   0.068  10.178 -0.1617 -0.3963 -0.6791
16686TIP3    H171473   2.519   0.161  10.191  0.2048 -0.5939  1.7305
16686TIP3    H271474   2.604   0.068  10.108 -0.0504  1.1734 -0.6284
16687TIP3   OH271475   4.750   1.070   0.104 -0.3831  0.2659  0.5125
16687TIP3    H171476   4.699   1.058   0.024 -0.2283  2.9753 -0.0954
16687TIP3    H271477   4.834   1.029   0.086  0.3195  2.4159 -1.5274
16688TIP3   OH271478   4.695   0.469   4.943  0.3609 -0.0626  0.3983
16688TIP3    H171479   4.735   0.383   4.952  0.1199 -0.3393 -0.9774
16688TIP3    H271480   4.659   0.470   4.854  0.1626  1.3747  0.4671
16689TIP3   OH271481   1.703   5.825   5.780  0.1350  0.2635 -0.6139
16689TIP3    H171482   1.793   5.847   5.803  0.1008 -1.2061  1.0935
16689TIP3    H271483   1.700   5.729   5.780 -1.6777  0.2718  0.4869
16690TIP3   OH271484   5.001   4.358  11.919 -0.4498 -0.0366 -0.1511
16690TIP3    H171485   5.075   4.379  11.862 -0.3270 -1.4577 -0.5685
16690TIP3    H271486   4.926   4.402  11.879 -0.0854  0.2176 -0.5626
16691TIP3   OH271487   5.111   3.208  14.013 -0.6148 -0.2409  0.0136
16691TIP3    H171488   5.163   3.199  14.092 -1.2331 -2.3844  0.2316
16691TIP3    H271489   5.170   3.180  13.942 -0.2915  0.9996 -0.2386
16692TIP3   OH271490   1.472   4.771   1.919 -0.0352 -0.2002  0.1162
16692TIP3    H171491   1.412   4.836   1.956  0.3638  0.8425 -1.0031
16692TIP3    H271492   1.553   4.784   1.969 -0.1467 -0.2964  0.3273
16693TIP3   OH271493   2.953   1.740  11.009  0.5017 -0.2745 -0.6861
16693TIP3    H171494   2.905   1.822  10.999 -1.2487 -0.9144  1.5216
16693TIP3    H271495   2.908   1.678  10.951 -1.2522 -0.7661  1.0760
16694TIP3   OH271496   6.684   5.479  12.991 -0.3094 -0.0676 -0.5288
16694TIP3    H171497   6.766   5.526  13.007 -0.9579  0.1795  2.9148
16694TIP3    H271498   6.617   5.547  12.984 -0.8575 -0.2591  1.8122
16695TIP3   OH271499   1.664   6.473  16.339 -0.3612  0.2447 -0.1198
16695TIP3    H171500   1.606   6.548  16.330 -1.4390 -0.6268 -0.8239
16695TIP3    H271501   1.607   6.401  16.364  0.1493 -0.9525 -2.1574
16696TIP3   OH271502   4.924   6.103  16.348 -0.7183  0.2162  0.3043
16696TIP3    H171503   4.884   6.090  16.434  0.1987  0.9015  0.8517
16696TIP3    H271504   4.890   6.187  16.318 -0.7013  0.1807  0.1824
16697TIP3   OH271505   6.490   0.337  11.167 -0.1825  0.5415 -0.3309
16697TIP3    H171506   6.579   0.323  11.201 -0.7307  0.9165  1.3878
16697TIP3    H271507   6.502   0.360  11.075  1.4546 -0.0463 -0.2936
16698TIP3   OH271508   0.010   2.245  12.832  0.6167  0.4022 -0.4232
16698TIP3    H171509  -0.001   2.171  12.892 -0.2065  0.9371  0.1060
16698TIP3    H271510   0.077   2.300  12.873  1.1100  0.0441 -0.7352
16699TIP3   OH271511   1.643   3.541  11.693 -0.6604  0.7316  0.2392
16699TIP3    H171512   1.718   3.546  11.752 -0.4074 -1.0728  0.1250
16699TIP3    H271513   1.628   3.632  11.665 -0.8048  1.6793  3.0769
16700TIP3   OH271514   1.777   2.268   4.580  0.0284 -0.4728 -0.0852
16700TIP3    H171515   1.690   2.304   4.566 -0.8738 -1.1743  2.9975
16700TIP3    H271516   1.766   2.173   4.571  0.3318 -0.5957  0.6982
16701TIP3   OH271517   4.294   1.284  13.577  0.8039 -0.7315  0.5408
16701TIP3    H171518   4.247   1.234  13.510  3.1925  0.2965 -2.1111
16701TIP3    H271519   4.224   1.325  13.629 -1.1638 -2.6423 -0.4140
16702TIP3   OH271520   0.106   5.220   2.455  0.5896  0.7313  0.2336
16702TIP3    H171521   0.087   5.127   2.463  2.6604  0.2989  0.4904
16702TIP3    H271522   0.161   5.227   2.377 -0.0611  1.8487 -0.1547
16703TIP3   OH271523   1.684   5.396   1.117  0.0834  0.6498 -0.2137
16703TIP3    H171524   1.648   5.322   1.168  0.1488  0.7850  0.0324
16703TIP3    H271525   1.768   5.414   1.159  0.0556  0.8817 -0.2590
16704TIP3   OH271526   2.728   4.763   3.204  0.5544 -0.5124 -0.1855
16704TIP3    H171527   2.795   4.809   3.153  0.2012  0.0383 -0.1708
16704TIP3    H271528   2.728   4.674   3.170  1.8346 -0.7411  0.3421
16705TIP3   OH271529   0.280   5.560   6.792  0.0227  0.6408 -0.0779
16705TIP3    H171530   0.309   5.545   6.702 -0.7758  0.3746 -0.3063
16705TIP3    H271531   0.228   5.640   6.788  1.1226  1.4139  0.4251
16706TIP3   OH271532   1.394   6.727   4.918 -0.4739 -0.2754 -0.5399
16706TIP3    H171533   1.329   6.789   4.886 -0.0583  1.4961  1.7753
16706TIP3    H271534   1.379   6.722   5.012 -0.4695 -3.7788 -0.5820
16707TIP3   OH271535   0.923   2.097   2.732  0.2220  0.1021 -0.1053
16707TIP3    H171536   1.015   2.108   2.710  0.2440  0.8197  0.3019
16707TIP3    H271537   0.890   2.186   2.743 -0.0480 -0.1723  1.6200
16708TIP3   OH271538   5.951   1.497   5.367 -0.2332  0.4002 -0.0104
16708TIP3    H171539   5.868   1.450   5.378 -0.9546  1.1833 -1.6760
16708TIP3    H271540   5.954   1.518   5.274  0.0779  3.5154  0.5772
16709TIP3   OH271541   2.806   6.787  10.751 -0.2790  0.1908  0.3528
16709TIP3    H171542   2.838   6.721  10.689 -0.6968  0.1713  0.1570
16709TIP3    H271543   2.840   6.870  10.717  1.4547 -0.0535  1.3812
16710TIP3   OH271544   1.497   1.052   3.229 -0.3927 -0.2848  0.1211
16710TIP3    H171545   1.539   1.112   3.167 -0.5695  0.2231  0.4885
16710TIP3    H271546   1.406   1.048   3.202 -0.3242 -0.6111 -0.0715
16711TIP3   OH271547   3.254   4.345  15.539 -0.1096 -0.1219 -0.7646
16711TIP3    H171548   3.229   4.299  15.619  0.6736  0.5120 -0.1353
16711TIP3    H271549   3.340   4.310  15.517 -0.0419  0.1694 -0.9625
16712TIP3   OH271550   1.610   2.407   3.972  0.3117  0.8618  0.4754
16712TIP3    H171551   1.551   2.480   3.989 -1.4713 -0.4180  0.1632
16712TIP3    H271552   1.643   2.382   4.058  0.1281  1.3909  0.7052
16713TIP3   OH271553   6.164   0.101   1.375  0.0085  0.3244 -0.4184
16713TIP3    H171554   6.203   0.186   1.358  0.7983  0.0358 -0.0807
16713TIP3    H271555   6.137   0.069   1.289  1.5054  0.0607 -0.8122
16714TIP3   OH271556   5.123   0.976   0.907  0.0757 -0.0334  0.8526
16714TIP3    H171557   5.162   1.057   0.937  1.8207 -0.8545  0.9103
16714TIP3    H271558   5.120   0.920   0.985  1.2663 -0.9006  0.2983
16715TIP3   OH271559   3.670   4.350  13.498  0.1781 -0.2623  0.0173
16715TIP3    H171560   3.579   4.363  13.472  0.4580  0.1689 -0.7942
16715TIP3    H271561   3.720   4.362  13.417  0.9437 -0.6851  0.4099
16716TIP3   OH271562   5.911   1.580  16.365  0.5211  0.2875 -0.3906
16716TIP3    H171563   5.910   1.648  16.299 -0.9592 -0.4249 -1.1586
16716TIP3    H271564   5.861   1.616  16.438 -2.7198 -0.8008 -1.8267
16717TIP3   OH271565   3.932   6.566   0.432  0.1485 -0.2101  0.5192
16717TIP3    H171566   3.865   6.570   0.499  1.7992 -0.4305  2.2693
16717TIP3    H271567   3.956   6.473   0.427 -0.9143 -0.4413 -1.4487
16718TIP3   OH271568   2.967   5.164   1.270  0.1405  0.0343 -0.0417
16718TIP3    H171569   3.014   5.117   1.201 -0.5922 -0.9477  0.1155
16718TIP3    H271570   2.954   5.099   1.339 -0.6208  0.5519  0.3125
16719TIP3   OH271571   1.146   0.933  12.804 -0.1451 -0.1630 -0.0209
16719TIP3    H171572   1.170   0.937  12.712  0.9113  1.6087  0.2936
16719TIP3    H271573   1.230   0.921  12.850 -0.8723 -4.2430  0.6247
16720TIP3   OH271574   4.123   1.401   4.149  0.1650 -0.3524 -0.3373
16720TIP3    H171575   4.187   1.448   4.202 -2.2104  0.8249  1.7049
16720TIP3    H271576   4.058   1.467   4.126 -2.4465 -2.2037  1.2363
16721TIP3   OH271577   0.777   1.350   0.096 -0.0381  0.0321 -0.1441
16721TIP3    H171578   0.758   1.315   0.009  1.5107 -0.1666 -0.4250
16721TIP3    H271579   0.857   1.306   0.123 -0.2325  0.4437  1.1980
16722TIP3   OH271580   2.420   4.258   6.912 -0.2043 -0.1454 -0.3016
16722TIP3    H171581   2.503   4.210   6.910 -0.9286 -1.4826  0.1423
16722TIP3    H271582   2.378   4.236   6.829 -0.4538 -0.1400 -0.1791
16723TIP3   OH271583   3.000   3.132  14.777 -0.1449 -0.5752  0.3271
16723TIP3    H171584   2.972   3.092  14.859 -0.2120 -1.8217 -0.2953
16723TIP3    H271585   2.925   3.185  14.749 -0.4025 -0.7627  0.6646
16724TIP3   OH271586   5.105   5.109   2.008  0.4916  0.5256 -0.1934
16724TIP3    H171587   5.053   5.071   1.939 -0.7478  0.8697  0.5239
16724TIP3    H271588   5.152   5.181   1.966 -0.1913  0.6873 -0.6912
16725TIP3   OH271589   4.610   0.548   5.241  0.0206  0.0368 -0.4397
16725TIP3    H171590   4.626   0.527   5.149  1.5979  0.2175 -0.2279
16725TIP3    H271591   4.601   0.643   5.243 -0.7236 -0.0241 -0.4892
16726TIP3   OH271592   3.965   2.404   3.275 -0.4718 -0.6317 -0.3690
16726TIP3    H171593   4.030   2.463   3.315 -1.9423  0.4630  0.5514
16726TIP3    H271594   3.955   2.437   3.186 -0.2422 -0.3647 -0.2996
16727TIP3   OH271595   1.273   0.782   2.462  0.0133  0.4266 -0.0734
16727TIP3    H171596   1.217   0.712   2.429 -0.6902  0.7507  0.4260
16727TIP3    H271597   1.343   0.789   2.396  0.1274 -0.7654 -0.1027
16728TIP3   OH271598   0.768   2.058   4.482  0.2666  0.0286  0.4747
16728TIP3    H171599   0.745   2.032   4.393  0.0138  2.7842 -0.3547
16728TIP3    H271600   0.864   2.064   4.481  0.2109  1.1064  0.0193
16729TIP3   OH271601   2.722   4.900   6.375 -0.3097 -0.5620 -0.2906
16729TIP3    H171602   2.698   4.912   6.467 -0.8389 -1.8797 -0.2262
16729TIP3    H271603   2.807   4.856   6.378  0.6641  1.2183 -0.4851
16730TIP3   OH271604   0.334   5.697  10.789 -0.3915 -0.5937 -0.1691
16730TIP3    H171605   0.263   5.718  10.849 -1.3134 -0.9856 -1.0942
16730TIP3    H271606   0.340   5.773  10.732  0.5435 -0.1837  0.4464
16731TIP3   OH271607   0.005   0.567   1.449 -0.0900  0.4955 -0.8451
16731TIP3    H171608   0.091   0.583   1.487  0.6866  0.9273 -2.6865
16731TIP3    H271609  -0.046   0.644   1.473  0.1218  0.3923 -0.0233
16732TIP3   OH271610   5.650   1.378  14.346  0.6998 -0.5348  0.6627
16732TIP3    H171611   5.645   1.447  14.412 -2.4037  0.4785 -0.4779
16732TIP3    H271612   5.691   1.421  14.270 -0.5173 -0.1256  0.2169
16733TIP3   OH271613   2.711   0.473  11.180  0.3347 -0.2921  0.0552
16733TIP3    H171614   2.630   0.478  11.231  1.0051 -3.2640  1.6306
16733TIP3    H271615   2.726   0.563  11.151 -2.2782  0.7906  1.6638
16734TIP3   OH271616   3.646   4.280  11.461  0.5876  0.6953 -0.5644
16734TIP3    H171617   3.603   4.352  11.413 -2.6317 -1.7760 -1.8204
16734TIP3    H271618   3.584   4.257  11.530  2.7402  0.7087  1.4804
16735TIP3   OH271619   0.915   6.732   1.889 -0.1078 -0.9686 -0.4078
16735TIP3    H171620   0.851   6.803   1.885  0.3342 -0.5722 -0.5677
16735TIP3    H271621   0.886   6.670   1.822  0.2612 -0.2944 -1.2085
16736TIP3   OH271622   2.591   3.801  12.077  0.2149 -0.1871  0.0121
16736TIP3    H171623   2.570   3.708  12.084 -0.0901 -0.0346  1.3552
16736TIP3    H271624   2.505   3.844  12.077  0.3432  0.0965 -0.8864
16737TIP3   OH271625   5.942   3.872  15.012 -0.1285 -0.2554 -0.1102
16737TIP3    H171626   5.859   3.913  14.988 -0.2137 -0.7288 -0.6489
16737TIP3    H271627   6.003   3.944  15.023 -1.0569  0.2769  2.2087
16738TIP3   OH271628   0.059   3.195   3.330  0.1807  0.1931  0.4621
16738TIP3    H171629   0.014   3.221   3.410 -1.9571 -0.0188 -0.5875
16738TIP3    H271630   0.048   3.100   3.327 -0.5493  0.2861 -0.4810
16739TIP3   OH271631   4.087   1.927  16.182  0.3858  0.0570  0.5741
16739TIP3    H171632   4.153   1.872  16.140 -1.5548 -0.4792 -2.0655
16739TIP3    H271633   4.046   1.871  16.247 -0.0157 -0.8894 -0.4682
16740TIP3   OH271634   4.334   1.064  15.353 -0.3689  0.4243 -0.0354
16740TIP3    H171635   4.330   0.969  15.356 -2.5332  0.4392 -0.5025
16740TIP3    H271636   4.257   1.089  15.300 -0.3757  2.4476  0.8455
16741TIP3   OH271637   4.746   0.899  15.337  0.4554 -0.0170 -0.2042
16741TIP3    H171638   4.722   0.824  15.283 -1.1036  0.1542  0.1861
16741TIP3    H271639   4.689   0.969  15.307  1.3363  0.7985 -0.0168
16742TIP3   OH271640   0.499   3.821   1.902 -0.5263 -0.5584 -0.4642
16742TIP3    H171641   0.434   3.876   1.945  0.9772  0.3204  0.7583
16742TIP3    H271642   0.552   3.881   1.850  0.4398 -0.9816  0.0011
16743TIP3   OH271643   2.768   6.238   4.333 -0.2736  0.2833 -0.2443
16743TIP3    H171644   2.767   6.148   4.368 -0.2483  0.6429  0.6998
16743TIP3    H271645   2.676   6.257   4.313 -0.1452 -0.3777 -1.6088
16744TIP3   OH271646   1.017   3.938  12.041  0.9749 -0.3724 -0.4170
16744TIP3    H171647   1.037   3.860  11.989  0.0466 -0.9004 -0.0030
16744TIP3    H271648   0.933   3.918  12.083  1.0245  0.6083  0.1739
16745TIP3   OH271649   2.968   5.208   3.564 -0.4484  0.1956 -0.2160
16745TIP3    H171650   2.923   5.281   3.521 -0.2814  0.4882  0.1036
16745TIP3    H271651   2.898   5.159   3.608 -0.3402  1.3040  1.2534
16746TIP3   OH271652   5.979   2.278  14.222  0.0121  0.0324  0.2654
16746TIP3    H171653   6.071   2.263  14.240  0.1291  0.3648 -0.0455
16746TIP3    H271654   5.933   2.242  14.298  0.3986 -0.0919  0.4397
16747TIP3   OH271655   4.422   4.093  15.946  0.0630  0.2973  0.3963
16747TIP3    H171656   4.331   4.079  15.920  0.3275 -0.5527 -0.1251
16747TIP3    H271657   4.443   4.019  16.003  1.2372 -1.1382 -1.7243
16748TIP3   OH271658   6.413   1.774  13.857  0.3707  0.1794  0.2820
16748TIP3    H171659   6.430   1.866  13.878  1.5885  0.0588 -0.0963
16748TIP3    H271660   6.329   1.755  13.900  0.2413  1.3789  0.6065
16749TIP3   OH271661   6.311   2.328  12.290 -0.5061  0.1185 -0.4280
16749TIP3    H171662   6.271   2.414  12.277 -1.0209 -0.1272 -0.4631
16749TIP3    H271663   6.288   2.303  12.379 -0.1759  0.1072 -0.3421
16750TIP3   OH271664   0.446   0.590  14.986 -0.3953 -0.2514 -0.0761
16750TIP3    H171665   0.384   0.537  14.935 -1.8025  0.5106  0.7658
16750TIP3    H271666   0.401   0.605  15.069  1.1565 -0.0767  0.7690
16751TIP3   OH271667   4.097   3.066   3.517  0.2520 -0.4274  0.0111
16751TIP3    H171668   4.067   3.055   3.608  0.5321 -1.4326 -0.0039
16751TIP3    H271669   4.181   3.111   3.524  0.2870 -0.5289  0.2519
16752TIP3   OH271670   4.217   0.426  15.026 -0.4526 -0.0893  0.2708
16752TIP3    H171671   4.258   0.402  14.943 -3.2211  1.1372 -1.5985
16752TIP3    H271672   4.218   0.345  15.078  1.4292 -0.8603 -0.8840
16753TIP3   OH271673   5.960   2.851  12.558 -0.2580 -0.3513  0.1626
16753TIP3    H171674   5.889   2.883  12.502 -0.9598 -2.3115 -0.1334
16753TIP3    H271675   6.011   2.929  12.579 -2.2651  1.0612  0.0586
16754TIP3   OH271676   6.635   0.103   3.375  0.1877  0.6387 -0.1186
16754TIP3    H171677   6.644   0.023   3.323 -1.1734  1.4374 -1.6704
16754TIP3    H271678   6.564   0.085   3.436 -0.6234  0.8963 -0.9720
16755TIP3   OH271679   5.743   0.580  11.743 -0.7471 -0.2108  0.0191
16755TIP3    H171680   5.660   0.560  11.700 -0.4565  0.5215 -0.9013
16755TIP3    H271681   5.810   0.538  11.688 -0.4855 -0.6047  0.6289
16756TIP3   OH271682   3.623   5.824  16.278  0.1229  0.2562 -0.2441
16756TIP3    H171683   3.698   5.862  16.231  0.1064  0.2527 -0.2730
16756TIP3    H271684   3.628   5.862  16.365 -0.6881  1.3856 -0.6755
16757TIP3   OH271685   3.378   5.315  13.148  0.2992 -0.2677 -0.0382
16757TIP3    H171686   3.283   5.315  13.155  0.1084  1.3011 -1.6986
16757TIP3    H271687   3.405   5.227  13.176 -1.6170 -0.7193  0.4943
16758TIP3   OH271688   5.215   5.694  12.408  0.6478 -0.5470 -0.1213
16758TIP3    H171689   5.257   5.615  12.374  0.3129 -0.2537 -1.2277
16758TIP3    H271690   5.284   5.760  12.408  0.6733 -0.5737 -0.1351
16759TIP3   OH271691   1.276   6.001  14.478 -0.5282  0.1331 -0.6249
16759TIP3    H171692   1.311   6.047  14.402 -0.0157 -0.8848 -1.0212
16759TIP3    H271693   1.217   5.935  14.441 -1.8401  0.9216 -0.0323
16760TIP3   OH271694   3.846   3.412   4.739  0.0104  0.3708  0.0275
16760TIP3    H171695   3.866   3.505   4.752 -2.0906  0.9489 -0.5176
16760TIP3    H271696   3.782   3.392   4.807  0.7013 -0.7997  0.3563
16761TIP3   OH271697   1.207   2.048   5.879 -0.2064  0.2088  0.4537
16761TIP3    H171698   1.206   2.007   5.966 -0.0820  0.8646  0.7720
16761TIP3    H271699   1.118   2.035   5.846  0.2789 -1.8806 -0.2277
16762TIP3   OH271700   1.879   4.817   0.766  0.4442  0.7668  0.4435
16762TIP3    H171701   1.862   4.830   0.859 -1.7549  0.9872  0.0632
16762TIP3    H271702   1.945   4.748   0.762 -0.4246 -0.2060  2.1426
16763TIP3   OH271703   0.817   6.652   0.231  0.0708  0.2761 -0.5358
16763TIP3    H171704   0.774   6.567   0.218  1.2312 -0.0633 -2.5660
16763TIP3    H271705   0.909   6.630   0.246  0.5138  1.1687 -1.7930
16764TIP3   OH271706   3.094   6.042   0.450 -0.6728 -0.2343  0.0805
16764TIP3    H171707   3.066   6.018   0.539  2.8271  0.9911  1.6791
16764TIP3    H271708   3.071   6.134   0.442  2.4069  0.7574  1.3727
16765TIP3   OH271709   6.164   6.381  16.514 -0.1479  0.7198  0.2316
16765TIP3    H171710   6.078   6.406  16.481 -0.5154  0.0815  0.6883
16765TIP3    H271711   6.172   6.426  16.598  0.0311  0.9095  0.1129
16766TIP3   OH271712   4.862   1.266   0.519 -0.2363 -0.0359 -0.2932
16766TIP3    H171713   4.944   1.311   0.538 -0.1861 -0.1828 -0.1566
16766TIP3    H271714   4.852   1.273   0.425 -0.6053  0.9059 -0.1896
16767TIP3   OH271715   1.134   0.132  11.050  0.0672  0.4974 -0.0644
16767TIP3    H171716   1.198   0.086  11.105  0.6146  0.0200 -1.0704
16767TIP3    H271717   1.093   0.062  10.998 -1.5848  0.7397  0.8471
16768TIP3   OH271718   5.496   1.710  16.726 -0.3981  0.1474 -0.0741
16768TIP3    H171719   5.455   1.739  16.645 -0.7973 -2.1116 -0.7505
16768TIP3    H271720   5.443   1.748  16.796 -0.4892  1.5046 -0.8390
16769TIP3   OH271721   5.486   2.749   1.312  0.5880 -0.0111  0.8615
16769TIP3    H171722   5.478   2.722   1.404 -3.7564 -0.2017  0.6686
16769TIP3    H271723   5.520   2.839   1.316 -0.7250  0.4685  2.8408
16770TIP3   OH271724   3.840   5.483  16.433  0.4022  0.3256 -0.0806
16770TIP3    H171725   3.927   5.447  16.452 -0.1872 -1.0964  0.0144
16770TIP3    H271726   3.837   5.565  16.483  1.0463 -0.4810  1.3550
16771TIP3   OH271727   0.841   1.970  13.886  0.0208  0.1649  0.0396
16771TIP3    H171728   0.836   1.876  13.870  1.1236 -0.0122  0.6012
16771TIP3    H271729   0.917   1.980  13.944  1.7988  1.6587 -2.3450
16772TIP3   OH271730   3.026   5.522  15.008 -0.3336  0.4950  0.4852
16772TIP3    H171731   2.950   5.471  15.034 -0.1531  0.5536  1.1391
16772TIP3    H271732   3.062   5.474  14.933  0.2499 -0.7499  1.5291
16773TIP3   OH271733   1.268   0.733  15.159 -0.7444  0.0866 -0.6351
16773TIP3    H171734   1.290   0.735  15.066  3.5312 -1.9181  0.1062
16773TIP3    H271735   1.324   0.800  15.198  0.1852 -1.4673  0.8367
16774TIP3   OH271736   3.652   2.756   0.626  0.2161  0.1605  0.1173
16774TIP3    H171737   3.587   2.801   0.678  1.1476  1.3563  0.2839
16774TIP3    H271738   3.690   2.824   0.570  1.4059 -0.4717  0.1198
16775TIP3   OH271739   0.291   2.305  13.425 -0.0482 -0.2337 -0.0359
16775TIP3    H171740   0.199   2.282  13.441 -0.6687  2.0278  0.0617
16775TIP3    H271741   0.330   2.310  13.512  0.8173 -3.3371 -0.1580
16776TIP3   OH271742   5.018   2.715   1.891 -0.1598 -0.5732 -0.2166
16776TIP3    H171743   5.026   2.620   1.879  0.3651 -0.4351 -1.0530
16776TIP3    H271744   5.100   2.750   1.856 -0.0524  0.1448  0.7121
16777TIP3   OH271745   5.331   3.011   4.476 -0.7667  0.2939  0.2558
16777TIP3    H171746   5.414   2.965   4.460 -1.5249 -1.3081  0.7759
16777TIP3    H271747   5.275   2.946   4.519 -2.1581  1.4788  0.3072
16778TIP3   OH271748   2.178   3.569   1.258  0.2811  0.5731  0.3820
16778TIP3    H171749   2.129   3.648   1.236  1.6215  1.1343 -0.7580
16778TIP3    H271750   2.221   3.544   1.176  0.5153 -0.8792  0.9222
16779TIP3   OH271751   5.800   0.015   6.085 -0.5410 -0.0331 -0.6019
16779TIP3    H171752   5.707  -0.006   6.083 -0.4395 -0.7760  0.8642
16779TIP3    H271753   5.807   0.085   6.149  0.1651 -1.7794  1.3532
16780TIP3   OH271754   5.948   3.927  11.119 -0.7335 -0.0174 -0.2804
16780TIP3    H171755   5.985   3.985  11.053 -0.0411 -0.4441 -0.2767
16780TIP3    H271756   6.023   3.897  11.171 -1.3654  1.1883  1.4370
16781TIP3   OH271757   3.199   3.746  13.535  0.1360  0.9491  0.2838
16781TIP3    H171758   3.184   3.840  13.540  1.2903  1.2499 -1.2710
16781TIP3    H271759   3.115   3.707  13.562 -0.2927  2.3962  1.1316
16782TIP3   OH271760   3.418   2.259  15.449  0.2035  0.0227  0.2522
16782TIP3    H171761   3.498   2.310  15.458  0.1626  0.2631 -0.6874
16782TIP3    H271762   3.417   2.230  15.358 -0.2223 -0.9178  0.5350
16783TIP3   OH271763   5.032   6.557   5.495  0.3048  0.7186 -0.3149
16783TIP3    H171764   4.952   6.549   5.547  1.3293 -0.8864  1.0969
16783TIP3    H271765   5.004   6.537   5.405 -0.7559 -0.5273  0.2595
16784TIP3   OH271766   1.694   0.198   2.702 -0.6129 -0.1655  0.0710
16784TIP3    H171767   1.773   0.231   2.745 -0.4567  0.2542 -0.5268
16784TIP3    H271768   1.710   0.104   2.693 -0.3467 -0.1433  0.2879
16785TIP3   OH271769   6.292   5.243   0.671  0.8102  0.0495 -0.0423
16785TIP3    H171770   6.291   5.299   0.749  0.2360  0.5169 -0.3737
16785TIP3    H271771   6.200   5.220   0.657  1.2364 -3.2215  1.6374
16786TIP3   OH271772   1.970   0.224  16.656 -0.1794  0.0211  0.0437
16786TIP3    H171773   2.063   0.219  16.678  0.3455 -0.4309 -2.0969
16786TIP3    H271774   1.927   0.170  16.723  0.9161  1.1214  1.7327
16787TIP3   OH271775   6.080   5.234   2.178  0.1755 -0.4878 -0.8515
16787TIP3    H171776   6.129   5.153   2.192  2.6883  0.3251 -3.9457
16787TIP3    H271777   6.014   5.210   2.113  0.6847 -0.1427 -1.4975
16788TIP3   OH271778   3.270   2.702   0.458  0.2010  0.2778 -0.0403
16788TIP3    H171779   3.354   2.666   0.430  0.2415 -0.1843  0.6391
16788TIP3    H271780   3.216   2.702   0.379 -0.5638 -3.4395  0.2954
16789TIP3   OH271781   2.687   6.109   3.358 -0.5541  0.0113 -0.1792
16789TIP3    H171782   2.656   6.150   3.439  2.6597  0.0397  1.2188
16789TIP3    H271783   2.697   6.182   3.296 -0.0603  0.5285  0.4864
16790TIP3   OH271784   3.066   4.391  16.425 -0.6141  0.1967  0.1592
16790TIP3    H171785   3.107   4.412  16.509  0.5813 -1.8146  0.1554
16790TIP3    H271786   3.079   4.297  16.415 -1.9078  0.1507 -1.6851
16791TIP3   OH271787   2.971   6.790   3.292  0.2750  0.2965  0.8040
16791TIP3    H171788   2.971   6.698   3.318 -5.4226 -0.1680  0.3265
16791TIP3    H271789   2.963   6.838   3.375 -3.1090 -0.2163  0.8827
16792TIP3   OH271790   0.676   0.951  16.046  0.1890  0.1369 -0.3992
16792TIP3    H171791   0.596   0.933  16.096  0.1502  0.5298 -0.3137
16792TIP3    H271792   0.697   0.868  16.003  1.0539 -0.6621  1.4387
16793TIP3   OH271793   2.724   4.724   5.486 -0.3441 -0.3906  0.0642
16793TIP3    H171794   2.816   4.697   5.478 -0.6311 -1.2268 -0.4983
16793TIP3    H271795   2.728   4.812   5.525  0.7068 -0.2851 -0.2601
16794TIP3   OH271796   4.439   5.434  14.972  0.2060  0.0070  0.0219
16794TIP3    H171797   4.441   5.508  14.910 -1.6320  1.3992  1.5045
16794TIP3    H271798   4.432   5.475  15.058 -2.0076 -1.8566  0.8391
16795TIP3   OH271799   1.273   1.209  13.731 -0.6589  0.4537 -0.8903
16795TIP3    H171800   1.317   1.141  13.680  0.7726 -0.0452  0.9033
16795TIP3    H271801   1.309   1.291  13.700  0.8731  0.1021 -0.1136
16796TIP3   OH271802   0.083   1.126  11.363  0.0950 -0.1189  0.5649
16796TIP3    H171803   0.043   1.048  11.401  1.0785 -0.8151  0.2144
16796TIP3    H271804   0.018   1.158  11.301 -0.2358 -0.7822  0.5565
16797TIP3   OH271805   1.294   2.523  16.760  0.4482  0.3076  0.2261
16797TIP3    H171806   1.253   2.609  16.759 -0.1226  0.0420 -1.4068
16797TIP3    H271807   1.221   2.461  16.768  0.6729 -0.0900 -0.6975
16798TIP3   OH271808   2.392   2.874  13.364 -0.3189  0.3879  0.2452
16798TIP3    H171809   2.301   2.851  13.341 -0.5187  2.6758 -1.6789
16798TIP3    H271810   2.420   2.932  13.293  2.0354  1.2253  1.7538
16799TIP3   OH271811   4.651   5.130  13.294  0.6591  0.2781 -0.6061
16799TIP3    H171812   4.681   5.065  13.358  0.8751  0.4211 -0.5641
16799TIP3    H271813   4.638   5.079  13.214 -2.4845 -0.5375  0.2546
16800TIP3   OH271814   0.767   1.854  11.180  0.0057 -0.2772  0.1529
16800TIP3    H171815   0.683   1.897  11.162 -1.2144 -2.1957  1.0214
16800TIP3    H271816   0.749   1.761  11.169  1.2311 -0.9669  3.1302
16801TIP3   OH271817   2.829   0.180  16.871 -0.3147  0.0740 -0.0760
16801TIP3    H171818   2.850   0.102  16.923  1.5702  1.3546  1.1864
16801TIP3    H271819   2.768   0.229  16.926 -1.2738 -0.3295 -0.7477
16802TIP3   OH271820   2.738   5.098  11.024  0.2708  0.2662  0.2472
16802TIP3    H171821   2.650   5.125  10.998 -0.1126 -1.4569 -0.3635
16802TIP3    H271822   2.791   5.177  11.014 -0.7345  0.7588 -1.7737
16803TIP3   OH271823   0.299   4.658  12.471 -0.8887 -0.4063 -0.2356
16803TIP3    H171824   0.349   4.690  12.547 -1.3993 -1.6873  0.6592
16803TIP3    H271825   0.320   4.565  12.465 -2.1374 -0.6774 -0.6740
16804TIP3   OH271826   2.102   2.373  13.145 -0.2319 -0.3529 -0.0292
16804TIP3    H171827   2.069   2.456  13.179  0.0885  0.1684 -0.9509
16804TIP3    H271828   2.025   2.328  13.112 -0.3741 -0.2991  0.2323
16805TIP3   OH271829   1.700   4.133   2.690 -0.0763 -0.0842 -0.1230
16805TIP3    H171830   1.734   4.079   2.619 -1.0900 -1.4309  0.3772
16805TIP3    H271831   1.701   4.222   2.656  1.5750 -0.3999 -0.9989
16806TIP3   OH271832   6.497   5.043   0.343 -0.3298 -0.2722 -0.1905
16806TIP3    H171833   6.465   4.985   0.411 -0.4501  0.0501  0.0297
16806TIP3    H271834   6.454   5.127   0.360  0.0160 -0.0550 -0.3668
16807TIP3   OH271835   3.743   1.781   6.217  0.2802 -0.4564  0.6707
16807TIP3    H171836   3.735   1.877   6.216  2.8082 -0.1418 -0.5637
16807TIP3    H271837   3.691   1.753   6.291 -1.4300  1.7718  0.4244
16808TIP3   OH271838   5.358   1.411  16.517  0.2237 -0.0939 -0.4659
16808TIP3    H171839   5.279   1.465  16.525 -0.2823 -0.8741  0.0346
16808TIP3    H271840   5.413   1.437  16.591  0.3284  0.2908 -0.6816
16809TIP3   OH271841   5.253   4.985  15.037  0.1535  0.0427  0.2374
16809TIP3    H171842   5.277   5.077  15.045 -0.0754  0.0932  0.3392
16809TIP3    H271843   5.164   4.979  15.073  0.6391 -0.4496  1.3963
16810TIP3   OH271844   1.337   3.926  16.750 -0.3614  0.1238  0.3717
16810TIP3    H171845   1.258   3.881  16.719  0.3484 -0.7920 -0.1574
16810TIP3    H271846   1.394   3.930  16.673  0.7832 -0.7423  1.1419
16811TIP3   OH271847   1.250   1.976  14.446 -0.8859  0.3511 -0.2782
16811TIP3    H171848   1.163   1.949  14.417 -0.2705 -1.4151 -0.5868
16811TIP3    H271849   1.280   1.906  14.504  0.8057  0.3106 -1.1294
16812TIP3   OH271850   5.593   1.427  15.530 -0.8921  0.2016 -0.4476
16812TIP3    H171851   5.577   1.428  15.625 -2.1955 -0.6522 -0.6385
16812TIP3    H271852   5.677   1.471  15.520  0.1820 -1.3275  1.2777
16813TIP3   OH271853   5.067   0.112   2.785  0.2480 -0.3818  0.2346
16813TIP3    H171854   4.992   0.107   2.843  0.4551  1.0392  0.6646
16813TIP3    H271855   5.052   0.192   2.734  1.4476 -0.0984  0.3053
16814TIP3   OH271856   1.449   4.215  13.779 -0.4069  0.1046  0.0162
16814TIP3    H171857   1.478   4.304  13.800 -0.4663  0.1051  0.0921
16814TIP3    H271858   1.434   4.217  13.684  2.1085 -0.5214 -0.4726
16815TIP3   OH271859   3.233   3.031  16.751  0.2072 -0.1499  0.3259
16815TIP3    H171860   3.287   2.951  16.753 -0.0701 -0.4587 -1.8912
16815TIP3    H271861   3.253   3.071  16.667 -0.6423  1.4613  0.8545
16816TIP3   OH271862   2.672   0.986   3.570  0.6058  0.5930 -0.0595
16816TIP3    H171863   2.689   0.906   3.620  1.4335  1.3015  0.8372
16816TIP3    H271864   2.645   1.051   3.635 -2.0493  0.5528 -1.0023
16817TIP3   OH271865   2.013   6.319  12.246 -0.5227 -0.4590 -0.2623
16817TIP3    H171866   1.937   6.376  12.247  0.6195  1.1847 -1.1526
16817TIP3    H271867   2.029   6.303  12.153 -1.2838 -2.9812 -0.0345
16818TIP3   OH271868   5.893   6.536  16.880  0.1290 -0.1169 -0.1680
16818TIP3    H171869   5.937   6.613  16.916  0.6651  0.1561 -1.3599
16818TIP3    H271870   5.881   6.478  16.955 -1.4273  1.6282  1.0125
16819TIP3   OH271871   3.355   5.182  11.290 -0.0677 -0.0966  0.4815
16819TIP3    H171872   3.441   5.219  11.272 -0.2290  0.0911  0.0774
16819TIP3    H271873   3.339   5.123  11.216 -1.5688  2.1298 -1.0917
16820TIP3   OH271874   2.703   0.471   5.535  0.0474  0.4289 -0.4688
16820TIP3    H171875   2.620   0.445   5.494  1.0735 -0.3224 -2.1551
16820TIP3    H271876   2.728   0.396   5.589 -0.8605  1.0720  0.9033
16821TIP3   OH271877   2.171   4.886  12.882 -0.9435  0.0689  0.0539
16821TIP3    H171878   2.090   4.918  12.843 -0.4205 -0.1813 -1.2796
16821TIP3    H271879   2.193   4.951  12.948 -2.2846  0.0800  0.5157
16822TIP3   OH271880   3.496   2.562   2.287 -0.4053 -0.4110 -0.4580
16822TIP3    H171881   3.406   2.556   2.254 -0.8725  2.5028  0.0009
16822TIP3    H271882   3.504   2.490   2.349 -3.0605  0.2841  0.8278
16823TIP3   OH271883   3.781   5.706  10.678 -0.1711  0.2272  0.2498
16823TIP3    H171884   3.804   5.791  10.641 -0.9312  2.3749  4.2192
16823TIP3    H271885   3.865   5.668  10.704  0.0539  0.3340 -0.2890
16824TIP3   OH271886   2.561   2.484   2.278 -0.0987  0.5097 -0.2085
16824TIP3    H171887   2.467   2.472   2.262 -0.1761  1.8372 -0.8255
16824TIP3    H271888   2.569   2.479   2.373 -0.8692  0.8829 -0.1152
16825TIP3   OH271889   0.841   0.793   0.447  0.1666 -0.0377  0.2403
16825TIP3    H171890   0.806   0.716   0.403 -0.5602  0.4807 -0.1017
16825TIP3    H271891   0.925   0.809   0.403 -0.1405 -0.0475 -0.3633
16826TIP3   OH271892   3.519   1.584  11.823 -0.1398  0.2808  0.0811
16826TIP3    H171893   3.592   1.533  11.858  0.5876  0.8066 -0.6268
16826TIP3    H271894   3.469   1.610  11.901 -0.0383 -0.7586  0.5093
16827TIP3   OH271895   6.214   2.701  13.935 -0.1189 -0.3912  0.3791
16827TIP3    H171896   6.136   2.717  13.883 -0.8077  0.8932  1.7463
16827TIP3    H271897   6.205   2.757  14.012  2.4405  0.2651  0.3146
16828TIP3   OH271898   4.936   1.342  12.397  0.0561  0.1433  0.1057
16828TIP3    H171899   4.963   1.427  12.433  0.0639  0.3384 -0.3600
16828TIP3    H271900   5.008   1.316  12.340  0.3228 -0.4610  0.7007
16829TIP3   OH271901   1.691   4.866   1.700 -0.1992 -0.0380 -0.6556
16829TIP3    H171902   1.648   4.835   1.619  0.4945 -1.4269 -0.5142
16829TIP3    H271903   1.634   4.834   1.770 -0.9350  1.3814 -0.5731
16830TIP3   OH271904   5.724   0.038   4.992  0.3272 -0.0369  0.0062
16830TIP3    H171905   5.764  -0.004   4.916  3.0357 -0.7219  1.6550
16830TIP3    H271906   5.703  -0.034   5.051  0.7168  0.6247  0.9794
16831TIP3   OH271907   3.376   5.875  15.421  0.4642 -0.1056 -0.2361
16831TIP3    H171908   3.326   5.806  15.377  0.7569 -0.0001 -0.7540
16831TIP3    H271909   3.467   5.847  15.413  0.6868  0.8640 -1.4463
16832TIP3   OH271910   3.266   6.213  13.804  0.0229  0.1114  0.6585
16832TIP3    H171911   3.314   6.131  13.810 -0.8553 -0.3718  1.1465
16832TIP3    H271912   3.193   6.204  13.865  0.1812  1.4415  1.0783
16833TIP3   OH271913   2.380   5.426   2.510  0.0092  0.2532  0.2688
16833TIP3    H171914   2.465   5.462   2.486 -0.0339 -0.0242 -0.3065
16833TIP3    H271915   2.356   5.368   2.438  0.5587 -1.7847  1.6544
16834TIP3   OH271916   4.445   2.651  14.130 -0.0331 -0.5534 -0.0289
16834TIP3    H171917   4.440   2.746  14.129  0.0073 -0.5456 -1.2802
16834TIP3    H271918   4.529   2.632  14.172 -0.4589 -0.0790  1.0734
16835TIP3   OH271919   2.807   1.794  11.792  0.2113 -0.2102 -0.1882
16835TIP3    H171920   2.769   1.846  11.721  2.0507  0.7200 -0.5658
16835TIP3    H271921   2.732   1.751  11.834 -1.1469  1.0590 -1.2187
16836TIP3   OH271922   3.532   1.322   3.361  0.1756 -0.0230 -0.3938
16836TIP3    H171923   3.513   1.249   3.303 -0.4525 -1.1958  1.2002
16836TIP3    H271924   3.455   1.328   3.418  0.3746  1.6477 -0.2408
16837TIP3   OH271925   4.412   0.962   2.221  0.2676  0.0316  0.3759
16837TIP3    H171926   4.488   1.004   2.260 -1.2851  2.4610  1.0292
16837TIP3    H271927   4.444   0.924   2.139  1.9742  1.7747  0.1810
16838TIP3   OH271928   4.785   0.281  15.092  0.1932 -0.9237 -0.0534
16838TIP3    H171929   4.878   0.264  15.103  0.2427 -0.9918 -0.5976
16838TIP3    H271930   4.756   0.310  15.179  0.1539 -3.5234  0.8990
16839TIP3   OH271931   0.828   4.635   2.837 -0.1408 -0.3550 -0.3461
16839TIP3    H171932   0.836   4.568   2.906 -2.7049 -2.4497 -1.8921
16839TIP3    H271933   0.849   4.588   2.756 -0.5795  1.1410 -1.3675
16840TIP3   OH271934   2.943   2.470   4.328  0.0677 -0.1881  0.2460
16840TIP3    H171935   2.973   2.497   4.241  0.7098  0.9105  0.7877
16840TIP3    H271936   2.889   2.392   4.312  0.9949 -0.5944 -1.0227
16841TIP3   OH271937   4.247   4.757   3.992 -0.0417 -0.0719  0.3413
16841TIP3    H171938   4.159   4.773   3.960  0.1247  1.7908  0.6756
16841TIP3    H271939   4.276   4.842   4.025  0.5530 -1.3542  3.5177
16842TIP3   OH271940   0.440   3.960  11.644 -0.4330  0.2931 -0.8872
16842TIP3    H171941   0.454   3.911  11.724  0.4363  0.3783 -0.9671
16842TIP3    H271942   0.521   3.947  11.594 -0.0494  2.0128 -0.7887
16843TIP3   OH271943   0.769   6.237   2.094 -0.0416 -0.0842  0.3264
16843TIP3    H171944   0.837   6.171   2.082  1.2237  1.4732 -1.9515
16843TIP3    H271945   0.811   6.319   2.069 -2.1087  1.3193  1.1814
16844TIP3   OH271946   3.230   2.677   3.266  0.0146 -0.2331  0.0339
16844TIP3    H171947   3.265   2.722   3.343  1.5890  0.2858 -0.9347
16844TIP3    H271948   3.136   2.671   3.282  0.3882 -0.7859  2.3156
16845TIP3   OH271949   0.047   3.184  11.240 -0.1786  0.2305 -0.1625
16845TIP3    H171950   0.134   3.167  11.203 -0.6621 -0.4719 -1.0205
16845TIP3    H271951  -0.010   3.120  11.197 -1.8373  2.9212 -2.3692
16846TIP3   OH271952   4.225   2.789   3.007 -0.1426 -0.6375 -0.0956
16846TIP3    H171953   4.300   2.821   3.056 -0.7171  1.7792 -0.6807
16846TIP3    H271954   4.161   2.860   3.010 -1.5508 -1.7548 -1.4470
16847TIP3   OH271955   1.961   2.641   0.476 -0.1076  0.0631  0.0933
16847TIP3    H171956   2.028   2.582   0.510  0.1894  0.8338  0.8461
16847TIP3    H271957   1.911   2.668   0.553 -2.0052 -1.3429 -0.5512
16848TIP3   OH271958   2.527   0.744  10.976  0.0331 -0.2971 -0.0694
16848TIP3    H171959   2.499   0.828  10.941 -0.8925 -0.9272 -0.8629
16848TIP3    H271960   2.600   0.766  11.035  1.8207  0.7931 -2.5049
16849TIP3   OH271961   5.733   5.168  15.539 -0.2326 -0.0234 -0.1021
16849TIP3    H171962   5.811   5.168  15.595  1.1524  0.2870 -1.9288
16849TIP3    H271963   5.759   5.118  15.462 -1.7075  0.4583 -0.9525
16850TIP3   OH271964   3.153   5.004  13.427  0.1992 -0.8409  0.1021
16850TIP3    H171965   3.219   4.977  13.491 -0.5466  0.1479  1.3464
16850TIP3    H271966   3.203   5.048  13.358  0.8561 -0.1361  1.0043
16851TIP3   OH271967   4.323   5.755  16.172 -0.1015 -0.1158  0.7384
16851TIP3    H171968   4.412   5.720  16.166 -0.5205 -1.3210  1.1052
16851TIP3    H271969   4.309   5.800  16.088  0.7669 -0.1157  0.5891
16852TIP3   OH271970   0.287   5.288  13.014 -0.7384  0.0288 -0.6703
16852TIP3    H171971   0.360   5.262  12.958 -0.8581 -0.7284 -0.4934
16852TIP3    H271972   0.211   5.245  12.975 -0.6475 -1.5266  0.7185
16853TIP3   OH271973   6.720   0.560   4.976 -0.5861  0.1320  0.0202
16853TIP3    H171974   6.649   0.538   5.037 -0.4697  1.7707  0.8050
16853TIP3    H271975   6.681   0.623   4.916  0.1554  1.0118  0.4284
16854TIP3   OH271976   2.699   4.579   0.644  0.8018  0.3941  0.6466
16854TIP3    H171977   2.641   4.551   0.715  0.3764 -1.7451 -0.4643
16854TIP3    H271978   2.641   4.622   0.581  0.4409 -1.1856 -0.1678
16855TIP3   OH271979   1.051   5.801  15.452 -0.3075 -0.0560  0.2060
16855TIP3    H171980   1.122   5.767  15.397 -0.8146 -2.1784  0.7867
16855TIP3    H271981   1.091   5.875  15.498  1.3182 -0.7058 -0.0715
16856TIP3   OH271982   3.020   2.033  10.778 -0.8715 -0.2037  0.1646
16856TIP3    H171983   2.970   1.962  10.740 -0.9447 -0.2136  0.2791
16856TIP3    H271984   3.109   1.998  10.786 -0.5473  0.2416 -1.2196
16857TIP3   OH271985   1.068   6.755  15.374  0.5053  0.2093  0.4278
16857TIP3    H171986   1.095   6.841  15.342  3.1200 -0.1004  1.5114
16857TIP3    H271987   1.151   6.710  15.393 -0.7897 -2.3044  0.5561
16858TIP3   OH271988   3.341   2.922  11.876 -0.3386  0.6359 -0.3031
16858TIP3    H171989   3.331   2.862  11.950  1.1719 -1.5173 -1.7166
16858TIP3    H271990   3.366   3.005  11.915  1.7059 -0.7555  1.5954
16859TIP3   OH271991   0.732   6.714  16.097 -1.0231 -0.2263  0.6136
16859TIP3    H171992   0.796   6.764  16.149 -0.9135 -1.0941  1.3459
16859TIP3    H271993   0.674   6.781  16.060 -0.7326  0.4649  1.3600
16860TIP3   OH271994   2.419   0.404   3.819  0.6771  0.2578 -0.3071
16860TIP3    H171995   2.385   0.467   3.883 -1.5119 -0.1861 -0.9397
16860TIP3    H271996   2.400   0.318   3.858  0.2284 -0.0083 -1.0958
16861TIP3   OH271997   1.508   3.013   5.740 -0.0180  0.1406  0.4386
16861TIP3    H171998   1.545   2.960   5.811  0.2126 -0.9567 -0.4875
16861TIP3    H271999   1.584   3.042   5.690 -0.2999 -0.8239 -0.5654
16862TIP3   OH272000   0.415   4.773   0.413  0.2431  0.0882  0.4185
16862TIP3    H172001   0.328   4.812   0.419  0.6285  0.8669  1.1225
16862TIP3    H272002   0.409   4.692   0.465 -0.0799  0.0888  0.3848
16863TIP3   OH272003   1.215   4.996  12.487 -0.3005 -0.2515  0.2759
16863TIP3    H172004   1.228   5.089  12.469 -2.0736  0.0812  0.5544
16863TIP3    H272005   1.150   4.968  12.423 -1.6498 -0.6772  1.7638
16864TIP3   OH272006   4.610   5.497  14.608  0.6416  0.4460 -0.6103
16864TIP3    H172007   4.528   5.505  14.658  1.9576  1.0546  1.6217
16864TIP3    H272008   4.614   5.405  14.584 -1.2941  0.6444 -1.9426
16865TIP3   OH272009   2.102   0.722  12.759  0.4423 -0.0412  0.1220
16865TIP3    H172010   2.111   0.816  12.745  3.3664 -0.3014 -0.5507
16865TIP3    H272011   2.062   0.689  12.678  0.9918  0.4746 -0.3728
16866TIP3   OH272012   0.687   0.161  16.668  0.8082  0.0478 -0.2234
16866TIP3    H172013   0.717   0.234  16.722  0.8293 -1.3356  1.7446
16866TIP3    H272014   0.729   0.084  16.706 -2.8289 -1.6268  0.8325
16867TIP3   OH272015   5.793   6.545  12.723  0.0172 -0.1079 -0.4168
16867TIP3    H172016   5.825   6.564  12.811 -1.3299  0.1757  0.0394
16867TIP3    H272017   5.822   6.455  12.706 -2.5405 -1.4672  1.7346
16868TIP3   OH272018   0.278   5.034   3.968 -0.1484  0.0409 -0.2514
16868TIP3    H172019   0.275   5.029   3.873 -1.8303 -1.0949 -0.1812
16868TIP3    H272020   0.258   5.126   3.988 -3.2659 -0.3529 -0.9871
16869TIP3   OH272021   2.879   2.814   1.058 -0.2526  0.3567  0.1075
16869TIP3    H172022   2.847   2.901   1.035 -1.2672  0.6439  2.2854
16869TIP3    H272023   2.938   2.790   0.987 -0.5075  2.5054 -0.9074
16870TIP3   OH272024   5.829   0.408  17.050 -0.1395 -0.4386 -0.0090
16870TIP3    H172025   5.813   0.432  17.141 -0.4898 -1.1348  0.1233
16870TIP3    H272026   5.794   0.481  16.999 -0.6784 -0.4141  0.3910
16871TIP3   OH272027   0.951   0.228  12.635  0.1642  0.7084 -0.2263
16871TIP3    H172028   0.859   0.245  12.616 -0.3191 -1.6987 -0.3956
16871TIP3    H272029   0.957   0.234  12.731 -0.2620  0.5272 -0.1853
16872TIP3   OH272030   0.181   2.489  14.465  0.0756  0.6010  0.1054
16872TIP3    H172031   0.242   2.510  14.394  0.2455  3.1892  0.8777
16872TIP3    H272032   0.202   2.399  14.489  2.9977  1.0749 -0.2700
16873TIP3   OH272033   1.768   0.888   1.537 -0.6596  0.1891  0.5869
16873TIP3    H172034   1.763   0.795   1.562  0.4282  0.2833  1.2023
16873TIP3    H272035   1.845   0.921   1.582  0.3667  0.8147 -1.4995
16874TIP3   OH272036   2.359   1.056   0.966 -0.6811 -0.2206  0.6897
16874TIP3    H172037   2.398   1.069   0.880  1.2335 -3.1705  0.9737
16874TIP3    H272038   2.286   0.996   0.950 -0.9409  0.0041  1.0219
16875TIP3   OH272039   6.041   4.443  12.444 -0.6994  0.3615 -0.3069
16875TIP3    H172040   6.083   4.366  12.406 -2.6571 -0.0716 -1.7613
16875TIP3    H272041   6.103   4.475  12.509 -0.1077 -2.8468  0.8750
16876TIP3   OH272042   4.962   1.074   3.914  0.0913  0.6934  0.0802
16876TIP3    H172043   5.035   1.059   3.975  0.4076 -1.2403 -0.6875
16876TIP3    H272044   5.004   1.092   3.830 -0.3318  1.0980 -0.0489
16877TIP3   OH272045   5.573   4.244  16.749  0.4165  0.2033 -0.5067
16877TIP3    H172046   5.599   4.246  16.841  1.2293 -0.7643 -0.7007
16877TIP3    H272047   5.535   4.331  16.733  1.5345  0.8804  0.3714
16878TIP3   OH272048   6.264   3.110  13.147  0.3528 -0.5963  0.0893
16878TIP3    H172049   6.300   3.185  13.195 -0.2951 -0.1096 -0.1757
16878TIP3    H272050   6.169   3.115  13.162 -0.0952  0.5571 -2.5809
16879TIP3   OH272051   6.142   6.381  13.668 -0.3046  0.1257  0.3872
16879TIP3    H172052   6.082   6.323  13.714 -1.0071 -0.6430 -1.3882
16879TIP3    H272053   6.212   6.399  13.731 -1.7787  0.0915  2.1099
16880TIP3   OH272054   5.887   4.992   4.856  0.2461 -0.6098 -0.6684
16880TIP3    H172055   5.792   4.990   4.870 -0.1000 -1.2781 -2.7540
16880TIP3    H272056   5.909   5.085   4.854 -0.1197 -0.4456  1.0198
16881TIP3   OH272057   4.290   0.001   4.835  0.4892  0.0569  0.2068
16881TIP3    H172058   4.360   0.060   4.809  0.8746  0.2278  1.5661
16881TIP3    H272059   4.332  -0.085   4.844  0.5008  0.1170  0.8087
16882TIP3   OH272060   6.253   1.002  13.766  0.4049  0.1730  0.3025
16882TIP3    H172061   6.255   1.096  13.744  2.1169  0.0783 -0.0509
16882TIP3    H272062   6.194   0.997  13.842  0.0833  1.4923  0.1741
16883TIP3   OH272063   1.476   5.458   6.720  0.7352  0.4757 -0.2942
16883TIP3    H172064   1.433   5.372   6.722 -3.5031  2.0851 -4.1608
16883TIP3    H272065   1.439   5.505   6.795  0.4805 -0.0872 -0.0599
16884TIP3   OH272066   6.557   0.359   0.318 -0.2748  0.1336  0.0206
16884TIP3    H172067   6.511   0.297   0.374  2.3781 -0.3429  1.8697
16884TIP3    H272068   6.488   0.407   0.273 -2.4837 -1.5297  1.4406
16885TIP3   OH272069   0.692   1.705  16.971  0.2025  0.2840 -0.2723
16885TIP3    H172070   0.636   1.723  16.896  0.7236  0.9393 -0.5115
16885TIP3    H272071   0.755   1.641  16.939 -0.2815 -0.3216 -0.0499
16886TIP3   OH272072   4.864   3.925   6.277 -0.4354 -0.2525 -0.5881
16886TIP3    H172073   4.823   3.840   6.289 -1.9225  0.5184  0.1743
16886TIP3    H272074   4.847   3.972   6.359  1.5552  0.3136 -0.4543
16887TIP3   OH272075   2.942   0.442   4.140  0.2079 -0.1998 -0.3973
16887TIP3    H172076   3.018   0.421   4.195 -0.0428 -1.3599 -0.4707
16887TIP3    H272077   2.949   0.383   4.065  0.7196  1.5805 -1.8120
16888TIP3   OH272078   6.563   4.308   5.533  0.0352 -0.4422 -0.3512
16888TIP3    H172079   6.589   4.351   5.452  0.7150  0.2965  0.2495
16888TIP3    H272080   6.584   4.216   5.519  1.1421 -0.1572 -0.6187
16889TIP3   OH272081   1.979   0.259  16.370 -0.3110 -0.5358 -0.0982
16889TIP3    H172082   2.072   0.243  16.357  0.1421  1.7715 -0.0752
16889TIP3    H272083   1.966   0.252  16.464  0.2720  0.9743  0.1273
16890TIP3   OH272084   0.015   0.667  10.592 -1.0505 -0.2129  0.1301
16890TIP3    H172085  -0.043   0.592  10.578 -1.4994 -0.2993  2.1008
16890TIP3    H272086  -0.023   0.737  10.539 -1.1736 -1.1022 -0.9969
16891TIP3   OH272087   5.874   4.286   2.925  0.3150 -0.5257 -0.6771
16891TIP3    H172088   5.780   4.286   2.943  0.3874  2.7994  0.3480
16891TIP3    H272089   5.914   4.262   3.009  0.3710  2.8660  0.4052
16892TIP3   OH272090   4.653   4.800  14.638 -0.7370  0.3060 -0.2816
16892TIP3    H172091   4.629   4.726  14.694 -0.1061 -0.2400 -0.7273
16892TIP3    H272092   4.571   4.828  14.598 -0.6963 -1.4889 -1.7324
16893TIP3   OH272093   1.013   0.210  11.351 -0.2467  0.1599 -0.1588
16893TIP3    H172094   1.068   0.189  11.275 -0.1991  0.9693 -0.3623
16893TIP3    H272095   0.963   0.131  11.367 -0.6752  0.1544 -1.3990
16894TIP3   OH272096   4.492   1.118  13.954  0.4613  0.3758 -0.6332
16894TIP3    H172097   4.504   1.206  13.916  0.5796  0.6825  0.0995
16894TIP3    H272098   4.417   1.082  13.907  1.1725  0.3709 -1.8260
16895TIP3   OH272099   6.473   1.956   2.379  0.1164 -0.2662  0.3251
16895TIP3    H172100   6.565   1.972   2.398  0.5959 -1.1456 -1.1221
16895TIP3    H272101   6.431   2.041   2.395  1.2408  0.2649  0.5744
16896TIP3   OH272102   3.937   3.226  15.525  0.2467  0.3929  0.5231
16896TIP3    H172103   3.961   3.319  15.531 -0.6096  0.7558 -1.1465
16896TIP3    H272104   3.866   3.216  15.588  1.9103  0.2638  2.4814
16897TIP3   OH272105   4.624   1.984   1.311  0.1422  0.0620  0.8125
16897TIP3    H172106   4.678   1.987   1.390  0.7518 -1.2318  0.4624
16897TIP3    H272107   4.552   1.925   1.333  0.2632 -0.2289  0.4324
16898TIP3   OH272108   0.468   6.179  12.324  0.1824 -0.0564  0.4354
16898TIP3    H172109   0.513   6.095  12.318  0.1118 -0.2850  2.3874
16898TIP3    H272110   0.534   6.244  12.300  1.2816 -0.4681  2.1430
16899TIP3   OH272111   6.448   6.396   3.728  0.3329  0.0646 -0.4214
16899TIP3    H172112   6.515   6.433   3.786 -1.3916  0.4202  1.4494
16899TIP3    H272113   6.445   6.303   3.751 -0.0473  0.1162 -0.2572
16900TIP3   OH272114   3.308   4.306  16.026  0.3642  0.0440 -0.2754
16900TIP3    H172115   3.321   4.267  15.940  1.7189 -1.0499  0.3787
16900TIP3    H272116   3.372   4.263  16.082  0.1475  1.3886  1.0902
16901TIP3   OH272117   0.072   0.914  12.739 -0.0344  0.1411  0.4948
16901TIP3    H172118   0.159   0.921  12.779  0.4140 -3.2026  0.4436
16901TIP3    H272119   0.015   0.890  12.812 -0.4686  0.2392  0.1891
16902TIP3   OH272120   1.748   2.697  14.798  0.0901  0.2303  0.3320
16902TIP3    H172121   1.779   2.612  14.830  2.1387  0.5135 -0.7396
16902TIP3    H272122   1.653   2.693  14.808  0.2719 -1.4992  1.9256
16903TIP3   OH272123   0.955   4.503  12.825  0.9836 -0.5106 -0.2469
16903TIP3    H172124   0.994   4.420  12.854  1.5760 -1.3388 -3.1125
16903TIP3    H272125   0.947   4.555  12.905  3.5112 -2.1471  1.1986
16904TIP3   OH272126   0.985   0.469   0.406 -0.2329 -0.4543  0.1469
16904TIP3    H172127   0.988   0.519   0.324 -0.3855 -1.7639 -0.6823
16904TIP3    H272128   1.073   0.434   0.416  0.1523  0.7628  1.2517
16905TIP3   OH272129   6.106   5.660  15.070 -0.0154  0.1171 -0.7112
16905TIP3    H172130   6.056   5.663  15.152  0.7112  0.6614 -0.2691
16905TIP3    H272131   6.164   5.735  15.075  0.6091 -0.3075 -1.3622
16906TIP3   OH272132   3.279   2.780  12.093  0.0168 -0.1602  0.1023
16906TIP3    H172133   3.361   2.791  12.143  0.8490 -0.2322 -1.2016
16906TIP3    H272134   3.239   2.702  12.132  1.1633 -0.8318 -0.0009
16907TIP3   OH272135   0.270   0.523  14.755  0.2109 -0.2655 -0.6713
16907TIP3    H172136   0.238   0.588  14.693  0.5571  1.2489  0.6588
16907TIP3    H272137   0.326   0.465  14.704  0.0223  0.5849 -1.8595
16908TIP3   OH272138   1.325   3.730  16.956 -0.3061 -0.1315  0.0808
16908TIP3    H172139   1.403   3.722  17.012 -0.3498 -0.1250  0.1423
16908TIP3    H272140   1.341   3.808  16.904 -1.1712  1.0558  1.5168
16909TIP3   OH272141   5.023   6.126   5.674  0.0249  0.3744  0.7113
16909TIP3    H172142   5.085   6.158   5.739 -0.7393  0.9429  1.1764
16909TIP3    H272143   5.012   6.033   5.695 -0.5095  0.6338  1.6569
16910TIP3   OH272144   5.419   1.474  17.111 -0.4946 -0.5104  0.4065
16910TIP3    H172145   5.497   1.527  17.125 -0.0492 -1.2908  0.9415
16910TIP3    H272146   5.381   1.464  17.198 -0.9298 -0.5354  0.2146
16911TIP3   OH272147   1.437   1.539  16.740  0.1951  0.3791 -0.3003
16911TIP3    H172148   1.405   1.548  16.829  0.0892  0.2834 -0.3286
16911TIP3    H272149   1.435   1.445  16.723 -1.0064  0.4904 -0.8512
16912TIP3   OH272150   5.793   2.389  11.797  0.0121 -0.5902 -0.3166
16912TIP3    H172151   5.877   2.396  11.843 -0.2263  0.7180 -0.0397
16912TIP3    H272152   5.798   2.457  11.729 -1.2258  0.2335  0.3780
16913TIP3   OH272153   2.922   1.417  11.912  0.0368  0.1952  0.6094
16913TIP3    H172154   2.999   1.378  11.871 -0.6335  0.1244 -0.6418
16913TIP3    H272155   2.918   1.379  11.999  1.9011  0.8576  1.0169
16914TIP3   OH272156   5.529   1.858  14.401 -0.5802 -0.5210 -0.6367
16914TIP3    H172157   5.606   1.805  14.423  0.3317  0.2302 -1.8794
16914TIP3    H272158   5.508   1.905  14.481  0.0710 -0.9501 -0.2033
16915TIP3   OH272159   3.327   1.187   1.574  0.1820 -0.1740  0.2226
16915TIP3    H172160   3.326   1.134   1.654 -0.6531  0.2917  0.5400
16915TIP3    H272161   3.365   1.271   1.602 -1.2923  0.4463  0.4661
16916TIP3   OH272162   2.506   1.462   3.128  0.0467 -0.0059  0.3935
16916TIP3    H172163   2.578   1.520   3.102  0.4294 -0.6239  0.0386
16916TIP3    H272164   2.542   1.410   3.200 -0.6775  0.9831  1.5127
16917TIP3   OH272165   2.068   2.913   3.649  0.8816 -0.2922  0.6190
16917TIP3    H172166   2.024   2.857   3.713 -1.6615  0.6639 -0.1912
16917TIP3    H272167   1.997   2.960   3.605  2.6156  0.0826 -1.9822
16918TIP3   OH272168   5.573   0.330   5.363 -0.1260  0.9338  0.1196
16918TIP3    H172169   5.493   0.381   5.347  0.1734  1.2055 -0.5833
16918TIP3    H272170   5.584   0.278   5.283 -0.4979 -0.3433  0.8809
16919TIP3   OH272171   5.147   2.516   0.992  0.4797  0.1450  0.3637
16919TIP3    H172172   5.166   2.428   0.959 -0.4008 -1.0219  2.7473
16919TIP3    H272173   5.161   2.574   0.917 -0.5026 -2.1878 -1.7461
16920TIP3   OH272174   5.963   1.789   3.363  0.1186  0.2837  0.5138
16920TIP3    H172175   5.959   1.877   3.401 -1.2165  0.6390 -0.3710
16920TIP3    H272176   6.025   1.742   3.418  0.9543  1.8111  0.9432
16921TIP3   OH272177   0.094   3.087   4.251 -0.2458  0.5467 -0.2244
16921TIP3    H172178   0.128   3.053   4.333 -1.0690  1.1383  0.3726
16921TIP3    H272179   0.166   3.076   4.189 -0.5413 -2.6300 -0.2035
16922TIP3   OH272180   6.118   4.812  16.381 -0.0530 -0.8483  0.4421
16922TIP3    H172181   6.032   4.777  16.357 -0.2625 -0.6927  0.9511
16922TIP3    H272182   6.142   4.765  16.461 -0.3731  0.2018  1.1786
16923TIP3   OH272183   6.417   0.282   5.376 -0.4009  0.2706  0.3693
16923TIP3    H172184   6.413   0.377   5.360 -0.5739  0.3029  0.5905
16923TIP3    H272185   6.507   0.266   5.404 -0.2304  0.2886 -0.1633
16924TIP3   OH272186   1.536   5.321   0.889  0.2592 -0.0015 -0.9572
16924TIP3    H172187   1.564   5.235   0.857  1.1185  0.3608 -1.2032
16924TIP3    H272188   1.589   5.336   0.967  0.9639  0.8003 -1.5681
16925TIP3   OH272189   2.543   6.763   4.698 -0.0090  0.6260 -0.5524
16925TIP3    H172190   2.496   6.824   4.641 -0.6815  0.2964 -0.3715
16925TIP3    H272191   2.576   6.696   4.638 -1.2410 -0.0532 -0.5265
16926TIP3   OH272192   5.483   4.714   1.796  0.4833 -0.3933 -0.8763
16926TIP3    H172193   5.553   4.719   1.862 -0.3665 -0.0061  0.0305
16926TIP3    H272194   5.403   4.736   1.845 -0.4362 -1.8835 -1.6415
16927TIP3   OH272195   2.019   6.060   0.445  0.6833 -0.0619 -0.5883
16927TIP3    H172196   2.106   6.031   0.419  1.4937  0.0274  1.7479
16927TIP3    H272197   1.969   5.979   0.456  1.3882 -0.3292  0.8843
16928TIP3   OH272198   3.355   3.572  16.841  0.5112  0.0881 -0.2625
16928TIP3    H172199   3.396   3.640  16.788 -1.8513  0.2595 -2.0387
16928TIP3    H272200   3.262   3.594  16.839  0.0271 -1.5465  1.6497
16929TIP3   OH272201   5.990   5.431   0.220 -0.0843 -0.2748 -0.1877
16929TIP3    H172202   5.942   5.488   0.160 -0.8617 -0.2755  0.4185
16929TIP3    H272203   6.073   5.414   0.176  0.3051  1.5876 -0.2672
16930TIP3   OH272204   3.768   2.245  14.849 -0.0764  0.4365  0.8720
16930TIP3    H172205   3.713   2.181  14.804  0.4158  0.3821  0.3319
16930TIP3    H272206   3.800   2.199  14.926 -1.4388  0.7321  1.6510
16931TIP3   OH272207   0.987   3.851   4.693  0.2686 -0.2965  0.4326
16931TIP3    H172208   0.920   3.876   4.757 -0.0866 -1.2674  0.4552
16931TIP3    H272209   0.940   3.800   4.628  0.9957 -1.0849  0.5012
16932TIP3   OH272210   0.287   0.905   2.158  0.0540 -0.0221  0.9869
16932TIP3    H172211   0.202   0.872   2.186  0.9007 -3.3612  0.0696
16932TIP3    H272212   0.337   0.912   2.239 -0.6156  0.4497  1.3663
16933TIP3   OH272213   5.736   2.209  13.430 -0.1715 -0.2952 -0.2242
16933TIP3    H172214   5.720   2.252  13.346 -0.5598 -0.9295 -0.4752
16933TIP3    H272215   5.829   2.186  13.427  0.2613  1.2567  0.2578
16934TIP3   OH272216   3.030   3.227   0.473 -0.0389  0.6547  0.0435
16934TIP3    H172217   2.997   3.244   0.385  2.0666  1.2893 -0.6862
16934TIP3    H272218   3.002   3.304   0.524 -2.6424 -0.4537  0.4070
16935TIP3   OH272219   4.093   3.781  13.625  0.7642  0.3609 -0.2038
16935TIP3    H172220   4.105   3.694  13.586 -1.3165 -0.0846  0.0333
16935TIP3    H272221   4.047   3.831  13.558 -1.7964 -0.0560  1.1030
16936TIP3   OH272222   1.425   1.245  12.992 -0.0551 -0.2526 -0.4569
16936TIP3    H172223   1.444   1.332  12.957  2.0827 -1.2343 -1.9233
16936TIP3    H272224   1.413   1.190  12.915  1.1377 -1.7704  0.3879
16937TIP3   OH272225   1.788   2.654  14.256  0.3795 -0.1018 -0.5655
16937TIP3    H172226   1.708   2.650  14.204 -1.1419  0.7811  1.5344
16937TIP3    H272227   1.802   2.747  14.272  0.3982 -0.3586  1.0987
16938TIP3   OH272228   0.779   3.893   0.446 -0.5355  0.3681  0.1279
16938TIP3    H172229   0.801   3.800   0.447 -0.9701  0.2600  1.0539
16938TIP3    H272230   0.700   3.899   0.500 -0.6547  1.2383 -0.1299
16939TIP3   OH272231   3.238   0.352  12.049 -0.3499  0.2714  0.0360
16939TIP3    H172232   3.202   0.419  11.991 -0.3194  1.1024  0.9537
16939TIP3    H272233   3.294   0.299  11.993 -1.1013  0.4428 -0.8986
16940TIP3   OH272234   4.570   2.584  14.656  0.0004  0.4504 -0.1770
16940TIP3    H172235   4.488   2.540  14.681 -0.9839  1.6914 -1.0569
16940TIP3    H272236   4.600   2.626  14.736 -0.4481  0.3147  0.0698
16941TIP3   OH272237   2.197   3.456   3.634 -0.4642  0.1619 -0.1817
16941TIP3    H172238   2.230   3.538   3.599 -0.9409 -0.0247 -1.1091
16941TIP3    H272239   2.129   3.481   3.696 -0.4221  0.4680 -0.2596
16942TIP3   OH272240   6.246   5.021   2.362 -0.2606 -0.3849 -0.3109
16942TIP3    H172241   6.274   5.012   2.271  0.4739  2.4448 -0.4608
16942TIP3    H272242   6.306   5.085   2.399 -2.2040  0.5753  1.3784
16943TIP3   OH272243   3.108   3.120   1.930  0.0348 -0.1646  0.1196
16943TIP3    H172244   3.123   3.123   2.025 -0.7528 -2.6757  0.3931
16943TIP3    H272245   3.048   3.046   1.918  1.0390 -0.6495 -2.4466
16944TIP3   OH272246   2.687   0.371   1.128 -0.1072  0.1079 -0.0023
16944TIP3    H172247   2.682   0.458   1.169  1.5052 -0.5938  1.8236
16944TIP3    H272248   2.778   0.345   1.138 -0.5838 -1.8701 -0.3971
16945TIP3   OH272249   6.038   4.375   4.872 -0.1761 -0.5622 -0.1980
16945TIP3    H172250   6.024   4.318   4.796  1.3999 -1.5362  0.1904
16945TIP3    H272251   6.128   4.357   4.899  0.1763  1.6900  0.3311
16946TIP3   OH272252   0.320   5.160   0.925  0.0310  0.4293  0.5530
16946TIP3    H172253   0.317   5.084   0.866 -0.7568  0.8160  0.0904
16946TIP3    H272254   0.361   5.126   1.004  3.0412  0.3808 -0.8852
16947TIP3   OH272255   0.099   4.418  14.911 -0.2235 -0.2162  0.6984
16947TIP3    H172256   0.110   4.345  14.972  1.7685 -0.5754 -0.0119
16947TIP3    H272257   0.148   4.392  14.833 -0.6518  1.2908 -0.1101
16948TIP3   OH272258   2.245   3.370   5.850 -0.2798 -0.6528  0.5568
16948TIP3    H172259   2.260   3.418   5.931 -0.1863 -1.4679  1.0285
16948TIP3    H272260   2.294   3.288   5.860  1.0621 -0.0967 -0.9695
16949TIP3   OH272261   5.629   5.349  16.954 -0.0051 -0.1271  0.4993
16949TIP3    H172262   5.537   5.376  16.946  0.7269  2.4243 -0.5147
16949TIP3    H272263   5.649   5.308  16.871  0.1291  0.6313  0.1487
16950TIP3   OH272264   4.120   0.216   0.377 -0.2198 -0.2316  0.5783
16950TIP3    H172265   4.182   0.146   0.398 -1.0827 -1.4587 -0.7605
16950TIP3    H272266   4.060   0.176   0.314 -1.3779  1.4192  0.5847
16951TIP3   OH272267   2.807   6.462  14.165  0.1689 -0.0422  0.3597
16951TIP3    H172268   2.779   6.460  14.257 -0.5431 -0.0375  0.1480
16951TIP3    H272269   2.840   6.551  14.152  1.4431 -0.4033  0.9398
16952TIP3   OH272270   2.276   3.813  14.164  0.6908  0.1773  0.8484
16952TIP3    H172271   2.188   3.841  14.190  0.5305  0.4836  0.0268
16952TIP3    H272272   2.262   3.726  14.126  0.5622  0.6707 -0.2714
16953TIP3   OH272273   6.225   3.274  12.824  0.5849  0.0092 -0.3898
16953TIP3    H172274   6.229   3.184  12.856 -0.1293  0.0680 -0.1025
16953TIP3    H272275   6.308   3.288  12.779  1.3353 -0.2980  0.8586
16954TIP3   OH272276   2.097   1.032  13.149 -0.0288  0.5551 -0.1967
16954TIP3    H172277   2.017   0.982  13.162  0.5871 -0.4691 -0.2156
16954TIP3    H272278   2.067   1.119  13.125 -1.1327  0.0237 -0.8404
16955TIP3   OH272279   2.057   6.585   0.857 -0.5574 -0.0668  0.1840
16955TIP3    H172280   2.045   6.494   0.832 -1.1749  0.0024  0.2125
16955TIP3    H272281   2.100   6.581   0.943 -1.0464 -0.3382  0.4165
16956TIP3   OH272282   1.972   2.739  16.616 -0.3235 -0.3927 -0.0656
16956TIP3    H172283   1.933   2.656  16.589  0.6139 -0.6950 -0.5395
16956TIP3    H272284   2.000   2.780  16.535 -0.8752  0.4446  0.1585
16957TIP3   OH272285   4.838   6.104  10.889 -0.1680 -0.5116 -0.1151
16957TIP3    H172286   4.917   6.157  10.886 -0.1408 -0.4780  0.9090
16957TIP3    H272287   4.769   6.165  10.916 -0.3491 -0.7607 -0.0092
16958TIP3   OH272288   3.907   3.332   0.648  0.3277 -0.1616  0.3276
16958TIP3    H172289   3.961   3.408   0.627 -1.6767  1.5563  1.0767
16958TIP3    H272290   3.833   3.337   0.587  0.3360 -1.7581  0.1377
16959TIP3   OH272291   3.137   1.770   3.213 -0.5680  0.1392  0.0351
16959TIP3    H172292   3.064   1.828   3.236  0.2399  0.9315  0.7000
16959TIP3    H272293   3.168   1.803   3.129  0.7221  1.5643  1.0177
16960TIP3   OH272294   6.554   3.854   5.894 -0.4801  0.0942 -0.3003
16960TIP3    H172295   6.533   3.946   5.875 -1.7062 -0.0704  0.1679
16960TIP3    H272296   6.595   3.822   5.814  0.1106  1.0952 -0.4160
16961TIP3   OH272297   0.166   2.759   1.759 -0.4597 -0.4570  1.1145
16961TIP3    H172298   0.235   2.702   1.793 -0.0058  0.2222  1.3501
16961TIP3    H272299   0.127   2.709   1.688  1.8990  0.0884 -0.6878
16962TIP3   OH272300   0.243   4.319   3.380  0.5879  0.1585 -0.0799
16962TIP3    H172301   0.257   4.414   3.378  0.6269  0.2394  1.9231
16962TIP3    H272302   0.244   4.297   3.473 -0.5958 -1.6467 -0.4476
16963TIP3   OH272303   3.043   2.600   4.765  0.6877 -0.0394  0.0304
16963TIP3    H172304   3.034   2.541   4.690  0.1013  0.7107 -0.5027
16963TIP3    H272305   3.078   2.545   4.835  0.1616 -1.0217 -0.4635
16964TIP3   OH272306   3.014   4.466  13.392  0.3498 -0.7870  0.2894
16964TIP3    H172307   3.028   4.550  13.436  0.5373 -0.6013 -0.1247
16964TIP3    H272308   3.102   4.438  13.367  0.0694  0.1415 -1.8878
16965TIP3   OH272309   1.642   4.985   3.832 -0.0113 -0.2691 -0.7033
16965TIP3    H172310   1.662   4.993   3.739  0.1926 -1.5950 -0.7923
16965TIP3    H272311   1.629   4.891   3.846 -0.1011 -0.0836  0.5915
16966TIP3   OH272312   0.098   5.051  15.296 -0.3348  0.2239  0.4796
16966TIP3    H172313   0.158   5.105  15.245 -0.2671  1.0194  1.3697
16966TIP3    H272314   0.135   4.962  15.291  0.8073  0.6571  0.8188
16967TIP3   OH272315   2.816   3.141  12.210  0.4831  0.1365  0.2380
16967TIP3    H172316   2.812   3.051  12.243  2.3273 -0.2802 -0.5732
16967TIP3    H272317   2.908   3.167  12.220 -0.0402  2.0210  0.6236
16968TIP3   OH272318   6.132   1.719  14.969 -0.4404  0.7282 -0.2839
16968TIP3    H172319   6.199   1.662  14.932 -0.9512  0.7525 -1.2974
16968TIP3    H272320   6.176   1.803  14.983  0.2141  0.2141  0.8572
16969TIP3   OH272321   0.068   1.411  14.644  0.2206 -0.2123 -0.0494
16969TIP3    H172322  -0.013   1.404  14.594 -0.7440  0.7719  1.3121
16969TIP3    H272323   0.067   1.499  14.681  0.7950 -0.9244  1.7990
16970TIP3   OH272324   1.805   2.577   5.411  0.4750  0.2407  0.6052
16970TIP3    H172325   1.865   2.650   5.392  0.1812  1.3148  3.3844
16970TIP3    H272326   1.862   2.508   5.445  0.3951  0.4660  1.2094
16971TIP3   OH272327   0.056   6.451   1.486  0.8194  0.5315 -0.8423
16971TIP3    H172328   0.065   6.546   1.482 -1.0360  0.7717 -0.3076
16971TIP3    H272329  -0.036   6.436   1.508  1.0515 -1.3963 -0.9627
16972TIP3   OH272330   2.842   2.359   4.814 -0.1888 -0.1902  0.7607
16972TIP3    H172331   2.804   2.305   4.745  1.3582 -0.4751  0.1101
16972TIP3    H272332   2.898   2.300   4.864 -0.9911  0.0972  2.0719
16973TIP3   OH272333   5.212   4.888  17.006  0.1729 -0.3977 -0.4735
16973TIP3    H172334   5.226   4.825  17.076 -0.9916 -0.0839  0.0593
16973TIP3    H272335   5.122   4.872  16.977 -0.2908  1.2582 -0.0522
16974TIP3   OH272336   2.410   2.085  13.905 -0.1724 -0.5365 -0.0155
16974TIP3    H172337   2.339   2.036  13.863  0.1129 -0.1989 -0.8978
16974TIP3    H272338   2.388   2.177  13.890  0.0442 -0.4121  0.4057
16975TIP3   OH272339   3.002   6.603   5.211 -0.2510 -0.8402 -0.4907
16975TIP3    H172340   3.006   6.620   5.306  1.9409  0.2680 -0.7117
16975TIP3    H272341   2.933   6.661   5.179  0.8068  0.8331  0.1083
16976TIP3   OH272342   3.150   5.082  16.385 -0.2131 -0.4651  0.2380
16976TIP3    H172343   3.210   5.017  16.348 -0.0642  1.2413 -2.7936
16976TIP3    H272344   3.204   5.160  16.398 -1.5536  0.9710 -2.1614
16977TIP3   OH272345   6.606   0.863   1.546  0.7754  0.1457 -0.0912
16977TIP3    H172346   6.559   0.928   1.493  0.5830 -0.3889 -0.5849
16977TIP3    H272347   6.698   0.878   1.526  0.8127  0.9292  0.5710
16978TIP3   OH272348   2.130   2.955  15.262  0.1334 -0.3057 -1.0069
16978TIP3    H172349   2.041   2.979  15.290  0.8429  0.2169  0.9542
16978TIP3    H272350   2.129   2.859  15.259 -0.2033 -0.3486  0.0839
16979TIP3   OH272351   0.766   4.311   3.295 -0.3863  0.3345  0.0862
16979TIP3    H172352   0.752   4.221   3.326  0.8420 -0.4208 -1.4217
16979TIP3    H272353   0.725   4.366   3.362 -0.6586 -1.3171  1.3379
16980TIP3   OH272354   0.671   0.701   3.900  0.0852  0.0992 -0.4677
16980TIP3    H172355   0.590   0.650   3.908  0.7705 -0.9705 -0.1758
16980TIP3    H272356   0.698   0.690   3.809  0.4023 -0.3307 -0.3240
16981TIP3   OH272357   4.034   5.830   1.193 -0.1434 -0.0094 -0.1791
16981TIP3    H172358   4.102   5.764   1.189 -1.5467 -1.6155  1.0456
16981TIP3    H272359   3.958   5.790   1.150 -0.7696  1.1440 -0.1991
16982TIP3   OH272360   5.588   0.417   1.284 -0.2586  0.2784 -0.4181
16982TIP3    H172361   5.654   0.438   1.349  0.0565  0.4059 -0.7737
16982TIP3    H272362   5.505   0.421   1.332 -0.0131  0.1499  0.0203
16983TIP3   OH272363   4.936   5.231  15.831  0.3258 -0.4239  0.2640
16983TIP3    H172364   4.897   5.318  15.837  0.4102 -0.3284 -0.4674
16983TIP3    H272365   5.015   5.236  15.884  0.1858 -0.1345  0.4444
16984TIP3   OH272366   2.088   1.077   3.185 -0.3448  0.3877 -0.6243
16984TIP3    H172367   2.004   1.055   3.146  0.0858 -0.3989 -1.1441
16984TIP3    H272368   2.141   0.998   3.176 -0.2297  0.1405  1.6346
16985TIP3   OH272369   3.129   2.943   3.540  0.4773 -0.1809  0.8568
16985TIP3    H172370   3.091   3.031   3.537 -0.7197 -0.6848 -1.0014
16985TIP3    H272371   3.206   2.952   3.595  0.5750  2.1092  0.4675
16986TIP3   OH272372   5.586   0.577   2.382  0.0779 -0.3839 -0.5633
16986TIP3    H172373   5.636   0.547   2.458 -2.2203 -0.8852  0.8563
16986TIP3    H272374   5.607   0.670   2.375  0.4520 -0.3654  0.6069
16987TIP3   OH272375   6.163   0.146   1.018  0.6397 -0.5738  0.3394
16987TIP3    H172376   6.153   0.181   0.929  0.6191 -0.0140  0.5587
16987TIP3    H272377   6.078   0.161   1.059  1.1617  0.7379  0.9963
16988TIP3   OH272378   4.936   6.688   0.097  0.6822 -0.0255  0.0206
16988TIP3    H172379   4.900   6.776   0.098  0.2176 -0.1953 -0.8498
16988TIP3    H272380   5.028   6.700   0.076  0.2897  0.1705 -1.7353
16989TIP3   OH272381   4.665   6.770   4.800 -0.4170  0.0624 -0.9874
16989TIP3    H172382   4.600   6.713   4.842 -0.3292 -0.4903 -1.5885
16989TIP3    H272383   4.715   6.712   4.742  2.4223 -0.1250  1.4027
16990TIP3   OH272384   4.119   1.197  13.378 -0.2931 -0.2697 -0.0310
16990TIP3    H172385   4.030   1.203  13.413 -0.8219  0.0134 -1.3639
16990TIP3    H272386   4.125   1.269  13.316  1.5884  0.9952  1.5164
16991TIP3   OH272387   3.758   2.378   5.156  0.4196  0.3446  0.4113
16991TIP3    H172388   3.667   2.407   5.156 -1.0361 -3.5768  1.6810
16991TIP3    H272389   3.765   2.318   5.082  2.1119  0.7469  0.1817
16992TIP3   OH272390   4.501   4.657   6.538  0.5974  0.3016 -0.0091
16992TIP3    H172391   4.584   4.699   6.517  0.2162  2.1861  1.8486
16992TIP3    H272392   4.492   4.587   6.474  3.5006  0.1672 -0.3919
16993TIP3   OH272393   1.009   2.440   3.802 -0.1514  0.3785 -0.2524
16993TIP3    H172394   0.922   2.459   3.765 -0.3969 -0.0237  0.0998
16993TIP3    H272395   1.013   2.344   3.803  0.0504  0.3918  0.3013
16994TIP3   OH272396   3.002   2.036   2.346 -0.2981 -0.3290  0.5868
16994TIP3    H172397   2.978   1.955   2.300  1.1731 -0.8549  0.6870
16994TIP3    H272398   3.087   2.059   2.309 -0.2729  0.6549  1.2459
16995TIP3   OH272399   0.682   4.529  16.115  0.0123 -0.0285 -0.1084
16995TIP3    H172400   0.745   4.596  16.088 -0.7959  0.5513 -0.5949
16995TIP3    H272401   0.596   4.569  16.100 -0.4881 -1.2454 -0.5893
16996TIP3   OH272402   3.376   5.934  13.855 -0.4799  0.0580  0.0816
16996TIP3    H172403   3.440   5.895  13.796  0.9226  1.0414  0.9119
16996TIP3    H272404   3.364   5.868  13.924 -0.6108 -0.2564 -0.2379
16997TIP3   OH272405   3.142   2.844   4.686 -0.3156  0.1522 -0.0659
16997TIP3    H172406   3.061   2.872   4.645 -1.1056 -0.6247  0.9172
16997TIP3    H272407   3.122   2.759   4.725  1.3631 -0.7306 -0.9714
16998TIP3   OH272408   2.966   0.954   5.612  0.5484 -0.1896  0.1528
16998TIP3    H172409   3.049   0.907   5.620 -0.2908 -1.4260  3.1183
16998TIP3    H272410   2.903   0.887   5.584  0.1084  0.1271  0.3675
16999TIP3   OH272411   1.132   4.037   4.502  0.2015 -0.1547 -0.0816
16999TIP3    H172412   1.195   4.109   4.508 -0.9968  1.4428 -3.8380
16999TIP3    H272413   1.075   4.049   4.578  1.1217  1.7991  0.3537
17000TIP3   OH272414   0.759   0.378  13.802 -0.0172 -0.3360  0.2080
17000TIP3    H172415   0.698   0.433  13.753 -0.1535 -0.6577  0.0138
17000TIP3    H272416   0.845   0.397  13.764  0.1646  0.8445  1.1216
17001TIP3   OH272417   3.414   5.064  12.933 -0.0913  0.4854  0.8630
17001TIP3    H172418   3.402   5.157  12.914 -1.1044 -0.2349 -2.7385
17001TIP3    H272419   3.334   5.022  12.901  0.4281 -1.6858  2.1849
17002TIP3   OH272420   3.452   1.906  13.858 -0.1407 -0.2735  0.3299
17002TIP3    H172421   3.538   1.867  13.842 -0.7179 -1.4324 -0.0697
17002TIP3    H272422   3.466   1.964  13.933  0.7139 -1.4054  1.0907
17003TIP3   OH272423   3.667   2.041  15.399  0.8557  0.1234 -0.2041
17003TIP3    H172424   3.762   2.030  15.392  0.6934 -0.3964 -2.2322
17003TIP3    H272425   3.656   2.128  15.440  2.1797  0.1165  0.2167
17004TIP3   OH272426   5.988   5.887  17.093 -0.0844 -0.1910  0.1722
17004TIP3    H172427   5.923   5.871  17.024  0.5020  0.6873 -0.6091
17004TIP3    H272428   6.051   5.815  17.084 -0.2712 -0.3475  0.1067
17005TIP3   OH272429   0.616   2.419   2.894  0.2570 -0.2533 -0.2860
17005TIP3    H172430   0.703   2.401   2.860 -0.2330  0.6247 -2.1390
17005TIP3    H272431   0.610   2.514   2.899 -0.2170 -0.3247  0.9366
17006TIP3   OH272432   1.641   1.664   6.095 -0.5944  0.5847  0.5640
17006TIP3    H172433   1.584   1.649   6.171  0.5903 -0.2260  1.3206
17006TIP3    H272434   1.695   1.739   6.121  0.3240 -0.1638  0.8331
17007TIP3   OH272435   6.000   6.023   1.116 -0.4525 -0.2052 -0.3551
17007TIP3    H172436   5.917   6.069   1.132 -0.5997 -0.6244  0.1255
17007TIP3    H272437   6.006   5.959   1.187  0.6683  0.3349  0.0597
17008TIP3   OH272438   4.990   1.758  16.820 -0.1185  0.1378  0.2227
17008TIP3    H172439   4.908   1.715  16.798 -0.1478 -0.2069  0.9803
17008TIP3    H272440   5.055   1.717  16.763  0.0894 -1.8438  1.7555
17009TIP3   OH272441   5.356   2.748   2.742  0.1912 -0.2202 -0.4093
17009TIP3    H172442   5.377   2.682   2.675 -1.9111 -0.8429 -0.5192
17009TIP3    H272443   5.272   2.785   2.714 -0.7687 -0.5139  1.8839
17010TIP3   OH272444   0.581   1.775   0.449 -0.4469 -0.5594 -0.3530
17010TIP3    H172445   0.648   1.814   0.392 -0.2343 -0.3239  0.0579
17010TIP3    H272446   0.513   1.745   0.388 -0.3262 -0.1088 -0.7166
17011TIP3   OH272447   3.715   6.350  15.809 -0.0546 -0.3240 -0.3339
17011TIP3    H172448   3.793   6.354  15.864 -0.4271  1.9969  0.1378
17011TIP3    H272449   3.670   6.433  15.825 -1.2008 -0.4062 -2.6604
17012TIP3   OH272450   0.837   5.666  11.216 -0.0858 -0.2689 -0.3589
17012TIP3    H172451   0.828   5.758  11.193 -1.3031 -0.4569 -0.7093
17012TIP3    H272452   0.856   5.666  11.310 -0.6173  0.3150 -0.2482
17013TIP3   OH272453   0.986   3.940  12.452  0.2881 -0.5635 -0.1140
17013TIP3    H172454   0.952   4.023  12.417  0.8853  0.2558  1.1533
17013TIP3    H272455   1.030   3.899  12.377  0.9726  0.8207 -0.5171
17014TIP3   OH272456   6.330   5.471  14.699 -0.4066  0.2414  0.5004
17014TIP3    H172457   6.261   5.425  14.651 -1.0086  1.0605  0.5491
17014TIP3    H272458   6.411   5.429  14.673 -0.9742 -1.1030  0.8511
17015TIP3   OH272459   0.557   3.662  13.953 -0.1059 -0.4361 -0.3102
17015TIP3    H172460   0.545   3.573  13.918 -1.5769 -0.2420 -0.3662
17015TIP3    H272461   0.472   3.703  13.942  0.0794  0.4346  1.3001
17016TIP3   OH272462   6.204   3.885  15.487  0.2990  0.3385  0.3922
17016TIP3    H172463   6.285   3.894  15.537  0.6830  0.0647 -0.1611
17016TIP3    H272464   6.148   3.830  15.540  1.3577 -1.4046 -0.2254
17017TIP3   OH272465   6.295   1.429   6.356 -0.0800 -0.6751  0.2323
17017TIP3    H172466   6.294   1.334   6.363  0.9253 -0.6420  1.0259
17017TIP3    H272467   6.210   1.451   6.317  0.4728 -2.0322 -1.8968
17018TIP3   OH272468   6.079   5.025  14.733 -0.2632  0.3747 -0.0106
17018TIP3    H172469   6.000   5.042  14.682 -0.6366  0.8339  0.7204
17018TIP3    H272470   6.109   4.940  14.702 -0.4273  0.6786 -1.0741
17019TIP3   OH272471   4.483   6.291   5.878  0.4989  0.0448 -0.3426
17019TIP3    H172472   4.560   6.235   5.893 -0.5730 -1.7556 -1.1441
17019TIP3    H272473   4.408   6.231   5.887 -0.9150  1.9180  1.3969
17020TIP3   OH272474   2.299   1.639   3.863  0.3867  0.1102 -0.2123
17020TIP3    H172475   2.389   1.637   3.894  0.0476  0.6245  0.8584
17020TIP3    H272476   2.246   1.633   3.943 -0.5433  4.2833 -0.3119
17021TIP3   OH272477   6.187   3.617   1.352  0.2014 -0.0203  0.2862
17021TIP3    H172478   6.141   3.601   1.434 -1.1975  1.0387 -0.2551
17021TIP3    H272479   6.127   3.586   1.284  0.8850  0.1035 -0.3903
17022TIP3   OH272480   3.097   6.218   4.319 -0.0733  0.0162  0.1324
17022TIP3    H172481   3.186   6.232   4.287 -0.3252  3.1565  0.5418
17022TIP3    H272482   3.044   6.282   4.273 -1.0917  2.1991  3.8767
17023TIP3   OH272483   4.540   5.731   0.411  0.2513  0.5300  0.3537
17023TIP3    H172484   4.529   5.816   0.368 -0.6945  1.2100  1.8524
17023TIP3    H272485   4.454   5.690   0.408  0.5258 -0.0651  0.2945
17024TIP3   OH272486   3.573   2.757  15.947 -0.1158 -0.2179 -0.2919
17024TIP3    H172487   3.608   2.743  16.035  0.1799 -1.4490 -0.5850
17024TIP3    H272488   3.651   2.762  15.891 -0.2894  0.8236 -0.4658
17025TIP3   OH272489   4.405   1.323  12.985  0.1308 -0.3685  0.0261
17025TIP3    H172490   4.451   1.290  13.062  0.7067  0.4659  0.0552
17025TIP3    H272491   4.313   1.329  13.014  0.7698  3.3895  2.0084
17026TIP3   OH272492   3.380   2.668   4.586  0.1087  0.5746 -0.6186
17026TIP3    H172493   3.300   2.626   4.556  0.0750 -0.5694  0.9512
17026TIP3    H272494   3.450   2.627   4.535 -0.1616  0.4135 -0.8594
17027TIP3   OH272495   0.817   0.596  15.388  0.1356 -0.1982 -0.3988
17027TIP3    H172496   0.852   0.507  15.391 -0.0305 -0.2563 -0.1568
17027TIP3    H272497   0.723   0.584  15.376 -0.0253 -0.0751  0.6830
17028TIP3   OH272498   1.024   3.651  14.795 -0.3865 -0.7673  0.4053
17028TIP3    H172499   1.008   3.686  14.882  0.5191 -2.3003  1.2206
17028TIP3    H272500   0.937   3.648  14.754 -0.7020  0.8042  0.8963
17029TIP3   OH272501   1.843   0.803   4.731 -0.1665 -0.0307 -0.5405
17029TIP3    H172502   1.929   0.826   4.696  0.2489  0.5824  0.7892
17029TIP3    H272503   1.854   0.714   4.765  0.0602  0.1718 -0.0675
17030TIP3   OH272504   0.396   0.143   0.706 -0.1550 -0.3392  0.6127
17030TIP3    H172505   0.367   0.121   0.795 -1.4790  3.7583  1.3906
17030TIP3    H272506   0.318   0.178   0.663  0.8159 -0.8316 -1.7272
17031TIP3   OH272507   5.115   4.218   1.531  0.2412 -0.0078 -0.2199
17031TIP3    H172508   5.122   4.148   1.595  0.2145  0.8352  0.7281
17031TIP3    H272509   5.020   4.233   1.521  0.1442 -1.5460 -2.0597
17032TIP3   OH272510   0.580   4.508  12.580  0.0770  0.4537 -0.1275
17032TIP3    H172511   0.665   4.484  12.619 -0.1548 -1.7414 -0.8370
17032TIP3    H272512   0.518   4.500  12.652  0.1693 -0.0309 -0.1008
17033TIP3   OH272513   4.753   1.739  13.331  0.6839  1.0116 -0.0218
17033TIP3    H172514   4.708   1.810  13.375 -1.0033  0.0144 -0.0822
17033TIP3    H272515   4.707   1.660  13.358  1.8844  0.0243 -0.7478
17034TIP3   OH272516   6.358   1.661  14.476  0.2481  0.0486 -0.6595
17034TIP3    H172517   6.450   1.675  14.455  0.0146  1.5821 -0.8073
17034TIP3    H272518   6.350   1.689  14.567  0.1270 -1.0829 -0.3154
17035TIP3   OH272519   5.865   2.160  14.707 -0.2446 -0.1201  0.7147
17035TIP3    H172520   5.847   2.186  14.616  0.1189  0.4219  0.7908
17035TIP3    H272521   5.937   2.217  14.734 -0.3117 -0.3196  1.3259
17036TIP3   OH272522   0.222   0.426  14.172 -0.5443  0.4033  0.3119
17036TIP3    H172523   0.131   0.397  14.171 -0.8259  1.2554 -1.4166
17036TIP3    H272524   0.272   0.349  14.145 -0.8818  0.3215 -0.0802
17037TIP3   OH272525   2.296   4.017   1.246  0.1181 -0.3380 -0.3549
17037TIP3    H172526   2.263   4.020   1.335 -1.9971 -0.8653 -1.0545
17037TIP3    H272527   2.333   3.929   1.236 -1.7786 -1.1441 -0.6482
17038TIP3   OH272528   6.591   5.496  14.373  0.0732 -0.0378 -0.7270
17038TIP3    H172529   6.665   5.450  14.333  0.7125 -0.3497  0.7176
17038TIP3    H272530   6.600   5.477  14.467 -1.5386  0.3706 -0.4671
17039TIP3   OH272531   6.603   2.407  12.730 -0.0155 -0.4199 -0.2771
17039TIP3    H172532   6.610   2.409  12.635  2.1450  0.8647 -0.1511
17039TIP3    H272533   6.675   2.351  12.759 -1.4912 -1.9640  0.5995
17040TIP3   OH272534   1.617   5.379  12.417 -0.8082  0.4606  0.0889
17040TIP3    H172535   1.684   5.327  12.372  0.6484  0.4437  2.1328
17040TIP3    H272536   1.551   5.396  12.350  0.2911 -1.1750 -1.5141
17041TIP3   OH272537   4.637   0.907  14.966  0.1459 -0.2527 -0.0749
17041TIP3    H172538   4.626   0.826  15.016  1.4848  0.0295  0.7342
17041TIP3    H272539   4.641   0.879  14.875  0.0183 -1.0337  0.1556
17042TIP3   OH272540   6.678   6.374  15.348 -0.1084 -0.4047 -0.5614
17042TIP3    H172541   6.710   6.367  15.438 -0.0350  0.5696 -0.5030
17042TIP3    H272542   6.712   6.296  15.304 -0.1577 -0.8943  0.2533
17043TIP3   OH272543   1.296   1.933   1.603  0.4211  0.0601 -0.2847
17043TIP3    H172544   1.282   2.007   1.663 -0.2386 -0.6158  0.4193
17043TIP3    H272545   1.208   1.900   1.585  0.5878  0.3796 -1.8175
17044TIP3   OH272546   4.141   0.154  12.733  0.1736 -0.0714  0.3396
17044TIP3    H172547   4.103   0.238  12.707 -0.0272 -0.4604 -0.6704
17044TIP3    H272548   4.207   0.176  12.799  2.5805  1.2846 -2.3214
17045TIP3   OH272549   1.004   1.960   2.954 -0.0648 -0.0434  0.0159
17045TIP3    H172550   0.968   1.953   2.866 -0.9502 -0.0447  0.3679
17045TIP3    H272551   1.084   2.012   2.943 -0.2238  0.0546 -0.7653
17046TIP3   OH272552   6.310   4.568   5.505  0.3289  0.0064  0.4463
17046TIP3    H172553   6.394   4.567   5.459  0.2147  1.5626  0.1526
17046TIP3    H272554   6.250   4.522   5.446  0.3048  1.5219 -0.7757
17047TIP3   OH272555   2.774   2.316   3.051  0.1589 -0.2515 -0.4835
17047TIP3    H172556   2.746   2.252   2.986 -0.1805 -2.8096  1.9945
17047TIP3    H272557   2.701   2.378   3.056 -1.0158 -1.5725 -0.6286
17048TIP3   OH272558   4.897   2.785   0.555 -0.1670  0.1583 -0.0393
17048TIP3    H172559   4.884   2.702   0.602  0.8594  0.6216  1.1527
17048TIP3    H272560   4.892   2.762   0.463  0.1956 -1.2594  0.2698
17049TIP3   OH272561   6.426   1.341   3.803  0.0995 -0.2180 -0.0070
17049TIP3    H172562   6.422   1.436   3.810 -1.1368 -0.2165 -0.4643
17049TIP3    H272563   6.515   1.322   3.774  0.0141  0.8756 -1.0270
17050TIP3   OH272564   4.304   5.131  13.234  0.1804  0.2287 -0.0300
17050TIP3    H172565   4.235   5.123  13.169  1.4451 -2.2537 -1.1881
17050TIP3    H272566   4.371   5.186  13.193  0.3034 -0.0587 -0.2149
17051TIP3   OH272567   4.138   1.018   2.792  0.1274  0.0515  0.4297
17051TIP3    H172568   4.119   1.098   2.743 -0.6218 -0.9791 -1.0623
17051TIP3    H272569   4.230   0.999   2.773 -0.0366 -0.0989 -0.2582
17052TIP3   OH272570   4.012   6.458  16.971 -0.2150  0.4174  0.6478
17052TIP3    H172571   4.074   6.451  17.043  0.5263 -0.4638 -0.0409
17052TIP3    H272572   3.972   6.372  16.965 -3.1663  1.5052  2.4358
17053TIP3   OH272573   1.865   4.347   3.899  0.3535  0.1090  0.2067
17053TIP3    H172574   1.924   4.283   3.939  0.1806 -1.3521 -1.7447
17053TIP3    H272575   1.900   4.432   3.926  1.5773 -0.7544  1.4923
17054TIP3   OH272576   0.422   0.857  14.571 -0.8666 -0.2373  0.1949
17054TIP3    H172577   0.463   0.772  14.554 -1.3012 -0.5889  0.8652
17054TIP3    H272578   0.494   0.914  14.598 -0.4200 -0.1164 -1.1642
17055TIP3   OH272579   4.779   3.795   2.333 -0.2958 -0.0302 -0.3645
17055TIP3    H172580   4.824   3.725   2.287 -1.6386 -1.5669  0.5423
17055TIP3    H272581   4.689   3.791   2.301 -0.9293 -0.2460  1.3067
17056TIP3   OH272582   5.177   3.791  11.330 -0.0449  0.4247 -0.0516
17056TIP3    H172583   5.195   3.831  11.245  2.2361 -1.1456 -0.3966
17056TIP3    H272584   5.219   3.849  11.393  0.4949  0.2656 -0.2565
17057TIP3   OH272585   0.081   3.200  11.662  0.0935 -0.8169  0.1153
17057TIP3    H172586   0.166   3.156  11.665  0.9642  0.7913  0.4166
17057TIP3    H272587   0.082   3.249  11.580 -1.1700 -1.9058 -0.5870
17058TIP3   OH272588   1.803   2.812   0.634  0.0613  0.0987 -0.4557
17058TIP3    H172589   1.782   2.891   0.583 -2.2032  0.1060  0.3807
17058TIP3    H272590   1.807   2.843   0.725 -2.3044 -0.9103  0.0641
17059TIP3   OH272591   3.856   3.614  13.526  0.1649 -0.5140 -0.3868
17059TIP3    H172592   3.773   3.568  13.537  0.1368 -0.8693 -1.8727
17059TIP3    H272593   3.892   3.621  13.614 -1.2730 -0.6718  0.2323
17060TIP3   OH272594   2.772   3.117   4.711 -0.0451  0.3777 -0.3960
17060TIP3    H172595   2.828   3.064   4.768  0.8553  2.0502  0.3399
17060TIP3    H272596   2.752   3.195   4.763  1.7709  2.5308 -2.6687
17061TIP3   OH272597   0.414   0.442  15.850 -0.4297 -0.3847 -0.3758
17061TIP3    H172598   0.339   0.483  15.894 -0.2840 -1.0180  0.5072
17061TIP3    H272599   0.454   0.513  15.800 -0.0136  0.6676  1.3350
17062TIP3   OH272600   1.078   3.902   5.871  0.5391 -0.8014 -0.6353
17062TIP3    H172601   1.035   3.970   5.923  1.1127 -1.1811  0.3715
17062TIP3    H272602   1.043   3.820   5.907  0.1195 -1.0565 -1.5977
17063TIP3   OH272603   1.659   6.634   6.295  0.2256 -0.1854 -0.5229
17063TIP3    H172604   1.595   6.590   6.351  1.9710 -1.9018  0.2597
17063TIP3    H272605   1.744   6.603   6.327  1.4377  1.3609 -2.0277
17064TIP3   OH272606   2.055   4.289   1.334  0.3429 -0.0624  0.2566
17064TIP3    H172607   2.057   4.373   1.288  0.3670 -0.0687  0.2464
17064TIP3    H272608   2.144   4.279   1.369  0.2393  0.0864  0.5617
17065TIP3   OH272609   1.876   6.404  15.951 -0.0166 -0.3350 -0.1384
17065TIP3    H172610   1.814   6.332  15.937 -1.9426  1.0431  0.8028
17065TIP3    H272611   1.919   6.416  15.866 -0.9555 -1.4305 -0.7932
17066TIP3   OH272612   3.872   5.717   3.515 -0.3367  0.3863  0.4912
17066TIP3    H172613   3.908   5.746   3.598  0.2908 -1.7762  1.0498
17066TIP3    H272614   3.837   5.796   3.474  1.2355  1.8587  1.8494
17067TIP3   OH272615   5.714   4.755   4.721  0.3018 -0.3716  0.2394
17067TIP3    H172616   5.723   4.806   4.640 -2.7319 -0.6360 -0.3578
17067TIP3    H272617   5.685   4.819   4.787 -0.3442 -0.7140  0.2958
17068TIP3   OH272618   3.493   6.133   5.096 -0.4143 -0.0785  0.4299
17068TIP3    H172619   3.569   6.143   5.038 -1.0041 -0.0860 -0.3695
17068TIP3    H272620   3.421   6.110   5.037 -0.8341 -1.0359  1.2801
17069TIP3   OH272621   0.103   6.139  14.939  0.0056  0.2716  0.9341
17069TIP3    H172622   0.012   6.148  14.966 -0.5142  0.8468 -0.8513
17069TIP3    H272623   0.114   6.045  14.923 -0.7492  0.3601 -0.2584
17070TIP3   OH272624   6.474   5.575   0.968  0.1788 -0.2589 -0.2197
17070TIP3    H172625   6.438   5.486   0.965 -1.8119  0.4413  1.0648
17070TIP3    H272626   6.456   5.610   0.881  0.7230 -0.9958 -0.6452
17071TIP3   OH272627   0.995   4.640  15.129  0.2190 -0.2580  0.3638
17071TIP3    H172628   0.998   4.722  15.179 -3.2846 -0.6422  1.4394
17071TIP3    H272629   1.083   4.604  15.137  1.3734  2.5016  1.3542
17072TIP3   OH272630   3.349   2.500   5.358  0.0848 -0.3316  0.2525
17072TIP3    H172631   3.335   2.416   5.401  0.9867 -0.6656 -0.0842
17072TIP3    H272632   3.404   2.549   5.420 -0.1688 -0.1078  0.3032
17073TIP3   OH272633   3.045   3.863   1.716 -0.6903 -0.4828 -0.7383
17073TIP3    H172634   3.076   3.898   1.800 -1.1767  0.1054 -0.7954
17073TIP3    H272635   2.961   3.908   1.701 -1.4728 -1.8861 -0.6895
17074TIP3   OH272636   4.690   3.970  11.994  0.2291 -0.8275 -0.1651
17074TIP3    H172637   4.603   3.986  12.029  0.3954  1.5888 -0.6820
17074TIP3    H272638   4.745   4.038  12.034  1.4978 -1.2471 -1.1205
17075TIP3   OH272639   6.222   1.593   2.604 -0.2730  0.1250  0.2032
17075TIP3    H172640   6.270   1.674   2.594 -0.2994  0.0587 -0.4901
17075TIP3    H272641   6.269   1.546   2.673  1.0253 -0.1952 -0.8471
17076TIP3   OH272642   2.312   6.557  10.595  0.2148 -0.4637  0.3263
17076TIP3    H172643   2.265   6.475  10.580 -1.6034  0.8438 -1.6599
17076TIP3    H272644   2.403   6.535  10.579  0.1529 -2.6224  2.3208
17077TIP3   OH272645   3.915   5.138  12.772 -0.2219 -0.1909  0.1647
17077TIP3    H172646   3.997   5.091  12.758 -0.8009 -1.2045  0.0130
17077TIP3    H272647   3.917   5.210  12.709  0.3691 -0.4484 -0.1159
17078TIP3   OH272648   1.849   1.817   3.758  0.5471 -0.2036  0.3717
17078TIP3    H172649   1.855   1.745   3.821 -1.2278 -0.4063  0.3618
17078TIP3    H272650   1.764   1.856   3.775  0.5598  0.5229 -1.0959
17079TIP3   OH272651   2.628   5.658  13.307 -0.1635 -0.3816  0.1942
17079TIP3    H172652   2.537   5.684  13.292 -0.2880 -0.6941  0.3922
17079TIP3    H272653   2.635   5.573  13.265  0.0154 -0.3931  0.2491
17080TIP3   OH272654   5.417   0.565  14.376  0.1454  0.1451  0.1545
17080TIP3    H172655   5.448   0.575  14.286  1.0661  1.0049  0.5418
17080TIP3    H272656   5.323   0.551  14.368  0.2941 -0.3145 -0.9590
17081TIP3   OH272657   5.806   6.078   2.298 -0.0963 -0.1757 -1.1878
17081TIP3    H172658   5.743   6.088   2.227 -1.0441 -1.4301 -0.5458
17081TIP3    H272659   5.753   6.057   2.375  1.0386 -0.3771 -0.4360
17082TIP3   OH272660   3.912   5.197  11.331 -0.1228 -0.8092 -0.0537
17082TIP3    H172661   3.855   5.230  11.261 -0.4367 -0.2759  0.4456
17082TIP3    H272662   3.993   5.247  11.321  0.7676 -2.4274 -1.5416
17083TIP3   OH272663   1.028   3.616   0.116  0.1975 -0.5833 -0.0477
17083TIP3    H172664   1.080   3.613   0.036 -0.1464 -0.2529 -0.2874
17083TIP3    H272665   0.982   3.532   0.119  0.1830 -0.5807 -0.2143
17084TIP3   OH272666   6.086   1.466   3.196 -0.4063  0.8003  0.1625
17084TIP3    H172667   6.181   1.473   3.188 -0.1798 -0.9253  0.8881
17084TIP3    H272668   6.064   1.385   3.150 -1.4970  1.0582  0.2015
17085TIP3   OH272669   2.502   1.211  11.786 -0.1043 -0.1064  0.2990
17085TIP3    H172670   2.450   1.155  11.728  1.7741 -1.0534 -0.5682
17085TIP3    H272671   2.537   1.279  11.728 -0.4715  0.6052  0.8949
17086TIP3   OH272672   6.027   6.448  10.518 -0.2871 -0.2629  0.0375
17086TIP3    H172673   6.034   6.397  10.599  1.6216 -2.5882 -1.4669
17086TIP3    H272674   5.976   6.393  10.459  1.4105 -0.2908 -1.4828
17087TIP3   OH272675   4.627   4.689   4.540 -0.1980 -0.3498  0.0924
17087TIP3    H172676   4.714   4.726   4.555 -0.4808 -0.1275  1.2767
17087TIP3    H272677   4.643   4.605   4.496  0.4303  1.6056 -3.8936
17088TIP3   OH272678   0.179   5.806   3.655 -0.2753  0.7826 -0.4938
17088TIP3    H172679   0.157   5.808   3.562  1.3778 -0.3769 -0.9531
17088TIP3    H272680   0.214   5.718   3.670 -0.6139  0.9144  1.2564
17089TIP3   OH272681   2.827   5.480   0.944 -0.5685  0.0230 -0.5003
17089TIP3    H172682   2.774   5.530   1.005 -0.5134 -0.5778  0.0461
17089TIP3    H272683   2.787   5.393   0.942 -0.0419 -0.2225 -0.6296
17090TIP3   OH272684   2.216   6.650  15.092 -0.2634  0.0045  0.6075
17090TIP3    H172685   2.305   6.671  15.121 -0.5867  0.8495  1.0077
17090TIP3    H272686   2.205   6.698  15.010  0.4931 -2.0346 -0.7745
17091TIP3   OH272687   4.619   2.505   0.874  0.1599  0.6568 -0.1330
17091TIP3    H172688   4.687   2.528   0.938  0.0069  0.0253  0.2694
17091TIP3    H272689   4.558   2.578   0.877  0.0650  0.5562  0.5769
17092TIP3   OH272690   3.569   6.463  14.300 -0.0587 -0.1084 -0.2978
17092TIP3    H172691   3.489   6.453  14.248  0.1005  0.8280 -0.7443
17092TIP3    H272692   3.619   6.383  14.282 -0.5515 -0.3456 -0.6273
17093TIP3   OH272693   6.506   1.373  14.224  0.3418 -0.1702  0.0647
17093TIP3    H172694   6.446   1.304  14.196 -1.2284  1.9588 -2.1575
17093TIP3    H272695   6.498   1.441  14.158  2.7947  1.6500  1.4523
17094TIP3   OH272696   5.151   3.524   2.526  0.0090  0.3270 -0.0104
17094TIP3    H172697   5.128   3.431   2.530 -1.7940  0.7591  2.5392
17094TIP3    H272698   5.247   3.525   2.525  0.0767 -1.5571  0.3185
17095TIP3   OH272699   3.873   5.256   3.075 -0.3577 -0.1258  0.3750
17095TIP3    H172700   3.878   5.285   2.984 -4.9396  0.1703  0.0039
17095TIP3    H272701   3.832   5.329   3.121  0.2815 -0.9391  2.3237
17096TIP3   OH272702   4.640   6.479  16.272  0.0256  0.0609  0.3279
17096TIP3    H172703   4.707   6.441  16.216  1.2600  0.7799  1.2699
17096TIP3    H272704   4.633   6.570  16.243  0.0974  0.2212  0.8042
17097TIP3   OH272705   5.453   5.817  11.841  0.0141 -0.2809  0.5509
17097TIP3    H172706   5.500   5.756  11.898  0.9819 -0.1376 -0.0564
17097TIP3    H272707   5.398   5.868  11.900  0.4086 -0.6581  1.2573
17098TIP3   OH272708   5.096   1.503  11.905 -0.2423 -0.4019  0.0780
17098TIP3    H172709   5.155   1.575  11.928  0.9032 -1.3559  0.2485
17098TIP3    H272710   5.016   1.520  11.955  0.1137  0.6015  0.3184
17099TIP3   OH272711   2.787   1.551  15.751  0.7675 -0.0280 -0.2222
17099TIP3    H172712   2.802   1.503  15.670  1.8834  0.7073 -0.4621
17099TIP3    H272713   2.749   1.634  15.723 -0.7336 -0.5464  0.1633
17100TIP3   OH272714   5.734   3.917  11.276  0.1747 -0.6157  0.0371
17100TIP3    H172715   5.811   3.901  11.222 -0.1960 -1.2378 -0.3114
17100TIP3    H272716   5.769   3.923  11.365  0.8624  1.0465 -0.3202
17101TIP3   OH272717   5.042   5.317  13.757 -0.1644  0.1532 -0.5114
17101TIP3    H172718   4.981   5.349  13.823 -0.5566 -0.4786 -0.5517
17101TIP3    H272719   5.115   5.378  13.760 -2.0041  2.6663 -2.4260
17102TIP3   OH272720   2.311   3.239  16.866 -0.6347 -0.0869  0.1379
17102TIP3    H172721   2.301   3.289  16.947 -1.5566 -0.7065  0.4352
17102TIP3    H272722   2.301   3.303  16.796 -1.2576  0.2354  0.5120
17103TIP3   OH272723   3.486   2.820  16.621  0.4007 -0.2918  1.0201
17103TIP3    H172724   3.557   2.773  16.665 -0.1058 -1.0934  0.9889
17103TIP3    H272725   3.421   2.753  16.601  0.8144 -0.0709 -1.4129
17104TIP3   OH272726   0.720   1.603   5.495 -0.4671  0.0602  0.1605
17104TIP3    H172727   0.638   1.607   5.445 -0.1348 -0.1847 -0.4128
17104TIP3    H272728   0.742   1.509   5.497  1.5131  0.3523 -2.5521
17105TIP3   OH272729   0.583   5.340  15.868  0.5651 -0.9522 -0.2470
17105TIP3    H172730   0.534   5.289  15.803  0.0901  0.6938 -1.2699
17105TIP3    H272731   0.646   5.390  15.816  0.2459  0.3264  0.5418
17106TIP3   OH272732   4.676   1.857   2.076  0.0505  0.2515  0.2541
17106TIP3    H172733   4.643   1.947   2.081  0.4839  0.3462  2.3646
17106TIP3    H272734   4.734   1.849   2.151 -1.2409 -2.3047  1.0777
17107TIP3   OH272735   3.332   0.711  14.401 -0.5961 -0.5593 -0.4297
17107TIP3    H172736   3.352   0.642  14.337  0.6547 -1.3857  0.7785
17107TIP3    H272737   3.245   0.689  14.434 -0.4845 -1.1931 -0.5381
17108TIP3   OH272738   0.579   1.523  13.827 -0.1843  0.4622  0.4223
17108TIP3    H172739   0.611   1.493  13.913 -0.1680  0.0111  0.2589
17108TIP3    H272740   0.486   1.501  13.828 -0.0109 -0.3217 -0.0082
17109TIP3   OH272741   3.200   4.327   4.571  0.2155  0.2136 -0.5076
17109TIP3    H172742   3.119   4.340   4.620 -0.0354 -0.3352 -0.7581
17109TIP3    H272743   3.236   4.415   4.560 -0.6351  0.5310 -0.8692
17110TIP3   OH272744   2.452   2.001  16.378  0.0020  0.0322  0.3246
17110TIP3    H172745   2.544   2.021  16.396  1.3684 -3.0792 -2.1212
17110TIP3    H272746   2.419   2.078  16.332  1.3001  1.3026  1.4322
17111TIP3   OH272747   2.799   1.220   5.537  0.5691 -0.4354  0.7114
17111TIP3    H172748   2.882   1.190   5.574  1.0610  0.5816  0.4620
17111TIP3    H272749   2.764   1.281   5.603  1.3883  1.2891 -0.3886
17112TIP3   OH272750   5.481   2.117  13.477  0.0149 -0.2141 -0.3487
17112TIP3    H172751   5.485   2.077  13.564  0.1521  1.1720  0.3056
17112TIP3    H272752   5.565   2.160  13.466 -0.5183  0.8184 -0.5476
17113TIP3   OH272753   2.546   3.123  16.986 -0.2401  0.5883 -0.3023
17113TIP3    H172754   2.514   3.086  17.068  0.3463  0.2292 -0.2281
17113TIP3    H272755   2.468   3.159  16.944 -0.9205 -1.1864 -0.6195
17114TIP3   OH272756   6.167   5.776  16.602  0.0270 -0.1239  0.1084
17114TIP3    H172757   6.191   5.686  16.579 -2.3809 -0.8370  0.0950
17114TIP3    H272758   6.201   5.788  16.691  3.7576  0.4082 -1.2113
17115TIP3   OH272759   2.060   3.795  13.224 -0.3388  0.0456  0.5972
17115TIP3    H172760   2.067   3.824  13.134 -1.2656  0.8900  0.7770
17115TIP3    H272761   2.144   3.817  13.264  0.3305 -0.9637 -0.2183
17116TIP3   OH272762   6.742   1.163   2.617 -0.1983  0.5036 -0.2646
17116TIP3    H172763   6.744   1.071   2.593 -1.1379  0.2720  0.4837
17116TIP3    H272764   6.783   1.208   2.544  1.9913 -0.6594  0.1412
17117TIP3   OH272765   0.659   4.554   4.898  0.3022 -0.4044  0.9019
17117TIP3    H172766   0.634   4.496   4.825  0.2092 -0.0686  0.6628
17117TIP3    H272767   0.621   4.513   4.975  0.9748 -1.1326  0.8656
17118TIP3   OH272768   0.197   3.536  14.536 -0.1691  0.1216 -0.1425
17118TIP3    H172769   0.237   3.623  14.543  0.1561  0.2268 -2.5017
17118TIP3    H272770   0.240   3.484  14.603  0.7444  1.3772  0.2909
17119TIP3   OH272771   4.804   0.396  13.800  0.5775 -0.3400 -0.0959
17119TIP3    H172772   4.764   0.323  13.751  1.5925 -0.1673 -1.2213
17119TIP3    H272773   4.733   0.429  13.854 -0.8640 -0.0081 -2.0801
17120TIP3   OH272774   3.356   5.273  15.031 -0.2126 -0.3355 -0.1840
17120TIP3    H172775   3.332   5.182  15.043  1.0445 -0.6738 -0.1207
17120TIP3    H272776   3.452   5.273  15.024  0.0191  1.1756  1.8264
17121TIP3   OH272777   4.863   2.780   0.241 -0.2479  0.4863  0.0287
17121TIP3    H172778   4.798   2.790   0.172 -1.1582  1.8549  1.0438
17121TIP3    H272779   4.894   2.869   0.258 -0.0776  0.1902  1.4011
17122TIP3   OH272780   0.461   2.514  13.852  0.5960 -0.5665  0.1031
17122TIP3    H172781   0.537   2.492  13.797  0.8714 -1.1720  0.7106
17122TIP3    H272782   0.494   2.507  13.942  0.2824  0.9063  0.3446
17123TIP3   OH272783   0.905   6.255  14.398  0.1698 -0.1880  0.5773
17123TIP3    H172784   0.838   6.229  14.461 -0.9875  0.8507 -0.1740
17123TIP3    H272785   0.957   6.321  14.444 -1.1000  1.0764  0.2528
17124TIP3   OH272786   3.987   3.914   1.647  0.5569 -0.1083  0.9226
17124TIP3    H172787   3.940   3.905   1.564  0.7478  0.4053  0.7594
17124TIP3    H272788   4.080   3.906   1.623  0.5722 -1.0939  1.2411
17125TIP3   OH272789   1.272   5.631  15.030 -0.7963 -0.6677  0.4853
17125TIP3    H172790   1.275   5.625  14.934 -2.5570 -1.8599  0.4631
17125TIP3    H272791   1.299   5.544  15.060 -0.5713 -0.3954  1.0794
17126TIP3   OH272792   4.246   6.501   2.244 -0.6058  0.3673 -0.0153
17126TIP3    H172793   4.188   6.466   2.312  0.0247  1.8376  1.3231
17126TIP3    H272794   4.233   6.442   2.170 -0.7642 -1.7299  1.5952
17127TIP3   OH272795   5.993   0.456  12.471 -0.6099  0.1726 -0.0479
17127TIP3    H172796   6.054   0.383  12.462 -0.3746  0.2190  0.9679
17127TIP3    H272797   5.950   0.462  12.386 -1.3244 -1.7587  0.1230
17128TIP3   OH272798   5.931   2.497  11.583  0.4486  0.1561  0.0029
17128TIP3    H172799   5.962   2.438  11.513  0.2846 -2.0134  1.6694
17128TIP3    H272800   5.991   2.572  11.578  0.8365 -0.2123 -2.0233
17129TIP3   OH272801   0.193   5.014   5.564  0.2044 -0.2556 -0.5278
17129TIP3    H172802   0.183   5.067   5.644  0.0780 -0.9070 -0.1033
17129TIP3    H272803   0.166   4.926   5.591  1.6192 -0.8150 -0.8820
17130TIP3   OH272804   2.456   0.957  12.150  0.0632 -0.5505  0.2963
17130TIP3    H172805   2.439   0.890  12.216  1.6875 -0.5937  0.7080
17130TIP3    H272806   2.398   1.029  12.174  0.9130 -0.3918  2.0549
17131TIP3   OH272807   1.491   5.802  15.026 -0.0570  0.3898 -0.0120
17131TIP3    H172808   1.428   5.730  15.020  0.1225  0.1057  1.3064
17131TIP3    H272809   1.571   5.766  14.988 -0.1046  0.0580  0.1964
17132TIP3   OH272810   0.168   4.585   1.929 -0.0177 -0.0129 -0.8185
17132TIP3    H172811   0.137   4.607   2.018 -1.1184  2.0177 -1.6279
17132TIP3    H272812   0.160   4.667   1.881  2.3350 -0.5897 -2.3584
17133TIP3   OH272813   2.460   1.769   1.547 -0.4233  0.3649  0.5242
17133TIP3    H172814   2.425   1.855   1.573  1.4739  1.2890  0.1753
17133TIP3    H272815   2.522   1.747   1.616 -0.3427 -0.3858  0.2131
17134TIP3   OH272816   1.709   6.195   3.453  0.2530 -0.2756 -0.6663
17134TIP3    H172817   1.637   6.190   3.390 -1.2395 -0.3945  0.9689
17134TIP3    H272818   1.707   6.112   3.500  0.6446  0.1997  0.2293
17135TIP3   OH272819   1.053   1.565   3.342  0.0671  0.1675 -0.5260
17135TIP3    H172820   1.133   1.547   3.391 -0.5759 -0.6056  0.2664
17135TIP3    H272821   1.077   1.638   3.285  0.7708  1.2922  1.1149
17136TIP3   OH272822   1.351   6.580   2.878 -0.1618  0.0997  0.2973
17136TIP3    H172823   1.434   6.553   2.837 -0.0198  1.9955 -0.7701
17136TIP3    H272824   1.284   6.540   2.823  0.0404  2.0929 -1.5388
17137TIP3   OH272825   5.860   4.546  13.781 -0.5514 -0.1187 -0.0615
17137TIP3    H172826   5.820   4.633  13.773 -1.7269 -0.5756  0.6908
17137TIP3    H272827   5.874   4.535  13.875  0.1661 -0.4997 -0.2106
17138TIP3   OH272828   2.963   4.028  15.522  0.0512 -0.7566  0.0489
17138TIP3    H172829   2.932   4.118  15.526  2.5451  0.1857 -0.1700
17138TIP3    H272830   2.952   3.995  15.611  0.0711  0.0894  0.3718
17139TIP3   OH272831   2.610   5.934   3.718 -0.4563  0.9731  0.6040
17139TIP3    H172832   2.677   5.977   3.772  1.1883 -0.0989 -0.4664
17139TIP3    H272833   2.580   6.003   3.659  1.1326  1.0419 -0.1753
17140TIP3   OH272834   5.923   3.685   4.296  0.2620  0.0381  0.7151
17140TIP3    H172835   5.865   3.741   4.244  1.2341  0.3203 -0.0858
17140TIP3    H272836   5.984   3.746   4.338  1.4107 -0.3942 -0.2588
17141TIP3   OH272837   0.557   2.547   0.078 -0.1045  0.5510  0.0008
17141TIP3    H172838   0.476   2.498   0.089  0.2726 -0.0933 -0.0023
17141TIP3    H272839   0.531   2.638   0.084 -0.6996  0.3418  0.8895
17142TIP3   OH272840   3.862   3.387   5.250 -0.1313 -0.2529  0.0506
17142TIP3    H172841   3.934   3.446   5.272  2.2478 -1.1022 -4.3838
17142TIP3    H272842   3.819   3.427   5.174 -1.6746 -1.8303  0.0089
17143TIP3   OH272843   0.583   1.923   5.182  0.1753 -0.2695  0.0245
17143TIP3    H172844   0.608   1.950   5.094  0.8997 -1.8620 -0.2912
17143TIP3    H272845   0.490   1.905   5.177 -0.0264  0.7515 -0.1051
17144TIP3   OH272846   0.301   4.018   3.360  0.2575 -0.2363  0.6163
17144TIP3    H172847   0.353   3.993   3.436 -0.0025  1.4460  1.4081
17144TIP3    H272848   0.249   4.092   3.391  0.5178  0.8222 -1.3245
17145TIP3   OH272849   6.022   1.643   0.460  0.2806 -0.2727  0.6448
17145TIP3    H172850   6.025   1.577   0.391  0.9783  0.2829  0.1318
17145TIP3    H272851   6.102   1.630   0.510  0.3554  0.0948  0.6230
17146TIP3   OH272852   1.268   6.156  15.727 -0.2035 -0.4546 -0.7907
17146TIP3    H172853   1.183   6.187  15.757  0.3698 -1.3679  2.1651
17146TIP3    H272854   1.325   6.167  15.803  1.5775 -2.5980 -1.6976
17147TIP3   OH272855   3.383   5.816  15.091 -0.1191  0.2743  0.3985
17147TIP3    H172856   3.319   5.790  15.158  0.0080 -0.5071  0.2290
17147TIP3    H272857   3.346   5.895  15.052 -2.0960 -1.2982 -1.1592
17148TIP3   OH272858   2.315   2.334   5.414 -0.1584  0.0183  0.1438
17148TIP3    H172859   2.361   2.303   5.336  2.1827  0.3711  1.3274
17148TIP3    H272860   2.257   2.261   5.437 -1.8888  0.3608 -2.5460
17149TIP3   OH272861   3.537   4.387  14.059  1.0141  0.6825 -0.0081
17149TIP3    H172862   3.459   4.390  14.114  1.3710 -0.0043  0.5479
17149TIP3    H272863   3.511   4.429  13.977  0.1830  0.8080  0.3189
17150TIP3   OH272864   4.984   6.390   3.761 -0.4083 -0.3439  0.2586
17150TIP3    H172865   4.990   6.299   3.790 -1.0339 -0.6627 -0.5703
17150TIP3    H272866   5.075   6.416   3.746 -0.3418 -1.7537 -2.2187
17151TIP3   OH272867   4.790   6.358  14.051  0.0714  0.1154  0.1435
17151TIP3    H172868   4.742   6.277  14.072  0.3243 -0.0259  0.1843
17151TIP3    H272869   4.880   6.340  14.081  0.2579  0.1978 -0.3682
17152TIP3   OH272870   0.696   6.749   0.806  0.4221  0.6871 -0.1023
17152TIP3    H172871   0.611   6.745   0.763 -0.0741  2.0085  0.6998
17152TIP3    H272872   0.684   6.702   0.888  0.9119 -0.4325 -0.6541
17153TIP3   OH272873   1.666   3.961   3.617 -0.0037  0.3933 -0.2187
17153TIP3    H172874   1.648   4.032   3.555 -0.7769  0.0978 -0.3399
17153TIP3    H272875   1.744   3.917   3.581  0.1050  0.7890 -0.4770
17154TIP3   OH272876   3.198   1.515   0.952 -0.6645  0.2248 -0.2204
17154TIP3    H172877   3.167   1.452   1.016 -0.1405 -0.0377 -0.2185
17154TIP3    H272878   3.218   1.463   0.874 -0.5737  0.4373 -0.3417
17155TIP3   OH272879   6.083   3.612   0.040 -0.5973  0.0815 -0.4346
17155TIP3    H172880   6.066   3.704   0.057 -1.3986 -0.3510  1.3501
17155TIP3    H272881   6.177   3.607   0.024 -0.1790  0.9686  1.4833
17156TIP3   OH272882   6.665   3.680  14.127  0.5494 -0.0660  0.5869
17156TIP3    H172883   6.700   3.689  14.215 -0.6088 -0.0532  1.0724
17156TIP3    H272884   6.650   3.770  14.098  1.2970 -0.0564  0.2138
17157TIP3   OH272885   0.765   2.588  12.767 -0.2352 -0.1796 -0.2234
17157TIP3    H172886   0.824   2.557  12.836 -0.5102 -0.8720 -0.2909
17157TIP3    H272887   0.691   2.527  12.770 -0.7699  0.4478 -0.3958
17158TIP3   OH272888   4.864   2.143  15.553  0.2376 -0.4163  0.2807
17158TIP3    H172889   4.874   2.058  15.596  1.5868 -0.7602 -0.6588
17158TIP3    H272890   4.952   2.180  15.550 -0.1886  0.6130 -0.1585
17159TIP3   OH272891   5.325   5.982  13.298  0.3006 -0.0405  0.3476
17159TIP3    H172892   5.382   5.916  13.259  1.2140  0.8042  0.1932
17159TIP3    H272893   5.238   5.963  13.263  0.9199  0.1304 -1.3978
17160TIP3   OH272894   3.939   0.207   0.064  0.0922 -0.1524 -0.1623
17160TIP3    H172895   3.859   0.171   0.101  0.3817 -0.2640  0.3680
17160TIP3    H272896   3.963   0.278   0.123  0.6645 -0.4586 -0.0178
17161TIP3   OH272897   3.927   6.770   0.752  0.1983  0.3617 -0.5415
17161TIP3    H172898   3.898   6.732   0.835  0.2773  2.2907  0.4200
17161TIP3    H272899   3.859   6.745   0.689  0.3136 -1.4230 -0.0208
17162TIP3   OH272900   4.395   0.480  11.027  0.3503  0.1904  0.3246
17162TIP3    H172901   4.460   0.409  11.030  0.6826  0.5088  0.9322
17162TIP3    H272902   4.404   0.524  11.112 -1.1677 -0.2069  0.7268
17163TIP3   OH272903   1.773   2.744  15.101 -0.0217  0.4234  0.2478
17163TIP3    H172904   1.864   2.742  15.069 -0.9637 -1.1148 -2.6321
17163TIP3    H272905   1.726   2.794  15.034 -1.5765 -0.0530  0.9569
17164TIP3   OH272906   5.534   4.127  13.487  0.3651 -0.5902 -0.7239
17164TIP3    H172907   5.625   4.102  13.501  0.4451  0.2621  0.4580
17164TIP3    H272908   5.535   4.175  13.404  0.7883 -1.5103 -1.2613
17165TIP3   OH272909   1.836   0.687  15.482 -0.1387  0.0816  0.0374
17165TIP3    H172910   1.909   0.638  15.446 -0.4929 -0.1073 -0.4322
17165TIP3    H272911   1.857   0.779  15.466  0.3084  0.0658  0.5078
17166TIP3   OH272912   4.211   3.815  16.739  0.0261  0.1257 -0.0320
17166TIP3    H172913   4.231   3.722  16.732 -2.0068 -0.3724  0.1525
17166TIP3    H272914   4.199   3.830  16.833 -3.6263 -0.4504 -0.2416
17167TIP3   OH272915   0.378   3.262   1.274  0.3721 -0.1609  0.4313
17167TIP3    H172916   0.334   3.191   1.321 -0.7192 -0.0392 -0.3885
17167TIP3    H272917   0.327   3.340   1.294  0.7558  0.1550  0.1975
17168TIP3   OH272918   0.359   5.848   6.170 -0.1687  0.3985 -0.1907
17168TIP3    H172919   0.366   5.935   6.131 -0.0939  0.3837 -0.2101
17168TIP3    H272920   0.317   5.862   6.254  2.2112  0.8138  1.0140
17169TIP3   OH272921   0.993   1.263  13.717  0.2974  0.1220  0.0899
17169TIP3    H172922   0.956   1.177  13.733  1.7461 -0.6835 -0.7239
17169TIP3    H272923   1.088   1.250  13.721  0.5380  1.8532  0.8443
17170TIP3   OH272924   6.684   0.275   2.717 -0.5848 -0.2517  0.2826
17170TIP3    H172925   6.647   0.358   2.688 -0.2166 -0.6292 -1.3702
17170TIP3    H272926   6.635   0.208   2.669 -0.6043 -0.9818  1.2862
17171TIP3   OH272927   6.718   3.538  12.070 -0.1980  0.2898 -0.4097
17171TIP3    H172928   6.739   3.488  11.990 -0.8756  1.1210 -1.1303
17171TIP3    H272929   6.739   3.479  12.142  2.2475  0.1892 -1.1361
17172TIP3   OH272930   4.819   5.685   1.367  0.0134 -0.3475  0.3108
17172TIP3    H172931   4.845   5.630   1.441  1.1539  1.5268  1.3836
17172TIP3    H272932   4.896   5.686   1.310  0.3379  0.8172  0.7472
17173TIP3   OH272933   5.086   5.989  14.718  0.3548 -0.4132  0.1944
17173TIP3    H172934   5.089   6.030  14.804  0.1209 -1.9730  0.9753
17173TIP3    H272935   5.126   5.903  14.730 -2.0405 -1.7433 -0.6018
17174TIP3   OH272936   3.189   4.337  13.019 -0.7730  0.2459  0.4571
17174TIP3    H172937   3.111   4.355  13.071 -0.3198  1.3651  0.7924
17174TIP3    H272938   3.179   4.392  12.941 -0.7063 -0.2248  0.1152
17175TIP3   OH272939   3.152   0.558  14.881  0.0456 -0.1477 -0.2505
17175TIP3    H172940   3.198   0.622  14.826  0.4275 -1.0537 -1.0104
17175TIP3    H272941   3.156   0.476  14.831  0.2010 -0.9450  1.0272
17176TIP3   OH272942   4.331   3.595   4.720 -0.6452 -0.3820 -0.3159
17176TIP3    H172943   4.316   3.511   4.764 -0.5789 -1.2239 -1.8335
17176TIP3    H272944   4.249   3.614   4.675 -0.2406 -0.3056 -1.0455
17177TIP3   OH272945   5.153   1.159  14.399 -0.3672  0.3250 -0.0898
17177TIP3    H172946   5.221   1.204  14.450  0.6032 -1.4144  0.2528
17177TIP3    H272947   5.107   1.229  14.353 -0.1825  1.8103  1.8565
17178TIP3   OH272948   6.258   0.190   6.538  0.2055  0.6162  0.3724
17178TIP3    H172949   6.179   0.163   6.491  0.8573  1.6645 -1.4708
17178TIP3    H272950   6.244   0.283   6.556 -0.3365  0.1014  3.0425
17179TIP3   OH272951   3.784   4.051   5.339  0.5876 -0.0988 -0.1228
17179TIP3    H172952   3.809   3.962   5.317 -0.5723 -0.4815  0.0410
17179TIP3    H272953   3.712   4.071   5.279  0.7613  0.6951 -0.0845
17180TIP3   OH272954   5.869   5.181  12.135  0.4689 -0.0046  0.0785
17180TIP3    H172955   5.841   5.209  12.223 -1.8368  1.0125 -0.9039
17180TIP3    H272956   5.940   5.241  12.113 -0.2866  1.0901  0.4909
17181TIP3   OH272957   1.644   4.630   2.959 -0.1611  0.5749  0.4810
17181TIP3    H172958   1.598   4.682   2.893  1.4980  0.7756 -0.5782
17181TIP3    H272959   1.600   4.545   2.956  0.1054  0.4514 -1.2039
17182TIP3   OH272960   5.622   0.010  12.293 -0.3843 -0.1779 -0.1743
17182TIP3    H172961   5.645  -0.074  12.334  0.2044  0.3822  0.6756
17182TIP3    H272962   5.541   0.036  12.336  0.3929  0.5563  0.8865
17183TIP3   OH272963   0.174   0.486  13.633  0.4353  0.5750 -0.7660
17183TIP3    H172964   0.164   0.437  13.551 -1.2763  0.7329 -0.6728
17183TIP3    H272965   0.132   0.431  13.699 -2.2924  2.4673 -0.7863
17184TIP3   OH272966   0.838   5.691   3.250  0.0687  0.9444 -0.1294
17184TIP3    H172967   0.884   5.609   3.230 -0.7594  0.8205 -1.6560
17184TIP3    H272968   0.904   5.759   3.236  0.6373  0.5939  0.7215
17185TIP3   OH272969   2.422   2.280  16.292  0.4226 -0.0792 -0.3144
17185TIP3    H172970   2.405   2.300  16.200 -0.9156 -1.2620 -0.3528
17185TIP3    H272971   2.407   2.363  16.338  0.3543  0.3280 -1.0589
17186TIP3   OH272972   3.383   4.683  13.426  0.0249 -0.1294  0.4847
17186TIP3    H172973   3.439   4.760  13.411  2.0137 -1.4916  0.5095
17186TIP3    H272974   3.419   4.642  13.504 -0.6938 -1.3605  0.1994
17187TIP3   OH272975   2.578   2.487   5.241 -0.5355  0.2470 -0.1868
17187TIP3    H172976   2.660   2.473   5.192 -1.1649 -0.3992 -1.0993
17187TIP3    H272977   2.544   2.399   5.256 -0.3477  0.4428  1.4711
17188TIP3   OH272978   0.752   0.025   2.278 -0.3110  0.4346 -0.4496
17188TIP3    H172979   0.804   0.081   2.220  0.6849  0.1742  0.1713
17188TIP3    H272980   0.816  -0.017   2.335 -1.0398 -1.3074 -0.8569
17189TIP3   OH272981   2.353   1.953   0.868  0.5268 -0.0744  0.0127
17189TIP3    H172982   2.373   1.997   0.786  0.9135 -0.2506  0.0099
17189TIP3    H272983   2.332   1.863   0.843  0.1360  0.0022  0.0574
17190TIP3   OH272984   6.781   4.683   2.507 -0.4932  0.4062  0.3930
17190TIP3    H172985   6.702   4.647   2.549  0.1724  0.4937  1.7524
17190TIP3    H272986   6.816   4.610   2.457 -1.7208  0.5138 -0.6907
17191TIP3   OH272987   6.733   5.108   4.903  0.0431 -0.0746  0.4109
17191TIP3    H172988   6.667   5.042   4.881 -0.2366  0.9512 -2.1093
17191TIP3    H272989   6.806   5.058   4.940  0.8176 -2.2153 -3.4580
17192TIP3   OH272990   0.282   2.159   1.473  0.3584  0.5052 -0.6833
17192TIP3    H172991   0.244   2.082   1.514  1.3565  0.0276 -0.6332
17192TIP3    H272992   0.375   2.140   1.468  0.8218  2.2565  0.5166
17193TIP3   OH272993   3.320   3.530   0.165 -0.5888 -0.1559 -0.2921
17193TIP3    H172994   3.340   3.618   0.134 -0.4522 -0.3540 -0.7755
17193TIP3    H272995   3.275   3.488   0.092 -2.7133  0.2393  0.7148
17194TIP3   OH272996   0.965   5.742   0.260  0.3837  0.2893  0.0128
17194TIP3    H172997   0.894   5.717   0.200  0.5340  3.0945 -1.5286
17194TIP3    H272998   0.945   5.833   0.283  3.1389  0.9786  0.0167
17195TIP3   OH272999   0.770   0.089   4.346  0.1140  0.2038 -0.1252
17195TIP3    H173000   0.717   0.079   4.267  0.3222 -0.9734 -0.1347
17195TIP3    H273001   0.852   0.045   4.325 -0.3370 -1.3736  1.2061
17196TIP3   OH273002   1.417   0.108  11.348  0.8726 -0.1025 -0.0146
17196TIP3    H173003   1.510   0.123  11.366  0.9347 -0.6436  0.1455
17196TIP3    H273004   1.379   0.195  11.341  1.0378  0.1387  1.7736
17197TIP3   OH273005   4.429   3.435  16.952 -0.1835  0.2927  0.0359
17197TIP3    H173006   4.513   3.425  16.907 -0.1689 -0.6245  0.2593
17197TIP3    H273007   4.449   3.420  17.044 -0.3798  1.2892  0.2530
17198TIP3   OH273008   2.267   4.440   4.034  0.0172  0.1850 -0.2429
17198TIP3    H173009   2.225   4.355   4.041 -0.7971  0.6116  0.2856
17198TIP3    H273010   2.326   4.445   4.109 -1.6559  0.9731  1.1072
17199TIP3   OH273011   5.436   3.356  13.092  0.3272 -0.0946 -0.1701
17199TIP3    H173012   5.501   3.295  13.127 -1.1956 -1.9954 -0.4836
17199TIP3    H273013   5.444   3.434  13.148  2.8783 -0.1919 -0.2635
17200TIP3   OH273014   4.013   6.309   0.462 -0.3665 -1.0022 -0.0166
17200TIP3    H173015   3.978   6.266   0.540  0.1356  0.4391  1.0381
17200TIP3    H273016   4.083   6.250   0.431  0.0408 -1.1493  1.1591
17201TIP3   OH273017   4.589   3.238  11.039 -0.4253  0.4171  0.0065
17201TIP3    H173018   4.668   3.282  11.007 -0.9996  1.1589 -0.3985
17201TIP3    H273019   4.590   3.152  10.997 -0.2549  0.7246 -0.6193
17202TIP3   OH273020   4.507   4.590  11.115 -0.0774 -0.3126 -0.3955
17202TIP3    H173021   4.529   4.683  11.118 -2.3536  0.4672 -2.9758
17202TIP3    H273022   4.499   4.571  11.021 -0.1009 -3.0166  0.0960
17203TIP3   OH273023   6.374   6.712  12.158 -0.3793  0.5626  0.0201
17203TIP3    H173024   6.291   6.760  12.160 -1.2596 -0.8251 -1.2514
17203TIP3    H273025   6.432   6.767  12.105 -0.1421  1.9856  1.6671
17204TIP3   OH273026   1.091   3.467   6.114 -0.3056 -0.2972  0.1555
17204TIP3    H173027   1.073   3.522   6.191 -0.2233  0.5842 -0.4370
17204TIP3    H273028   1.094   3.378   6.148 -2.4152 -0.1744  0.8492
17205TIP3   OH273029   0.994   3.475  11.513  0.0411 -0.1020 -0.1670
17205TIP3    H173030   0.898   3.470  11.514 -0.0387  0.9529  1.0008
17205TIP3    H273031   1.012   3.564  11.544  1.4054 -0.3326 -0.2752
17206TIP3   OH273032   2.195   1.769  14.957  0.3142  0.1827 -0.6697
17206TIP3    H173033   2.143   1.803  15.030  0.6745 -1.0658  0.2131
17206TIP3    H273034   2.132   1.755  14.887 -0.6498 -1.6214  0.4825
17207TIP3   OH273035   1.480   1.363  12.167 -0.0259 -0.0604  0.3894
17207TIP3    H173036   1.488   1.391  12.258  0.5966  0.4660  0.1777
17207TIP3    H273037   1.565   1.323  12.147 -0.4569 -0.9518  0.2917
17208TIP3   OH273038   4.036   5.533  16.961  0.0761 -0.5133 -0.3192
17208TIP3    H173039   4.070   5.489  16.884  0.9284  0.9834 -0.8498
17208TIP3    H273040   4.092   5.610  16.971 -0.2131 -0.5070  1.6145
17209TIP3   OH273041   1.895   4.097  14.990  0.1356  0.7557 -0.1105
17209TIP3    H173042   1.846   4.176  15.015  2.4153  2.0436  0.6064
17209TIP3    H273043   1.830   4.039  14.952 -1.7473  2.7600 -0.1249
17210TIP3   OH273044   1.014   0.339   6.325  0.4584 -0.9731  0.4777
17210TIP3    H173045   1.050   0.295   6.248 -0.1747 -0.2651 -0.2372
17210TIP3    H273046   1.067   0.306   6.398  2.8359  0.2829 -0.5469
17211TIP3   OH273047   0.293   0.098  14.915  0.2486 -0.6743 -0.3869
17211TIP3    H173048   0.204   0.067  14.931  0.3781 -1.6633 -1.4086
17211TIP3    H273049   0.289   0.135  14.827  0.7027 -0.1162 -0.1774
17212TIP3   OH273050   3.921   3.855  15.233  0.0814  0.1770  0.4817
17212TIP3    H173051   3.942   3.781  15.290 -0.4870 -0.4220 -0.0738
17212TIP3    H273052   3.898   3.815  15.149  1.1835  1.0564 -0.2781
17213TIP3   OH273053   5.494   5.787  12.381  0.4997  0.5685  0.5855
17213TIP3    H173054   5.562   5.740  12.334  0.5505  0.2183  1.0098
17213TIP3    H273055   5.538   5.864  12.417  0.0631  1.9614 -1.6009
17214TIP3   OH273056   2.728   0.938  12.042  0.3766  0.6448 -0.0553
17214TIP3    H173057   2.740   1.001  11.971  0.5550  0.5031 -0.1504
17214TIP3    H273058   2.636   0.946  12.066  0.6204  1.6650  0.6019
17215TIP3   OH273059   2.558   0.382  11.614  0.4406 -0.0583  0.4027
17215TIP3    H173060   2.541   0.339  11.698 -0.5795 -1.3340 -0.4203
17215TIP3    H273061   2.502   0.460  11.616 -0.8553 -0.9457  0.2740
17216TIP3   OH273062   6.170   3.622   3.352  0.0275  0.0081  0.2807
17216TIP3    H173063   6.113   3.699   3.355 -0.5195 -0.1084 -3.0912
17216TIP3    H273064   6.252   3.651   3.392 -1.4830  0.9849  2.8813
17217TIP3   OH273065   3.316   4.063   3.649  0.2390 -0.1590  0.3416
17217TIP3    H173066   3.313   4.099   3.737 -1.8443 -1.1100  0.7163
17217TIP3    H273067   3.405   4.030   3.640 -0.2460 -2.6653  3.2347
17218TIP3   OH273068   0.652   6.037  12.959 -0.1964  0.2542  0.1330
17218TIP3    H173069   0.729   5.988  12.932 -1.6661 -1.9154 -0.4215
17218TIP3    H273070   0.655   6.037  13.055 -0.0872 -0.8535  0.1397
17219TIP3   OH273071   3.409   1.975  15.369  0.7373  0.4098 -0.5979
17219TIP3    H173072   3.499   1.998  15.347  1.2514 -0.8575  0.0859
17219TIP3    H273073   3.392   2.022  15.451  0.8680  0.4392 -0.5878
17220TIP3   OH273074   3.729   4.012   4.068 -0.8000 -0.0138 -0.0291
17220TIP3    H173075   3.663   3.947   4.090 -1.8317 -0.2760 -3.2513
17220TIP3    H273076   3.681   4.080   4.019  0.4950  2.4863  1.9125
17221TIP3   OH273077   0.301   1.420  12.701 -0.0624 -0.1303  0.1963
17221TIP3    H173078   0.275   1.416  12.793 -1.2866  2.3573  0.0467
17221TIP3    H273079   0.374   1.482  12.698  1.6744 -2.0573 -0.2756
17222TIP3   OH273080   5.168   2.554  16.739  0.3413 -0.5195  0.2232
17222TIP3    H173081   5.103   2.579  16.805 -2.4182  0.7399 -2.7066
17222TIP3    H273082   5.231   2.626  16.740  0.4242 -0.5723  1.4865
17223TIP3   OH273083   6.572   1.568   3.304 -0.2093 -0.1031 -0.1589
17223TIP3    H173084   6.599   1.659   3.319 -0.3923 -0.2492  1.1711
17223TIP3    H273085   6.547   1.536   3.390 -1.6699 -0.9394 -0.8598
17224TIP3   OH273086   0.930   0.150   2.084  0.4409 -0.2354  0.1457
17224TIP3    H173087   0.906   0.238   2.057  1.9910  0.3744  0.6793
17224TIP3    H273088   0.936   0.100   2.002  0.7288  0.4588 -0.2599
17225TIP3   OH273089   2.863   6.229   1.175 -0.3587  0.0765 -0.5576
17225TIP3    H173090   2.853   6.178   1.256 -1.6073  0.6492 -0.3332
17225TIP3    H273091   2.877   6.163   1.107  0.3119 -0.4369  0.0590
17226TIP3   OH273092   4.747   5.192  16.944 -0.3669  0.2227 -0.1307
17226TIP3    H173093   4.729   5.252  17.017 -1.1975 -1.5726  1.2489
17226TIP3    H273094   4.660   5.164  16.914 -0.1097  2.0996 -2.9456
17227TIP3   OH273095   5.301   4.794  15.227 -0.0900  0.5181  0.1136
17227TIP3    H173096   5.225   4.794  15.285  0.7231  1.6644  1.2227
17227TIP3    H273097   5.295   4.876  15.178  1.5217  1.6964  1.7599
17228TIP3   OH273098   4.027   4.594  13.064 -0.2751 -0.3313  0.1386
17228TIP3    H173099   4.069   4.563  13.144  0.7231 -0.3576 -0.3869
17228TIP3    H273100   3.942   4.627  13.093 -0.1218 -0.7852  1.1361
17229TIP3   OH273101   2.755   4.739   1.915 -0.1358  0.4075  0.0026
17229TIP3    H173102   2.843   4.728   1.879 -0.3534  0.1147 -0.4374
17229TIP3    H273103   2.724   4.650   1.931  1.1335  0.4481  3.8573
17230TIP3   OH273104   3.459   2.704  15.584 -0.1774  0.0639  0.4644
17230TIP3    H173105   3.487   2.793  15.603 -0.3886  0.4360 -0.8319
17230TIP3    H273106   3.382   2.715  15.528 -0.4851 -0.9306  0.6759
17231TIP3   OH273107   3.148   0.910  15.708  0.2805 -0.1156 -0.7550
17231TIP3    H173108   3.054   0.897  15.708  0.2628 -0.0019 -0.9733
17231TIP3    H273109   3.184   0.822  15.694  0.3114 -0.6535  2.1749
17232TIP3   OH273110   4.419   6.227   3.838 -0.5866  0.7256  0.2377
17232TIP3    H173111   4.335   6.243   3.795 -1.7469 -1.3721  1.5248
17232TIP3    H273112   4.424   6.132   3.846  1.2563  0.8667  1.4588
17233TIP3   OH273113   6.395   1.057   5.519  0.2507  0.0834 -0.4707
17233TIP3    H173114   6.437   1.017   5.443  0.2774  0.7789 -0.8242
17233TIP3    H273115   6.453   1.129   5.543  0.6842 -0.6271  0.7272
17234TIP3   OH273116   3.384   0.887   3.429 -0.1408 -0.1639  0.1623
17234TIP3    H173117   3.476   0.872   3.453 -0.3895 -0.0210  1.2253
17234TIP3    H273118   3.376   0.848   3.342  1.3001  1.0895 -0.5956
17235TIP3   OH273119   0.887   2.953   0.624 -0.0801 -0.2981 -0.6589
17235TIP3    H173120   0.833   2.880   0.653  0.1702 -0.6114 -0.9801
17235TIP3    H273121   0.930   2.984   0.703  1.3619 -1.7724 -0.8154
17236TIP3   OH273122   4.966   5.239  11.285 -0.0873  0.4818  0.3245
17236TIP3    H173123   4.887   5.185  11.294 -0.0343  0.0595 -1.3725
17236TIP3    H273124   4.938   5.314  11.233  0.3706  0.9449  0.7324
17237TIP3   OH273125   5.970   3.045   5.644 -0.5897  0.5024  0.0054
17237TIP3    H173126   5.975   3.110   5.575 -1.6594  0.4620 -0.1311
17237TIP3    H273127   6.000   3.091   5.723  0.2126  0.6732 -0.4006
17238TIP3   OH273128   6.542   6.012   6.249 -0.1962 -0.3316  0.5078
17238TIP3    H173129   6.590   5.992   6.168 -1.5977 -1.3877 -0.1158
17238TIP3    H273130   6.484   5.936   6.261  1.3933 -1.2457  3.6524
17239TIP3   OH273131   4.994   0.166  13.452  0.6025 -0.1550 -0.3686
17239TIP3    H173132   5.029   0.181  13.540  1.1106  0.4286 -0.6671
17239TIP3    H273133   4.979   0.072  13.448 -0.2926 -0.0831  0.6703
17240TIP3   OH273134   5.966   5.349   2.416 -0.0313 -0.1600 -0.2360
17240TIP3    H173135   5.999   5.327   2.329  1.0231  0.6527 -0.0695
17240TIP3    H273136   6.040   5.393   2.459 -1.7927  3.3685 -0.4631
17241TIP3   OH273137   0.929   2.296  12.952  0.1505  0.5856  0.3271
17241TIP3    H173138   0.937   2.273  12.860  0.3060  2.3042 -0.1154
17241TIP3    H273139   0.955   2.217  12.999 -0.3890 -0.4688 -1.0891
17242TIP3   OH273140   6.543   5.127   2.734  0.3556 -0.0364 -0.3195
17242TIP3    H173141   6.554   5.216   2.768 -0.4816 -0.0783  0.0915
17242TIP3    H273142   6.496   5.081   2.803  0.5948 -0.7433 -0.6195
17243TIP3   OH273143   0.588   2.248  16.982  0.5749  0.3380 -0.5646
17243TIP3    H173144   0.568   2.233  17.074  3.2247  2.8114  0.5948
17243TIP3    H273145   0.517   2.206  16.934 -1.3733 -0.3043  2.6199
17244TIP3   OH273146   6.159   5.392  13.361  0.0040 -0.4036 -0.5000
17244TIP3    H173147   6.192   5.450  13.293  3.1525  1.4376  2.2871
17244TIP3    H273148   6.089   5.442  13.403 -0.5944 -0.7115 -1.1179
17245TIP3   OH273149   2.604   2.046  16.655 -0.6672  0.2556  0.1044
17245TIP3    H173150   2.598   1.971  16.714 -1.3878  0.1743 -0.0638
17245TIP3    H273151   2.514   2.079  16.649 -0.2795  1.4198  0.5431
17246TIP3   OH273152   6.376   6.372  12.564  0.5630  0.2284 -0.2624
17246TIP3    H173153   6.368   6.461  12.530 -1.2386 -0.3185 -1.3563
17246TIP3    H273154   6.395   6.385  12.658  2.6980  1.7255 -0.8188
17247TIP3   OH273155   5.718   0.831  13.817 -0.0066 -0.1604 -0.3141
17247TIP3    H173156   5.791   0.881  13.781  0.1975 -0.3668 -0.1922
17247TIP3    H273157   5.751   0.741  13.822 -0.2239 -0.2310 -0.1354
17248TIP3   OH273158   4.343   6.220  12.549  0.0459 -0.2125 -0.0774
17248TIP3    H173159   4.361   6.216  12.643 -1.4161 -2.2477  0.2015
17248TIP3    H273160   4.247   6.220  12.544  0.0956 -0.7332 -1.5513
17249TIP3   OH273161   1.298   5.622  12.170 -0.3283 -0.2041 -0.3354
17249TIP3    H173162   1.234   5.618  12.241  0.0791 -0.7317  0.0143
17249TIP3    H273163   1.255   5.673  12.101 -0.7336  0.2925  0.2818
17250TIP3   OH273164   4.533   0.250   4.303 -0.5080 -0.0713 -0.3208
17250TIP3    H173165   4.532   0.308   4.227  1.2625 -1.0966 -1.1883
17250TIP3    H273166   4.589   0.295   4.366  1.5150 -1.0981 -1.2910
17251TIP3   OH273167   2.486   3.912   4.083  0.1761 -0.1358 -0.4999
17251TIP3    H173168   2.435   3.993   4.078  0.7082  0.1137 -2.2401
17251TIP3    H273169   2.575   3.937   4.060  0.3103 -1.2419 -1.2811
17252TIP3   OH273170   4.249   1.523  14.930 -0.3826  0.1642 -0.5731
17252TIP3    H173171   4.158   1.496  14.916 -0.4987 -0.2057  0.7601
17252TIP3    H273172   4.293   1.502  14.848 -1.4401  0.1072 -1.1478
17253TIP3   OH273173   1.194   5.791   6.082  0.8800 -0.1705  0.4049
17253TIP3    H173174   1.253   5.793   6.007  1.6043  1.2628  0.9725
17253TIP3    H273175   1.209   5.875   6.126 -2.1614  0.6405  0.1236
17254TIP3   OH273176   1.532   2.284   0.359 -0.2024 -0.0396  0.2353
17254TIP3    H173177   1.485   2.202   0.344  0.3563 -0.3318  0.0161
17254TIP3    H273178   1.497   2.318   0.441 -0.0158 -0.8117  0.6508
17255TIP3   OH273179   6.000   6.437  14.066 -0.5894 -0.5294  0.5369
17255TIP3    H173180   6.064   6.449  13.996 -0.7380  0.9348  0.6229
17255TIP3    H273181   5.922   6.404  14.022 -0.2938 -0.7896  0.2051
17256TIP3   OH273182   6.431   4.305  14.359  0.0103  0.4667 -0.0284
17256TIP3    H173183   6.386   4.226  14.388  0.1164  1.3410  2.7560
17256TIP3    H273184   6.522   4.277  14.345 -0.1932 -0.1203 -0.2188
17257TIP3   OH273185   6.070   4.929  15.546 -0.3220 -0.1451  0.0304
17257TIP3    H173186   6.131   4.987  15.593 -0.6915  0.6905 -0.4845
17257TIP3    H273187   6.119   4.848  15.533  1.3324  1.0374 -1.7702
17258TIP3   OH273188   6.143   2.364   5.020 -0.6936 -0.1420  0.2119
17258TIP3    H173189   6.186   2.447   4.999 -0.2697 -0.7777 -1.5465
17258TIP3    H273190   6.180   2.339   5.105 -0.2205  1.0448  0.3824
17259TIP3   OH273191   1.145   0.175   2.294  0.3510 -0.0395 -0.0680
17259TIP3    H173192   1.081   0.139   2.232  0.2634 -1.1163  0.6122
17259TIP3    H273193   1.101   0.170   2.379  0.5691  1.1615  0.1369
17260TIP3   OH273194   2.814   4.383   0.224 -0.0764 -0.1496  0.0159
17260TIP3    H173195   2.816   4.313   0.289 -0.6689  1.4497  1.8636
17260TIP3    H273196   2.905   4.391   0.194  0.0334 -1.5384 -0.0484
17261TIP3   OH273197   4.151   6.256   3.712 -0.2771  0.2145 -0.3138
17261TIP3    H173198   4.088   6.307   3.661 -0.4025 -0.0665 -0.4428
17261TIP3    H273199   4.097   6.203   3.770 -0.3304 -2.0079 -2.2332
17262TIP3   OH273200   2.313   1.523  16.349 -0.1378 -0.4033  0.1157
17262TIP3    H173201   2.381   1.581  16.314 -0.3283  0.8019  1.6685
17262TIP3    H273202   2.276   1.570  16.423 -2.0189 -1.4628 -0.0792
17263TIP3   OH273203   2.322   3.438  11.497  0.4905 -0.1301  0.1352
17263TIP3    H173204   2.356   3.522  11.464  0.9314 -0.4262 -0.1791
17263TIP3    H273205   2.357   3.373  11.436  0.7364 -0.6172  0.7892
17264TIP3   OH273206   4.445   4.185   0.669  0.1715  0.2769 -0.1645
17264TIP3    H173207   4.411   4.221   0.751  1.2975 -0.9382  0.8850
17264TIP3    H273208   4.421   4.093   0.671  0.7752  0.0855 -0.8912
17265TIP3   OH273209   3.579   3.727   0.683 -0.7111 -0.8844  0.4402
17265TIP3    H173210   3.565   3.693   0.595 -1.6003 -2.5069  1.1638
17265TIP3    H273211   3.540   3.814   0.682 -1.1683 -1.0862 -0.6319
17266TIP3   OH273212   0.039   0.633   4.437  0.2386 -0.4663 -0.3521
17266TIP3    H173213   0.077   0.551   4.405  0.0300 -0.3892 -0.8124
17266TIP3    H273214  -0.042   0.606   4.481  0.1484 -0.5035 -0.5406
17267TIP3   OH273215   3.275   3.856  17.057  0.4151  0.3639 -0.1431
17267TIP3    H173216   3.325   3.932  17.030  0.4639 -0.0137 -1.1441
17267TIP3    H273217   3.339   3.800  17.101  1.0830 -0.4501 -2.0576
17268TIP3   OH273218   3.216   5.722   1.216  0.9795  0.0625 -0.6631
17268TIP3    H173219   3.264   5.804   1.230  0.0309  0.4349  0.5543
17268TIP3    H273220   3.177   5.732   1.129  1.8641  0.3733 -1.0434
17269TIP3   OH273221   4.716   3.068  12.052  0.7696  0.6266  0.0593
17269TIP3    H173222   4.760   3.013  12.117  0.8159  0.2536 -0.2912
17269TIP3    H273223   4.637   3.100  12.097  0.0836 -0.7249 -0.1419
17270TIP3   OH273224   6.663   5.859   5.066  0.0330 -0.2098  0.3435
17270TIP3    H173225   6.710   5.939   5.042 -1.3933  0.9441  1.2761
17270TIP3    H273226   6.701   5.792   5.009  0.1261  1.4309 -1.6408
17271TIP3   OH273227   4.502   6.165   3.365  0.3224 -0.1562  0.3422
17271TIP3    H173228   4.582   6.204   3.401  0.2856  0.4145 -0.1763
17271TIP3    H273229   4.522   6.151   3.272 -0.3702  0.5390  0.0766
17272TIP3   OH273230   2.716   3.060   3.902 -0.0029  0.6212  0.2316
17272TIP3    H173231   2.780   3.130   3.890  0.9953 -0.3081 -0.0382
17272TIP3    H273232   2.753   3.004   3.970  1.7261 -2.3013 -2.7821
17273TIP3   OH273233   1.865   0.241   1.803 -0.0094 -0.3916 -0.1005
17273TIP3    H173234   1.808   0.300   1.853 -1.4506 -1.5811 -0.2942
17273TIP3    H273235   1.812   0.213   1.729  0.7066 -1.8267 -0.0929
17274TIP3   OH273236   4.072   0.965   1.620 -0.3784  0.2970 -0.3323
17274TIP3    H173237   4.034   0.921   1.696 -1.8358 -0.2042 -1.3072
17274TIP3    H273238   3.997   1.004   1.575  0.6878  2.4161 -0.4026
17275TIP3   OH273239   1.583   1.632  11.356 -0.5135  0.1265  0.3404
17275TIP3    H173240   1.576   1.707  11.297 -0.3397  1.5032  2.0020
17275TIP3    H273241   1.568   1.668  11.443  1.2032 -1.4777  1.3672
17276TIP3   OH273242   4.365   2.193  11.184  0.2403 -0.1665 -0.5822
17276TIP3    H173243   4.336   2.243  11.108 -0.9430 -0.7252 -0.5110
17276TIP3    H273244   4.376   2.259  11.253 -0.6255  0.0937 -0.6846
17277TIP3   OH273245   5.902   3.925   2.026 -0.3533  0.8034  0.3642
17277TIP3    H173246   5.986   3.949   2.065  0.2718  2.9188 -1.9979
17277TIP3    H273247   5.837   3.974   2.077  0.4156  3.2798 -0.8833
17278TIP3   OH273248   0.518   3.900  15.611 -0.1365 -0.1987 -0.1990
17278TIP3    H173249   0.529   3.891  15.705  2.5917  1.0758 -0.3114
17278TIP3    H273250   0.552   3.818  15.575  0.9301  0.2038 -0.1405
17279TIP3   OH273251   1.727   5.291  11.575  0.1780  0.2733 -0.1772
17279TIP3    H173252   1.648   5.237  11.572  1.1484 -1.3638  1.1883
17279TIP3    H273253   1.735   5.328  11.488 -1.2044 -0.8773 -0.8322
17280TIP3   OH273254   2.027   5.833   4.608  0.2408 -0.1418 -0.1757
17280TIP3    H173255   2.085   5.892   4.656 -0.3226 -0.5777  1.0903
17280TIP3    H273256   2.058   5.745   4.633  0.9044 -0.4099 -1.8229
17281TIP3   OH273257   4.148   0.362  10.904  0.6237 -0.3626  0.1802
17281TIP3    H173258   4.153   0.426  10.833 -0.3181 -0.6860 -0.1939
17281TIP3    H273259   4.236   0.326  10.910  1.3209  1.3469  0.7752
17282TIP3   OH273260   0.189   1.796   0.903 -0.1817 -0.4922  0.5998
17282TIP3    H173261   0.197   1.832   0.991  1.5990 -0.2269  0.3534
17282TIP3    H273262   0.211   1.704   0.913 -0.8258 -0.6613  0.5502
17283TIP3   OH273263   0.676   2.815  14.277  1.0541  0.2935 -0.1688
17283TIP3    H173264   0.660   2.737  14.330  3.0604  0.2486  0.4677
17283TIP3    H273265   0.602   2.872  14.294  0.5229 -0.6871  0.8794
17284TIP3   OH273266   0.778   1.925   3.289 -0.2035 -0.0732  0.1682
17284TIP3    H173267   0.714   1.893   3.352  0.0400 -0.4060  0.2537
17284TIP3    H273268   0.759   2.018   3.279  0.3204  0.1761  1.4020
17285TIP3   OH273269   5.805   1.439   3.193 -0.0920 -0.1849 -0.0102
17285TIP3    H173270   5.784   1.418   3.103 -0.1864 -0.1080 -0.0064
17285TIP3    H273271   5.885   1.491   3.188 -1.6072  2.2944 -0.2819
17286TIP3   OH273272   1.305   2.868  13.774 -0.9028 -0.1700  0.0723
17286TIP3    H173273   1.322   2.797  13.713  1.9076  0.6595 -0.2896
17286TIP3    H273274   1.310   2.827  13.861 -0.2070 -0.5947 -0.1610
17287TIP3   OH273275   0.650   0.088   4.591  0.0886  0.0835  0.4565
17287TIP3    H173276   0.711   0.078   4.518  0.8301  0.5391  0.9943
17287TIP3    H273277   0.600   0.006   4.593  0.8589 -0.3969  0.1614
17288TIP3   OH273278   5.260   5.650  11.274  0.1993  0.3432 -0.2036
17288TIP3    H173279   5.283   5.733  11.316 -0.2796  1.1309 -1.4485
17288TIP3    H273280   5.170   5.662  11.244  0.1004 -0.6566 -0.3418
17289TIP3   OH273281   4.383   2.305  12.517 -0.2025  0.0483 -0.1694
17289TIP3    H173282   4.404   2.279  12.428  1.2241 -1.9465  0.6813
17289TIP3    H273283   4.287   2.310  12.519 -0.2788 -0.5175 -1.6239
17290TIP3   OH273284   0.597   5.569  11.136  0.3138 -0.4438 -0.0701
17290TIP3    H173285   0.680   5.603  11.169 -0.2198  0.8677 -0.0332
17290TIP3    H273286   0.565   5.637  11.076 -1.8992  0.2603  1.7535
17291TIP3   OH273287   1.269   5.971  11.866  0.2584  0.9111 -0.3778
17291TIP3    H173288   1.359   5.941  11.856  0.1257  0.6451 -0.8081
17291TIP3    H273289   1.277   6.064  11.887  0.6505  0.7553  0.2069
17292TIP3   OH273290   3.067   1.606   5.388  0.5570  0.0325  0.2699
17292TIP3    H173291   3.057   1.620   5.294  0.1172 -0.6440  0.2104
17292TIP3    H273292   3.137   1.542   5.396  0.4938 -0.0221  0.3978
17293TIP3   OH273293   1.127   3.221   5.373 -0.4237  0.6231 -0.6358
17293TIP3    H173294   1.172   3.224   5.288 -0.6301 -2.0567 -0.9337
17293TIP3    H273295   1.037   3.197   5.351 -0.6621  0.6286  0.2996
17294TIP3   OH273296   1.473   4.550   3.874  1.0952 -0.1139  0.6812
17294TIP3    H173297   1.441   4.594   3.953  2.6089  0.2559  1.1192
17294TIP3    H273298   1.394   4.514   3.834 -0.3127  3.1868  0.1608
17295TIP3   OH273299   2.958   0.326   4.877  0.0473  0.3117  0.5145
17295TIP3    H173300   2.973   0.282   4.961 -0.9593  0.6473  0.8769
17295TIP3    H273301   2.944   0.417   4.900  0.3153  0.5075 -0.0793
17296TIP3   OH273302   6.769   2.759  13.831  0.2395 -0.0628 -0.3462
17296TIP3    H173303   6.841   2.770  13.893 -0.7654  2.9489  0.4775
17296TIP3    H273304   6.736   2.848  13.817 -2.2525 -1.1335 -1.9643
17297TIP3   OH273305   1.864   2.445   6.240  0.3430  0.2500  0.6754
17297TIP3    H173306   1.775   2.414   6.258  0.2005  0.0134 -0.3570
17297TIP3    H273307   1.856   2.540   6.233  0.1867  0.2388  0.7099
17298TIP3   OH273308   4.144   4.626   2.066  0.7115 -0.3601 -0.1445
17298TIP3    H173309   4.176   4.643   1.977  0.2061 -0.0591 -0.2752
17298TIP3    H273310   4.056   4.590   2.053  0.8422 -0.8107  0.2161
17299TIP3   OH273311   0.238   4.851  14.238  0.6398  0.5346 -0.7834
17299TIP3    H173312   0.307   4.803  14.192  1.6449  2.1362 -1.0245
17299TIP3    H273313   0.160   4.838  14.183  1.2313  0.3722 -1.6037
17300TIP3   OH273314   1.131   1.037  15.696  0.0377 -0.2587  0.1132
17300TIP3    H173315   1.223   1.060  15.683  0.0041  0.9220  1.6392
17300TIP3    H273316   1.084   1.120  15.687 -0.9700 -0.9518 -1.2447
17301TIP3   OH273317   6.441   1.465  13.354 -0.0763  0.8714  0.1344
17301TIP3    H173318   6.497   1.526  13.401  0.1594  2.3170 -1.8903
17301TIP3    H273319   6.357   1.512  13.346 -0.5185  0.1101  0.2322
17302TIP3   OH273320   2.928   2.092   1.069 -0.8978  0.1419 -0.0553
17302TIP3    H173321   2.999   2.061   1.125  1.9615  0.2806 -3.3073
17302TIP3    H273322   2.865   2.020   1.070 -0.4837 -0.2929  2.3779
17303TIP3   OH273323   6.104   1.237   5.621 -0.0750  0.4940  0.0589
17303TIP3    H173324   6.090   1.331   5.632  0.3154  0.8315 -1.9725
17303TIP3    H273325   6.143   1.228   5.534  1.0298 -1.4495  0.6755
17304TIP3   OH273326   3.206   0.424   3.454  0.0593 -0.2212 -0.1350
17304TIP3    H173327   3.204   0.434   3.359  1.1215  1.9164  0.0069
17304TIP3    H273328   3.115   0.433   3.481 -0.5166 -2.5821 -1.0173
17305TIP3   OH273329   5.290   4.790   6.065  0.0907  0.3167  0.3561
17305TIP3    H173330   5.314   4.729   6.134  0.3000 -0.0541 -0.0346
17305TIP3    H273331   5.330   4.752   5.986 -1.8161 -0.3474 -0.3378
17306TIP3   OH273332   0.784   5.445  12.668  0.1757  0.1905  0.3590
17306TIP3    H173333   0.734   5.389  12.727  0.3101  0.1844  0.4658
17306TIP3    H273334   0.743   5.531  12.675  0.0796  0.1474  0.3263
17307TIP3   OH273335   4.196   2.721  12.716 -0.5568 -0.1422  0.2745
17307TIP3    H173336   4.219   2.805  12.755  1.2411 -1.1781  1.5871
17307TIP3    H273337   4.257   2.659  12.755 -1.8154 -2.0734 -0.6737
17308TIP3   OH273338   3.407   4.641  13.119  0.5410 -0.0043 -0.4433
17308TIP3    H173339   3.436   4.641  13.028 -1.4792  1.2967 -1.1754
17308TIP3    H273340   3.359   4.723  13.128  2.2741  0.8521  2.3841
17309TIP3   OH273341   6.630   3.552  12.873 -0.2250  0.0883 -0.4331
17309TIP3    H173342   6.715   3.526  12.910 -0.6430 -0.4202  0.1928
17309TIP3    H273343   6.653   3.610  12.800  0.7038 -0.9563 -1.0124
17310TIP3   OH273344   3.818   0.821   2.588  0.4731  0.2157  0.2256
17310TIP3    H173345   3.863   0.832   2.504 -0.5596  0.7315 -0.2921
17310TIP3    H273346   3.882   0.780   2.645  0.8101 -1.3340 -1.1849
17311TIP3   OH273347   3.997   6.617   2.105 -0.0239 -0.1306 -0.5703
17311TIP3    H173348   4.079   6.569   2.116  0.3913  0.3960 -1.2827
17311TIP3    H273349   3.934   6.570   2.159  0.8997 -0.1520  0.5231
17312TIP3   OH273350   2.854   0.584   5.034 -0.0007 -0.5412 -0.6923
17312TIP3    H173351   2.843   0.644   4.961  0.1975 -1.9361 -1.9087
17312TIP3    H273352   2.933   0.614   5.078 -0.4532  0.6738 -0.6652
17313TIP3   OH273353   0.670   3.309  13.764 -0.1380 -0.1246 -0.0350
17313TIP3    H173354   0.714   3.319  13.679  0.6938  0.7589  0.4749
17313TIP3    H273355   0.709   3.230  13.802  0.8391  0.4887  0.2855
17314TIP3   OH273356   0.965   2.290  10.651  0.2210  0.0346 -0.3454
17314TIP3    H173357   1.033   2.226  10.673  2.5478  1.6728 -2.1605
17314TIP3    H273358   0.945   2.273  10.559 -1.6158 -0.1529  0.0564
17315TIP3   OH273359   2.453   2.052   3.531 -0.6795  0.1638 -0.1724
17315TIP3    H173360   2.438   1.967   3.572  1.3456  0.1259  0.6199
17315TIP3    H273361   2.411   2.115   3.590  0.2791 -0.0829  0.8202
17316TIP3   OH273362   5.868   6.783  14.313  0.0935  0.7984 -0.3095
17316TIP3    H173363   5.834   6.851  14.372 -1.1801 -0.3691  0.3627
17316TIP3    H273364   5.840   6.811  14.226 -0.3404  1.1871 -0.0519
17317TIP3   OH273365   2.802   4.486   6.303 -0.1946 -0.3634 -0.1586
17317TIP3    H173366   2.720   4.452   6.339  0.7850 -1.1231  1.4461
17317TIP3    H273367   2.775   4.564   6.253 -1.9254 -0.8219 -0.0151
17318TIP3   OH273368   1.529   5.505  14.110  0.1590  0.6973  0.2061
17318TIP3    H173369   1.576   5.569  14.056 -1.3194  1.4404 -0.2370
17318TIP3    H273370   1.455   5.553  14.146 -0.8285 -0.6913  0.1069
17319TIP3   OH273371   1.143   3.582  13.882  0.1698  0.1822  0.1486
17319TIP3    H173372   1.214   3.574  13.819 -0.8803  0.0412 -1.0546
17319TIP3    H273373   1.138   3.496  13.924  0.0710 -0.1147 -0.4663
17320TIP3   OH273374   1.607   2.311  16.825 -0.0190  0.5501 -0.2365
17320TIP3    H173375   1.645   2.257  16.894 -2.6824 -1.7865 -0.4139
17320TIP3    H273376   1.655   2.285  16.746  2.0564  2.1820  0.4066
17321TIP3   OH273377   4.589   0.160  15.431  0.2162 -0.4815  0.9935
17321TIP3    H173378   4.625   0.181  15.517  0.9339  0.5689  0.4540
17321TIP3    H273379   4.501   0.126  15.449  0.6837 -1.1065  2.1867
17322TIP3   OH273380   2.710   0.894  11.650 -0.6663  0.6296 -0.1194
17322TIP3    H173381   2.760   0.956  11.702 -0.7969  1.8787 -1.4344
17322TIP3    H273382   2.745   0.808  11.676 -0.7631  1.1705  2.0160
17323TIP3   OH273383   2.617   0.910   1.606  0.3786  0.3200  0.4839
17323TIP3    H173384   2.580   0.957   1.681  0.6960 -3.4875  3.3270
17323TIP3    H273385   2.553   0.841   1.588  1.1805  0.0756 -1.6703
17324TIP3   OH273386   2.853   2.770   0.489 -0.0919  0.3664 -0.1184
17324TIP3    H173387   2.920   2.839   0.492 -1.4173  1.6943  0.6518
17324TIP3    H273388   2.811   2.774   0.575 -0.9765 -0.5992 -0.4851
17325TIP3   OH273389   5.311   1.791   4.610 -0.3953 -0.0701 -0.0022
17325TIP3    H173390   5.257   1.870   4.606 -1.2896 -0.6828 -0.6253
17325TIP3    H273391   5.337   1.775   4.520 -0.4091 -0.6079  0.0844
17326TIP3   OH273392   5.256   4.089  11.398 -0.1081  0.2521  0.8634
17326TIP3    H173393   5.276   4.061  11.309  0.9838  0.8812  0.8907
17326TIP3    H273394   5.339   4.076  11.446 -0.6067  0.1506  1.7239
17327TIP3   OH273395   0.289   4.189   4.661 -0.5198 -0.1828 -0.3337
17327TIP3    H173396   0.251   4.246   4.594  0.2482 -0.4711 -1.0346
17327TIP3    H273397   0.267   4.232   4.744 -1.1200  0.4050 -0.7796
17328TIP3   OH273398   4.537   2.489   1.472  0.3479 -0.0278 -0.7139
17328TIP3    H173399   4.483   2.437   1.413 -0.3865 -0.1678  0.0699
17328TIP3    H273400   4.568   2.562   1.418 -1.0032  0.3048 -1.0775
17329TIP3   OH273401   1.493   0.688   2.990  0.2922  0.2531  0.1409
17329TIP3    H173402   1.417   0.645   3.030 -0.7305  1.3698 -0.5488
17329TIP3    H273403   1.509   0.638   2.909 -0.1011  0.3951 -0.0256
17330TIP3   OH273404   3.007   5.457   3.278  0.2887 -0.2871 -0.0113
17330TIP3    H173405   2.993   5.472   3.184 -1.1711 -2.1801 -0.1441
17330TIP3    H273406   2.921   5.431   3.311  1.0015 -0.6175  1.6666
17331TIP3   OH273407   5.253   4.548   5.644 -0.6260 -0.4193  0.3770
17331TIP3    H173408   5.191   4.496   5.593 -0.4426 -0.4803  0.2147
17331TIP3    H273409   5.311   4.587   5.579  0.7300 -1.9220  0.5965
17332TIP3   OH273410   1.451   0.813   2.141 -0.1144 -0.1889 -0.5207
17332TIP3    H173411   1.535   0.858   2.131 -0.0727 -0.5883 -2.2202
17332TIP3    H273412   1.394   0.878   2.183  1.2099 -0.1721  1.3717
17333TIP3   OH273413   4.584   0.932  11.794  0.0922 -0.4118  0.6427
17333TIP3    H173414   4.535   0.997  11.845 -1.9694 -2.3015  1.1842
17333TIP3    H273415   4.612   0.867  11.859  1.5256 -0.4743  0.0085
17334TIP3   OH273416   2.618   1.990   5.755 -0.1086  0.0975 -0.0324
17334TIP3    H173417   2.561   2.055   5.714 -0.9478 -0.8134 -0.3351
17334TIP3    H273418   2.639   2.027   5.841  0.9830  1.6346 -0.9213
17335TIP3   OH273419   5.268   3.141  11.204 -0.0378 -0.4543 -0.0310
17335TIP3    H173420   5.188   3.171  11.161  0.2252 -1.1084 -1.0127
17335TIP3    H273421   5.333   3.208  11.183 -0.1019 -0.3759  0.0185
17336TIP3   OH273422   2.449   3.362   1.540 -0.2462  0.0533 -0.8203
17336TIP3    H173423   2.488   3.393   1.458 -0.5472 -0.0190 -0.9880
17336TIP3    H273424   2.399   3.285   1.516 -0.3436  0.0371 -0.5684
17337TIP3   OH273425   4.438   3.187  15.743 -0.4452  0.4159 -0.1677
17337TIP3    H173426   4.356   3.170  15.788 -0.0138  1.7830  1.2196
17337TIP3    H273427   4.499   3.122  15.777 -1.2391 -1.5864 -2.2961
17338TIP3   OH273428   3.349   5.159  15.948 -0.0454  0.0619  0.3055
17338TIP3    H173429   3.363   5.252  15.929 -0.7306 -0.1074 -1.1553
17338TIP3    H273430   3.258   5.143  15.925  0.2406 -1.1065 -0.0869
17339TIP3   OH273431   1.262   0.944   4.343  0.5923  0.6211 -0.2045
17339TIP3    H173432   1.180   0.990   4.361 -0.9225 -2.4496  1.4302
17339TIP3    H273433   1.276   0.957   4.249 -1.7281  1.2993 -0.5091
17340TIP3   OH273434   5.753   2.074   5.437 -0.3287 -0.0730 -0.0001
17340TIP3    H173435   5.779   2.010   5.503  0.1816  0.4918  0.3474
17340TIP3    H273436   5.830   2.128   5.423 -0.6368  0.2334 -0.5764
17341TIP3   OH273437   0.070   0.367   6.119 -0.5958  0.3995  0.2434
17341TIP3    H173438   0.162   0.377   6.144 -0.5890  0.8375  0.0549
17341TIP3    H273439   0.024   0.352   6.201 -0.3460  0.0951  0.3312
17342TIP3   OH273440   0.970   6.337  13.055 -0.8057  0.5011  0.0083
17342TIP3    H173441   0.956   6.430  13.074 -1.4451  0.3824  0.1185
17342TIP3    H273442   1.029   6.307  13.125  0.2161  1.0515 -0.5920
17343TIP3   OH273443   0.506   3.355   2.164 -0.2949 -0.0995  0.3899
17343TIP3    H173444   0.423   3.403   2.163 -0.5829 -0.5968 -0.2362
17343TIP3    H273445   0.539   3.363   2.074 -0.3466 -1.0646  0.2822
17344TIP3   OH273446   6.071   3.608  12.594 -0.2919 -0.2493  0.2039
17344TIP3    H173447   6.052   3.518  12.566 -2.1307 -0.2542  1.3403
17344TIP3    H273448   5.999   3.660  12.560 -0.8619  0.2749  2.0910
17345TIP3   OH273449   0.976   1.137  13.046  0.1680  0.1093  0.1043
17345TIP3    H173450   0.929   1.171  12.970 -0.1087 -1.9458 -0.7010
17345TIP3    H273451   0.952   1.195  13.118 -1.0170  1.0061 -0.9878
17346TIP3   OH273452   1.919   3.206  14.305  0.1583  0.7368  0.1521
17346TIP3    H173453   1.842   3.253  14.337  0.6269  1.1705  0.6581
17346TIP3    H273454   1.962   3.174  14.384 -0.1933 -0.6265 -0.1827
17347TIP3   OH273455   5.514   5.711   3.213  0.1807  0.4949  0.1825
17347TIP3    H173456   5.548   5.656   3.284  0.1063 -1.0638 -0.9420
17347TIP3    H273457   5.472   5.785   3.257 -1.3861 -1.2898  1.8444
17348TIP3   OH273458   6.206   0.167  12.112 -0.0075 -0.1694  0.1427
17348TIP3    H173459   6.117   0.165  12.148  0.4610  1.3925  1.4873
17348TIP3    H273460   6.263   0.171  12.189  1.0529  2.7490 -0.6722
17349TIP3   OH273461   6.151   2.652   1.823  0.0063  0.4315 -0.3320
17349TIP3    H173462   6.185   2.624   1.738  4.0128  0.0078  1.1965
17349TIP3    H273463   6.187   2.740   1.836 -0.3600  0.4171  0.9879
17350TIP3   OH273464   1.363   6.425  14.143 -0.4785 -0.5544  0.0741
17350TIP3    H173465   1.450   6.392  14.120  0.8667  1.9278  1.2151
17350TIP3    H273466   1.337   6.478  14.067  0.6656  1.5843  1.0843
17351TIP3   OH273467   1.017   1.869   0.191  0.0479 -0.6011 -0.1344
17351TIP3    H173468   0.937   1.823   0.168 -0.2145 -0.0639 -0.3025
17351TIP3    H273469   1.084   1.830   0.135  0.4565 -2.8361  1.7414
17352TIP3   OH273470   3.615   1.904   3.411  0.4056  0.6515 -0.4918
17352TIP3    H173471   3.521   1.898   3.426  0.5177 -1.6262 -0.3565
17352TIP3    H273472   3.625   1.896   3.316  0.4359  1.8672 -0.6059
17353TIP3   OH273473   3.741   4.619  13.976  0.4548  0.1440 -0.1104
17353TIP3    H173474   3.689   4.577  14.045  0.8593  1.8766  1.3145
17353TIP3    H273475   3.829   4.584  13.988  0.1722 -0.9284 -0.9583
17354TIP3   OH273476   2.302   0.735  10.514  0.3921  0.2222  0.1244
17354TIP3    H173477   2.261   0.711  10.431  0.4531  0.0088  0.1539
17354TIP3    H273478   2.351   0.657  10.539  1.8706  0.9053 -0.5445
17355TIP3   OH273479   2.991   2.230   1.480  0.2360  0.0566 -0.3411
17355TIP3    H173480   3.054   2.231   1.408  0.7260  0.8560  0.0861
17355TIP3    H273481   3.045   2.220   1.558 -0.2960 -0.8172 -0.0836
17356TIP3   OH273482   0.920   5.069  17.067 -0.3538 -0.5766  0.0648
17356TIP3    H173483   0.827   5.074  17.090 -0.9776 -2.6478 -1.6548
17356TIP3    H273484   0.951   4.988  17.107  0.8327  0.2470  0.8861
17357TIP3   OH273485   4.338   0.999  16.226 -0.4986  0.6972 -0.3192
17357TIP3    H173486   4.340   1.088  16.262 -1.4912  1.3252 -1.7029
17357TIP3    H273487   4.301   0.946  16.296  1.2394  1.1219  0.9692
17358TIP3   OH273488   4.775   5.799  13.472 -0.3182  0.3010  0.3836
17358TIP3    H173489   4.745   5.712  13.499 -1.1574  0.3724 -0.2947
17358TIP3    H273490   4.831   5.828  13.544  0.7016 -1.1676  0.2084
17359TIP3   OH273491   2.192   0.450   0.604 -0.3301 -0.6441  0.6103
17359TIP3    H173492   2.231   0.366   0.627  0.8669 -0.5120 -0.8133
17359TIP3    H273493   2.135   0.470   0.678 -1.0755 -2.9424  0.7322
17360TIP3   OH273494   6.134   6.539   3.028 -0.2417 -0.1461 -0.2780
17360TIP3    H173495   6.157   6.447   3.037 -0.6318 -0.2313 -0.1138
17360TIP3    H273496   6.188   6.571   2.957 -0.8032 -0.7499 -0.9896
17361TIP3   OH273497   0.026   5.267  13.373  0.0830 -0.0926 -0.2724
17361TIP3    H173498  -0.050   5.306  13.417  0.4103  0.7435 -0.4276
17361TIP3    H273499  -0.007   5.242  13.287  0.2156  1.1983 -0.7149
17362TIP3   OH273500   2.094   1.026  10.392  0.3991  0.5725  0.2281
17362TIP3    H173501   2.145   0.999  10.469 -0.0582  0.2824  0.4348
17362TIP3    H273502   2.104   0.953  10.331 -0.0592  0.3501  0.4131
17363TIP3   OH273503   2.518   4.113  15.269 -0.7758  0.1506  0.2347
17363TIP3    H173504   2.446   4.176  15.267 -2.7009 -1.8595  1.1494
17363TIP3    H273505   2.556   4.123  15.356 -0.3116  0.8239 -0.0410
17364TIP3   OH273506   3.603   0.389  13.626  0.5099 -0.6432  0.5687
17364TIP3    H173507   3.585   0.304  13.586 -2.8924  1.1386 -2.2839
17364TIP3    H273508   3.664   0.432  13.567  1.7491 -0.8150  1.6796
17365TIP3   OH273509   2.058   1.604   5.339  0.1722 -0.3429  0.3624
17365TIP3    H173510   2.104   1.666   5.282 -1.7777  0.7187 -0.1614
17365TIP3    H273511   2.112   1.600   5.418  1.0597  0.9927 -0.1330
17366TIP3   OH273512   4.894   6.713  16.428 -0.2094 -0.2357 -0.8026
17366TIP3    H173513   4.886   6.791  16.373 -0.3310  0.3198 -0.0251
17366TIP3    H273514   4.831   6.727  16.499  0.3861 -0.6255 -0.1797
17367TIP3   OH273515   2.970   4.078   0.257  0.5546  0.2994  0.4022
17367TIP3    H173516   2.935   4.075   0.346 -0.5606  1.1701  0.0240
17367TIP3    H273517   2.894   4.093   0.201  1.5196  2.7631 -0.4237
17368TIP3   OH273518   5.497   3.629   4.561 -0.4184  0.5313  0.9827
17368TIP3    H173519   5.532   3.544   4.535  0.9410  1.0660  1.0074
17368TIP3    H273520   5.423   3.609   4.618  1.4497 -0.6694  3.1180
17369TIP3   OH273521   3.679   4.462   3.401  0.0271 -0.1512  0.3507
17369TIP3    H173522   3.653   4.370   3.397 -0.1137 -0.1011  0.1542
17369TIP3    H273523   3.726   4.477   3.319  0.5753 -0.2109  0.6481
17370TIP3   OH273524   2.202   5.551   6.137  0.1634  0.3489 -0.3470
17370TIP3    H173525   2.241   5.617   6.195  0.5764  0.4317 -0.7141
17370TIP3    H273526   2.190   5.475   6.193 -0.6926  0.8622  0.1817
17371TIP3   OH273527   0.847   1.203   6.443 -0.4699 -0.9642 -0.2053
17371TIP3    H173528   0.800   1.120   6.456 -2.1519 -0.1759 -1.0213
17371TIP3    H273529   0.876   1.200   6.352 -0.9780 -0.4375 -0.3862
17372TIP3   OH273530   1.531   1.138   4.244 -0.3472 -0.1922 -0.0961
17372TIP3    H173531   1.597   1.095   4.297  0.9717  2.3314  0.4852
17372TIP3    H273532   1.459   1.156   4.304 -0.0548  0.1665  0.1483
17373TIP3   OH273533   0.944   1.428   3.863  0.0684 -0.1134 -0.5593
17373TIP3    H173534   1.039   1.428   3.860  0.0761 -1.7278 -2.7287
17373TIP3    H273535   0.917   1.386   3.782 -2.4940 -0.5795  0.4216
17374TIP3   OH273536   3.880   0.274   1.207 -0.0535 -0.2020 -0.1862
17374TIP3    H173537   3.788   0.265   1.186  0.1456 -0.5958 -0.9223
17374TIP3    H273538   3.904   0.361   1.175 -0.3780  0.2789  0.8385
17375TIP3   OH273539   0.904   6.786  12.000 -0.2542 -0.1442 -0.3811
17375TIP3    H173540   0.963   6.790  11.925  0.8718 -1.4924  0.3926
17375TIP3    H273541   0.926   6.863  12.052  1.1151 -0.8145  0.0765
17376TIP3   OH273542   4.539   5.503   2.037  0.6700  0.2290 -0.3829
17376TIP3    H173543   4.613   5.489   2.097 -1.5603 -2.2125  2.0794
17376TIP3    H273544   4.475   5.552   2.088 -0.3537  0.2641 -1.6472
17377TIP3   OH273545   6.583   6.369   2.213  0.1477  0.2468 -0.5419
17377TIP3    H173546   6.677   6.387   2.210  0.4889 -1.1621  0.7400
17377TIP3    H273547   6.576   6.273   2.209 -1.1816  0.2801  0.2843
17378TIP3   OH273548   2.326   5.244   4.825 -0.0161  0.1766  0.4562
17378TIP3    H173549   2.331   5.196   4.908  0.3152  1.1178  0.9913
17378TIP3    H273550   2.333   5.176   4.758 -2.3617 -0.8618  1.1458
17379TIP3   OH273551   5.046   1.024   0.641 -0.9100 -0.1605 -0.1406
17379TIP3    H173552   5.011   1.114   0.640  1.5510  0.8679 -0.0621
17379TIP3    H273553   5.075   1.011   0.731 -0.2516 -0.6320 -0.4160
17380TIP3   OH273554   0.501   6.647  13.434 -0.0834  0.1002  0.8929
17380TIP3    H173555   0.463   6.565  13.403  0.5862  0.6110 -1.4054
17380TIP3    H273556   0.591   6.624  13.457  0.7824  0.5102 -1.7515
17381TIP3   OH273557   1.815   2.259   0.392 -0.6159 -0.6280  0.3336
17381TIP3    H173558   1.834   2.289   0.481  0.0481 -1.9216  0.6384
17381TIP3    H273559   1.720   2.250   0.390 -0.9644  2.1868 -0.0172
17382TIP3   OH273560   6.469   2.333  15.503  0.1095  0.2105  0.1989
17382TIP3    H173561   6.459   2.402  15.438 -0.1729  0.3112  0.3469
17382TIP3    H273562   6.516   2.374  15.575 -1.0456  0.5739  0.7682
17383TIP3   OH273563   2.893   1.814   5.371 -0.4677 -0.1552 -0.3093
17383TIP3    H173564   2.876   1.840   5.461 -0.3242  0.3399 -0.4197
17383TIP3    H273565   2.960   1.746   5.378 -0.7845 -0.4405 -0.0173
17384TIP3   OH273566   4.419   5.684  12.898  0.1537 -0.4830  0.2983
17384TIP3    H173567   4.460   5.601  12.874  0.7703 -0.7883  2.2225
17384TIP3    H273568   4.404   5.728  12.815 -0.9919 -2.8578 -0.8536
17385TIP3   OH273569   5.316   5.462   2.244  0.2920  0.6068  0.0119
17385TIP3    H173570   5.322   5.542   2.296 -0.7468  0.1491  0.8710
17385TIP3    H273571   5.333   5.392   2.306  1.5441  0.1484 -0.8073
17386TIP3   OH273572   4.276   4.855   2.960 -0.0078 -0.1088 -0.5297
17386TIP3    H173573   4.305   4.883   2.873 -0.8175 -1.5312 -1.2868
17386TIP3    H273574   4.295   4.761   2.963 -1.4402 -0.4002  0.2277
17387TIP3   OH273575   0.223   3.360  15.971 -0.6971  0.0280  0.1930
17387TIP3    H173576   0.153   3.349  15.907 -0.7492  0.4738  0.1719
17387TIP3    H273577   0.178   3.388  16.051 -0.5727  0.0124  0.2684
17388TIP3   OH273578   0.442   2.070   2.900  0.2463  0.3263 -0.4814
17388TIP3    H173579   0.352   2.057   2.930  1.2090 -1.9604  1.8519
17388TIP3    H273580   0.475   1.982   2.884  2.6033  0.9166  0.6426
17389TIP3   OH273581   2.682   2.890  12.000 -0.3804  0.3780  0.2788
17389TIP3    H173582   2.736   2.865  11.925 -0.3029 -1.7223  0.9806
17389TIP3    H273583   2.702   2.983  12.013  1.5906  0.1517 -0.6776
17390TIP3   OH273584   2.334   3.436  11.959 -0.0258 -0.1724 -0.1101
17390TIP3    H173585   2.259   3.490  11.981  0.1743 -0.1194  0.4625
17390TIP3    H273586   2.318   3.408  11.869 -0.1336  0.8316 -0.4174
17391TIP3   OH273587   3.148   4.935  12.418  0.2364 -0.1820  0.3641
17391TIP3    H173588   3.167   4.843  12.435  1.2143  0.4512  3.2339
17391TIP3    H273589   3.233   4.979  12.420 -0.2681  0.8791 -0.3977
17392TIP3   OH273590   3.205   3.409  15.499 -0.3731  0.1641 -0.6163
17392TIP3    H173591   3.169   3.483  15.548  0.5064  1.7064 -2.1653
17392TIP3    H273592   3.169   3.418  15.411  0.3225 -0.8421 -1.0288
17393TIP3   OH273593   6.195   2.857  14.180 -0.3816  0.9060  0.2111
17393TIP3    H173594   6.197   2.800  14.257 -0.0063  0.9283  0.2212
17393TIP3    H273595   6.142   2.932  14.207 -2.0117 -0.0468 -0.2367
17394TIP3   OH273596   5.681   4.290   2.201  0.0060 -0.1007  0.4637
17394TIP3    H173597   5.768   4.287   2.240 -0.7134 -0.2182  2.1487
17394TIP3    H273598   5.693   4.338   2.119  1.6123  0.0253  0.7396
17395TIP3   OH273599   2.352   5.028   0.609  0.1700 -0.3712 -0.2411
17395TIP3    H173600   2.319   5.059   0.525  2.0334  0.8816 -0.5828
17395TIP3    H273601   2.291   5.062   0.674 -0.4306 -0.0277 -0.9708
17396TIP3   OH273602   2.573   0.379   0.555 -0.1491  0.8016  0.4245
17396TIP3    H173603   2.648   0.326   0.529 -1.8089 -0.3751 -2.4297
17396TIP3    H273604   2.497   0.321   0.542 -1.6746  2.3595  1.8939
17397TIP3   OH273605   2.988   2.192  16.338  0.6324 -0.5268 -0.1171
17397TIP3    H173606   3.021   2.248  16.268 -1.2659 -1.3330 -1.7484
17397TIP3    H273607   2.974   2.252  16.412 -0.5973  1.0316 -1.5527
17398TIP3   OH273608   1.625   2.633   3.093 -0.3863  0.5299  0.0721
17398TIP3    H173609   1.577   2.568   3.144 -0.6977  0.3437 -0.4437
17398TIP3    H273610   1.641   2.705   3.154 -1.1751  0.5177  0.3106
17399TIP3   OH273611   5.789   3.661  10.569 -0.0846  0.1651 -0.5023
17399TIP3    H173612   5.799   3.586  10.510 -0.5109  1.8795 -2.9051
17399TIP3    H273613   5.871   3.709  10.563 -0.2311  0.5065  0.0883
17400TIP3   OH273614   4.741   4.225   3.565  0.2030 -0.1948 -0.1615
17400TIP3    H173615   4.648   4.229   3.588  0.6886  0.1374  1.9450
17400TIP3    H273616   4.773   4.148   3.612  0.9343 -0.5178 -1.1724
17401TIP3   OH273617   4.527   4.006  15.691  0.0055 -0.4891  0.1666
17401TIP3    H173618   4.503   4.055  15.770  1.0046  0.7971 -0.2892
17401TIP3    H273619   4.573   4.070  15.636 -0.6613 -1.3532 -1.4684
17402TIP3   OH273620   3.123   4.203   3.248 -0.6151  0.3177 -0.1925
17402TIP3    H173621   3.054   4.239   3.191 -0.5903  0.5761 -0.0611
17402TIP3    H273622   3.077   4.169   3.324 -0.6077  0.4094 -0.1462
17403TIP3   OH273623   0.448   6.467  14.369  0.1469  0.1045 -0.3618
17403TIP3    H173624   0.528   6.512  14.339 -0.4378  0.3698 -1.6093
17403TIP3    H273625   0.465   6.447  14.461  1.2317  1.1049 -0.3110
17404TIP3   OH273626   1.400   2.583  13.209  0.4096  0.5867 -0.1919
17404TIP3    H173627   1.447   2.588  13.292 -0.0361  0.4598  0.0676
17404TIP3    H273628   1.316   2.624  13.226  1.3780  3.3556 -1.3719
17405TIP3   OH273629   0.462   5.955  11.355  0.3591  0.1292 -0.3435
17405TIP3    H173630   0.552   5.924  11.366  0.2884  0.3260  0.9631
17405TIP3    H273631   0.433   5.915  11.273  1.6535  0.1139 -0.8170
17406TIP3   OH273632   2.201   5.715   5.874  0.0443 -0.2349  0.1056
17406TIP3    H173633   2.219   5.630   5.834  1.5500  0.1031 -0.0236
17406TIP3    H273634   2.227   5.704   5.965 -1.1136 -0.3104  0.4385
17407TIP3   OH273635   1.953   1.728   1.543 -0.2252 -0.2520 -0.3665
17407TIP3    H173636   1.969   1.794   1.475  0.3349 -0.9971 -0.9817
17407TIP3    H273637   1.868   1.691   1.520 -0.8389  0.6488  0.3372
17408TIP3   OH273638   0.605   1.780   3.069  0.5558  0.2104 -0.1748
17408TIP3    H173639   0.541   1.808   3.135 -0.0526 -0.3860 -0.4992
17408TIP3    H273640   0.690   1.801   3.108  0.1663  2.4445 -0.3680
17409TIP3   OH273641   2.795   0.110   4.697  0.4046 -0.5832  0.1823
17409TIP3    H173642   2.813   0.042   4.632 -0.4019  0.8363 -1.6056
17409TIP3    H273643   2.712   0.084   4.737 -0.0687 -0.5188 -0.7248
17410TIP3   OH273644   1.352   2.401   5.012  0.0379 -0.3067  0.2170
17410TIP3    H173645   1.282   2.458   5.044  1.4018  0.2617  2.4525
17410TIP3    H273646   1.319   2.365   4.930 -1.9293  1.6748  0.0572
17411TIP3   OH273647   6.761   0.417  10.466 -0.1219  0.0994  0.4426
17411TIP3    H173648   6.778   0.395  10.557 -0.0081  1.0618  0.6710
17411TIP3    H273649   6.797   0.344  10.416  0.1682 -0.2522  1.1540
17412TIP3   OH273650   1.479   5.124   6.147  0.1786  0.0382 -0.3794
17412TIP3    H173651   1.407   5.066   6.171  0.4283 -0.5894 -1.1207
17412TIP3    H273652   1.437   5.209   6.132 -0.3864 -0.2837 -0.6428
17413TIP3   OH273653   5.637   3.607  14.406 -0.1164 -0.2803  0.4391
17413TIP3    H173654   5.554   3.592  14.360  0.7593  0.9660 -1.6648
17413TIP3    H273655   5.673   3.519  14.418 -0.0712 -0.6608 -1.9437
17414TIP3   OH273656   1.471   0.457  14.700 -0.1854  0.1939 -0.2240
17414TIP3    H173657   1.400   0.518  14.680 -0.1967  0.7560  1.4061
17414TIP3    H273658   1.427   0.379  14.735 -0.0249  0.4310  0.5171
17415TIP3   OH273659   0.197   0.499   2.937 -0.4369  0.4007 -0.4537
17415TIP3    H173660   0.107   0.481   2.964 -0.8289  1.1414 -1.2079
17415TIP3    H273661   0.229   0.563   3.001 -0.3286 -0.1132  0.0111
17416TIP3   OH273662   2.334   1.274  12.797 -0.2856  0.6530  0.1263
17416TIP3    H173663   2.249   1.248  12.833  0.0743 -1.6509 -0.5638
17416TIP3    H273664   2.387   1.294  12.874 -0.4719 -1.1691  0.7656
17417TIP3   OH273665   1.286   5.439  10.729  0.8327  0.5149  0.0124
17417TIP3    H173666   1.235   5.359  10.743  1.0730 -0.0542 -2.0580
17417TIP3    H273667   1.313   5.466  10.817 -1.6225 -0.0780  1.0241
17418TIP3   OH273668   5.935   1.988   1.796  0.4641 -0.3282 -0.1914
17418TIP3    H173669   6.026   2.014   1.810  0.3583  1.4879 -2.2626
17418TIP3    H273670   5.937   1.930   1.720 -0.0805 -0.4854 -0.0935
17419TIP3   OH273671   5.389   5.891  16.266 -0.2164 -0.7090 -0.2137
17419TIP3    H173672   5.482   5.895  16.244 -0.2819  1.7244 -0.3683
17419TIP3    H273673   5.344   5.930  16.191 -0.8593  2.8890  1.7856
17420TIP3   OH273674   0.453   1.299   4.678 -0.8030  0.1520  0.0901
17420TIP3    H173675   0.398   1.281   4.755 -1.8839  0.6619 -0.5314
17420TIP3    H273676   0.412   1.247   4.608 -0.0951  0.0406 -0.2447
17421TIP3   OH273677   0.325   3.727   0.722  0.2128 -1.0397  0.8625
17421TIP3    H173678   0.310   3.672   0.645  2.4058  0.3888 -0.7183
17421TIP3    H273679   0.273   3.806   0.705  0.8802 -0.6259  0.7016
17422TIP3   OH273680   5.615   6.297  10.476  0.2423  0.0596  0.0986
17422TIP3    H173681   5.683   6.287  10.410 -1.1820  1.1063 -1.6006
17422TIP3    H273682   5.558   6.221  10.464 -0.6495  0.8348 -0.6756
17423TIP3   OH273683   4.045   3.140   5.342 -0.0302 -0.0802  0.4115
17423TIP3    H173684   4.118   3.153   5.283 -1.6102 -0.5686 -1.7683
17423TIP3    H273685   4.084   3.107   5.423  2.0370 -1.2637 -1.0136
17424TIP3   OH273686   5.942   3.230   3.752  0.0607  0.0963  0.2253
17424TIP3    H173687   5.937   3.271   3.839  1.2761  0.6949  0.0366
17424TIP3    H273688   5.902   3.294   3.693 -2.2493 -0.9803  0.5013
17425TIP3   OH273689   2.557   5.657  11.557  0.3259  0.7783 -0.2040
17425TIP3    H173690   2.603   5.580  11.524 -2.2921 -0.8411 -0.4460
17425TIP3    H273691   2.590   5.730  11.505 -0.1411 -0.9044 -3.0391
17426TIP3   OH273692   4.253   5.669   1.179 -0.2015 -0.4631  0.1704
17426TIP3    H173693   4.298   5.616   1.114 -1.2677 -0.4926 -0.5635
17426TIP3    H273694   4.300   5.652   1.261  2.9124  1.6891 -1.0148
17427TIP3   OH273695   0.795   3.295  11.002 -0.5119  0.7726  0.5703
17427TIP3    H173696   0.759   3.376  10.965 -0.8120 -0.0907 -1.1178
17427TIP3    H273697   0.832   3.249  10.928  1.4457  0.2277  1.8185
17428TIP3   OH273698   6.201   5.647   2.375 -0.3169 -0.0081  0.4245
17428TIP3    H173699   6.200   5.555   2.404  1.5633  0.1868  1.2673
17428TIP3    H273700   6.269   5.688   2.428 -0.9291  1.8328 -0.1373
17429TIP3   OH273701   0.835   1.489  16.863 -0.6104  0.1192  0.3892
17429TIP3    H173702   0.887   1.443  16.796 -0.4248  0.9342 -0.0468
17429TIP3    H273703   0.824   1.425  16.933  0.2306 -0.3639  0.1007
17430TIP3   OH273704   1.729   3.168  17.172  0.0943 -0.3109  0.2090
17430TIP3    H173705   1.770   3.238  17.223  0.9757  0.0374 -0.9599
17430TIP3    H273706   1.801   3.126  17.126 -0.5871 -1.1927 -0.0707
17431TIP3   OH273707   6.258   2.152   0.907 -0.3400 -0.2470  0.1083
17431TIP3    H173708   6.163   2.143   0.896 -0.3832 -0.1548  0.4016
17431TIP3    H273709   6.271   2.152   1.002 -0.0297 -0.4332  0.0643
17432TIP3   OH273710   6.333   0.454   3.499  0.2101  0.4551 -0.3696
17432TIP3    H173711   6.244   0.485   3.518  0.5075  2.4458 -1.8987
17432TIP3    H273712   6.319   0.376   3.445 -0.5989  0.4210 -0.1331
17433TIP3   OH273713   2.190   5.286  16.224  0.0710  0.4777 -0.3594
17433TIP3    H173714   2.247   5.253  16.294  0.1126 -2.1687 -1.5356
17433TIP3    H273715   2.177   5.378  16.246  1.9182  0.3063  1.8756
17434TIP3   OH273716   5.280   1.209  15.458 -0.1538  0.3256 -0.3250
17434TIP3    H173717   5.190   1.219  15.427 -0.3945 -0.3451  0.1343
17434TIP3    H273718   5.271   1.172  15.545  0.5665  0.5172 -0.1646
17435TIP3   OH273719   2.337   3.036  14.298  0.9992  0.4901  0.2389
17435TIP3    H173720   2.290   2.959  14.265  0.6123  1.2812 -1.1597
17435TIP3    H273721   2.428   3.009  14.303  0.6462 -0.5530  1.3595
17436TIP3   OH273722   5.146   2.144  15.455  0.0622 -0.1164 -0.0690
17436TIP3    H173723   5.217   2.097  15.499 -0.1438  0.2664  0.6858
17436TIP3    H273724   5.174   2.149  15.363  2.9137  3.3901  0.7992
17437TIP3   OH273725   3.834   6.659  15.433 -0.3989 -0.3121 -0.4547
17437TIP3    H173726   3.762   6.595  15.434  0.8329 -1.7643  0.2191
17437TIP3    H273727   3.801   6.732  15.484 -1.3687 -0.9959 -0.0568
17438TIP3   OH273728   1.623   5.655  13.903  0.3393  0.2185 -0.0664
17438TIP3    H173729   1.584   5.742  13.894  0.2597  0.0693 -1.2479
17438TIP3    H273730   1.712   5.665  13.870 -0.0966 -0.4442 -1.5196
17439TIP3   OH273731   2.643   6.201   0.600 -0.1764  0.4145  0.1540
17439TIP3    H173732   2.567   6.209   0.658 -0.6358  1.3774 -0.5507
17439TIP3    H273733   2.700   6.272   0.626 -0.0943  0.4626 -0.1572
17440TIP3   OH273734   1.871   2.558   3.458 -0.4688 -0.2349 -0.4502
17440TIP3    H173735   1.834   2.491   3.400 -3.1662  1.8804 -1.4065
17440TIP3    H273736   1.821   2.550   3.539 -0.5338  0.3334 -0.4295
17441TIP3   OH273737   0.837   5.982  12.168  0.0364  0.3441 -0.3666
17441TIP3    H173738   0.753   5.998  12.212 -0.3434  1.2709 -1.3834
17441TIP3    H273739   0.834   5.889  12.145  0.2647 -0.1921  1.5510
17442TIP3   OH273740   3.868   1.688   0.382 -0.8135  0.5051  0.3098
17442TIP3    H173741   3.796   1.736   0.341 -0.5616 -1.2317 -2.3737
17442TIP3    H273742   3.943   1.702   0.324 -0.4211 -2.0118  0.0955
17443TIP3   OH273743   1.963   6.706   3.168  0.4739  0.2147 -0.4686
17443TIP3    H173744   1.927   6.683   3.254  0.9226  0.7007 -0.1453
17443TIP3    H273745   2.024   6.635   3.148  0.8673  0.4394 -0.0783
17444TIP3   OH273746   2.444   4.136   0.333 -0.3487  0.2471  0.3810
17444TIP3    H173747   2.423   4.076   0.261 -0.6359  0.9701 -0.1602
17444TIP3    H273748   2.474   4.080   0.404 -1.5956 -0.6127  0.2482
17445TIP3   OH273749   4.860   0.771   5.547  0.3070 -0.1170  0.2921
17445TIP3    H173750   4.785   0.830   5.535  0.0803 -0.0956  1.6963
17445TIP3    H273751   4.829   0.705   5.609  1.1058 -0.7468  0.0356
17446TIP3   OH273752   1.931   3.345   5.308  0.7965 -0.2379 -0.6641
17446TIP3    H173753   1.861   3.383   5.254 -0.3496 -1.3613 -0.0358
17446TIP3    H273754   2.002   3.328   5.247  0.5896  1.0718 -1.3039
17447TIP3   OH273755   6.335   6.152  12.995  0.6573  0.0712  0.3130
17447TIP3    H173756   6.356   6.070  13.041  2.0329 -0.0331 -0.4458
17447TIP3    H273757   6.317   6.124  12.905 -0.8181  0.4061  0.4883
17448TIP3   OH273758   1.605   3.368  11.963 -0.2660 -0.3767 -0.3260
17448TIP3    H173759   1.525   3.418  11.981 -0.7455 -1.5968  1.1083
17448TIP3    H273760   1.675   3.424  11.996 -0.5421  0.4963 -1.1646
17449TIP3   OH273761   3.199   2.838   2.861 -0.7568 -0.2936  0.1174
17449TIP3    H173762   3.212   2.842   2.767 -0.7047  0.2796  0.1468
17449TIP3    H273763   3.281   2.871   2.898  0.0921 -2.5570  0.4112
17450TIP3   OH273764   0.603   2.016   3.688  0.8246 -0.5211 -1.1658
17450TIP3    H173765   0.565   1.928   3.693  1.4142 -0.9133 -3.0274
17450TIP3    H273766   0.609   2.044   3.780 -1.1016 -1.6412 -0.6435
17451TIP3   OH273767   1.812   5.737  12.766  0.1015 -0.0529 -0.0859
17451TIP3    H173768   1.769   5.693  12.693  0.2227  0.3048 -0.3786
17451TIP3    H273769   1.899   5.760  12.733 -0.6502  2.2367 -0.6761
17452TIP3   OH273770   6.279   2.795   6.115  0.0206 -0.2673 -0.3121
17452TIP3    H173771   6.336   2.776   6.190 -0.0518  0.9794  0.0776
17452TIP3    H273772   6.194   2.815   6.155 -0.0105  0.4458 -0.7166
17453TIP3   OH273773   2.049   1.818   4.841 -0.1043  0.2155  0.2693
17453TIP3    H173774   1.959   1.803   4.814  0.6719 -1.1036 -1.8952
17453TIP3    H273775   2.064   1.911   4.825 -0.9866  0.3674  0.3107
17454TIP3   OH273776   1.344   0.852   0.915 -0.3159 -0.0537  0.2276
17454TIP3    H173777   1.325   0.913   0.986 -2.2108  0.8174 -0.9730
17454TIP3    H273778   1.420   0.889   0.871 -0.7162  0.8021  0.2408
17455TIP3   OH273779   5.380   2.956   1.976  0.0526 -0.2555 -0.0213
17455TIP3    H173780   5.356   2.906   1.899 -2.0110 -2.4367  1.8657
17455TIP3    H273781   5.441   2.900   2.023 -1.3392 -0.5410  1.5392
17456TIP3   OH273782   1.114   4.154  14.823  0.2800  0.7856 -0.5447
17456TIP3    H173783   1.138   4.085  14.884  0.3559  0.6456 -0.7341
17456TIP3    H273784   1.064   4.109  14.755 -1.1052  1.1575  0.1765
17457TIP3   OH273785   4.287   1.607  13.960  0.1847  0.1262  0.3492
17457TIP3    H173786   4.370   1.653  13.973  0.2774 -0.1994  0.9510
17457TIP3    H273787   4.220   1.673  13.978  0.3065  0.5240 -0.6278
17458TIP3   OH273788   1.885   3.032   1.700 -0.1607 -0.3022 -0.4471
17458TIP3    H173789   1.974   2.997   1.704  0.0080  0.1665  0.0169
17458TIP3    H273790   1.888   3.113   1.751 -1.4684 -1.6317  1.9536
17459TIP3   OH273791   1.585   6.449  11.195 -0.1323  0.5361  0.8319
17459TIP3    H173792   1.651   6.449  11.125 -1.0856  0.9882 -0.0930
17459TIP3    H273793   1.629   6.491  11.269  1.4965 -1.5322  1.1394
17460TIP3   OH273794   3.217   5.602  12.756  0.0181  0.5538  0.1045
17460TIP3    H173795   3.268   5.613  12.675 -0.5212  2.2269 -0.0497
17460TIP3    H273796   3.281   5.571  12.820  1.2401  2.3803 -0.1495
17461TIP3   OH273797   6.308   1.941   3.293 -0.5573 -0.0658  0.5795
17461TIP3    H173798   6.325   2.000   3.366  0.1347  0.0682  0.3189
17461TIP3    H273799   6.272   1.862   3.334  1.4152 -0.6778  1.2856
17462TIP3   OH273800   2.595   0.473   0.265 -0.0212 -0.0992 -0.6337
17462TIP3    H173801   2.604   0.567   0.277 -0.0941 -0.2679  1.1104
17462TIP3    H273802   2.603   0.437   0.354 -1.0158 -1.6409 -1.1264
17463TIP3   OH273803   5.158   5.185  16.032 -0.1082 -0.2724  0.0032
17463TIP3    H173804   5.074   5.181  16.078 -1.7105  2.2342 -2.3656
17463TIP3    H273805   5.224   5.171  16.100 -2.3904 -0.5212  2.3020
17464TIP3   OH273806   1.547   3.670   3.353  0.1094 -0.0457  0.3497
17464TIP3    H173807   1.607   3.609   3.397 -0.0548  0.3622  1.1635
17464TIP3    H273808   1.461   3.648   3.387 -0.1327 -0.2286 -0.3628
17465TIP3   OH273809   4.750   0.415  15.351  0.2511 -0.8798 -0.6761
17465TIP3    H173810   4.807   0.359  15.403  1.4656 -0.2884 -1.3167
17465TIP3    H273811   4.770   0.504  15.381 -1.5036 -0.7274  0.1958
17466TIP3   OH273812   5.512   0.749   6.546  0.5181 -0.3700 -0.1085
17466TIP3    H173813   5.590   0.796   6.517  0.6762 -0.3595  0.3230
17466TIP3    H273814   5.444   0.816   6.553  0.5587 -0.3229 -0.1742
17467TIP3   OH273815   3.304   4.836   3.434  0.8788  0.1180 -0.7884
17467TIP3    H173816   3.332   4.757   3.388  0.4359  0.3856 -1.5392
17467TIP3    H273817   3.213   4.819   3.458  1.5465 -0.6556  1.4367
17468TIP3   OH273818   0.423   5.860  15.453  0.3136 -0.7354 -0.1029
17468TIP3    H173819   0.417   5.802  15.529  0.9157 -0.8104 -0.1051
17468TIP3    H273820   0.350   5.920  15.462  0.9815 -0.0741  1.1014
17469TIP3   OH273821   1.280   5.887   2.992 -0.0158 -0.4412  0.0302
17469TIP3    H173822   1.260   5.979   3.008 -1.2258 -0.5707 -0.6215
17469TIP3    H273823   1.343   5.864   3.061  0.4764  0.9125  0.0710
17470TIP3   OH273824   4.951   3.427  10.187  0.4482  0.2022 -0.7244
17470TIP3    H173825   4.970   3.487  10.259  1.6700 -0.7152 -0.2269
17470TIP3    H273826   4.858   3.407  10.197  0.6873 -0.2902  0.9513
17471TIP3   OH273827   2.767   1.867   4.724 -0.4335 -0.2106 -0.1556
17471TIP3    H173828   2.852   1.869   4.769 -0.5203 -0.0587  0.0050
17471TIP3    H273829   2.747   1.959   4.707 -0.3755 -0.2692 -0.5578
17472TIP3   OH273830   2.996   2.802  13.764 -0.3089 -0.6162  0.6037
17472TIP3    H173831   2.932   2.731  13.774  0.1008 -1.0565  0.1851
17472TIP3    H273832   3.081   2.758  13.767 -0.0425 -0.1145  0.5366
17473TIP3   OH273833   0.547   6.771   6.164 -0.2398 -0.1583  0.4838
17473TIP3    H173834   0.608   6.834   6.126  2.2137 -2.4376  0.3980
17473TIP3    H273835   0.534   6.801   6.254  1.4780  0.1135  0.6709
17474TIP3   OH273836   3.285   1.418   4.319  0.5732  0.1137  0.3105
17474TIP3    H173837   3.360   1.359   4.314  0.0897 -0.5253  0.4100
17474TIP3    H273838   3.212   1.362   4.346  0.0236  0.6905  0.0618
17475TIP3   OH273839   1.511   6.108   0.887 -0.2404 -0.2904 -0.0173
17475TIP3    H173840   1.421   6.136   0.871  0.2284 -0.1685 -2.9124
17475TIP3    H273841   1.562   6.190   0.886  0.0748 -0.4789  0.3240
17476TIP3   OH273842   4.960   1.329  16.220 -0.5085 -0.3735  0.5360
17476TIP3    H173843   5.050   1.327  16.254  0.4324  2.4892 -1.4536
17476TIP3    H273844   4.905   1.324  16.298  1.4221  0.6164  2.0591
17477TIP3   OH273845   4.059   6.558   3.776  0.1544  0.4071  0.3829
17477TIP3    H173846   4.018   6.608   3.847  0.3293  0.9074  0.1332
17477TIP3    H273847   4.010   6.582   3.698 -1.6815 -1.9977  0.6635
17478TIP3   OH273848   2.703   5.128   4.405  0.4825  0.3082  0.1111
17478TIP3    H173849   2.755   5.097   4.331  1.8565 -2.7843  2.1772
17478TIP3    H273850   2.662   5.049   4.441 -0.7943  1.8056  2.1706
17479TIP3   OH273851   3.229   2.201   5.230  0.1384 -0.4974  0.4378
17479TIP3    H173852   3.218   2.148   5.152  1.1420  0.9363 -0.7286
17479TIP3    H273853   3.166   2.273   5.220  2.3741  1.4290 -0.6799
17480TIP3   OH273854   1.196   6.288  12.741  0.6455  0.2504 -0.3268
17480TIP3    H173855   1.213   6.231  12.666  1.5577  0.7759 -0.5389
17480TIP3    H273856   1.115   6.254  12.780  1.4734 -1.5596 -0.0962
17481TIP3   OH273857   0.703   3.868   3.285  0.1660 -0.3958 -0.0201
17481TIP3    H173858   0.691   3.883   3.191  0.0788  3.1175  0.3841
17481TIP3    H273859   0.756   3.943   3.314  0.9449 -1.8319  2.6090
17482TIP3   OH273860   1.769   5.669   2.069 -0.7564 -0.6022  0.0978
17482TIP3    H173861   1.852   5.641   2.031 -0.8067 -1.3724  0.5359
17482TIP3    H273862   1.778   5.764   2.079  0.3902 -0.7646  0.8888
17483TIP3   OH273863   2.017   6.130   2.395 -0.3225  0.4286  0.4236
17483TIP3    H173864   2.004   6.043   2.358 -0.9959  0.4558  0.5856
17483TIP3    H273865   2.104   6.126   2.435  0.4728  0.4441 -1.2394
17484TIP3   OH273866   5.604   4.759   2.055  0.0283 -0.0170 -0.5647
17484TIP3    H173867   5.646   4.768   2.141  0.6959 -1.9613 -0.6415
17484TIP3    H273868   5.512   4.778   2.071  0.3393  0.8238  0.3232
17485TIP3   OH273869   2.224   2.451  14.898 -0.3886  0.4344 -0.4610
17485TIP3    H173870   2.319   2.464  14.888 -0.0899 -1.0934  0.1841
17485TIP3    H273871   2.189   2.466  14.811  0.5669  0.0630 -0.9235
17486TIP3   OH273872   2.747   0.095  12.053  0.2980 -0.1273 -0.1640
17486TIP3    H173873   2.718   0.084  11.962  2.5245 -1.0104 -0.8280
17486TIP3    H273874   2.776   0.186  12.058  0.6135 -0.2058 -0.4924
17487TIP3   OH273875   1.892   6.674  13.263  0.4894 -0.6968 -0.9177
17487TIP3    H173876   1.902   6.760  13.223  1.1319  0.5993  1.8295
17487TIP3    H273877   1.842   6.624  13.199 -0.9412  2.0571 -2.1176
17488TIP3   OH273878   4.420   1.801  15.265  0.0461  0.2056 -0.0722
17488TIP3    H173879   4.422   1.887  15.307 -0.2768  0.2221 -0.0827
17488TIP3    H273880   4.506   1.764  15.282 -0.4497 -0.2729  1.6375
17489TIP3   OH273881   5.209   3.536  12.731  0.4185  0.1862  0.1342
17489TIP3    H173882   5.298   3.505  12.718  0.8773  1.1796  0.8180
17489TIP3    H273883   5.164   3.463  12.775  1.3902  0.3449  1.4498
17490TIP3   OH273884   3.356   4.332   3.326  0.0782 -0.8815 -0.7983
17490TIP3    H173885   3.398   4.322   3.411  0.9759 -2.1281 -1.3617
17490TIP3    H273886   3.270   4.292   3.337  0.3133 -1.3298 -0.5657
17491TIP3   OH273887   3.120   0.688  15.388  0.0760 -0.0510 -0.2288
17491TIP3    H173888   3.171   0.650  15.316 -0.4943 -0.6594 -0.3215
17491TIP3    H273889   3.184   0.701  15.458  0.5233 -0.0140 -0.6380
17492TIP3   OH273890   3.696   6.390   0.340 -0.5146 -0.2048 -0.1027
17492TIP3    H173891   3.768   6.432   0.293  0.1051 -1.0438  0.0668
17492TIP3    H273892   3.645   6.346   0.271  1.1447 -2.5634  0.0376
17493TIP3   OH273893   5.841   4.776  12.157  0.4036  0.3352  0.0410
17493TIP3    H173894   5.916   4.717  12.148 -1.2310 -1.4943 -2.7817
17493TIP3    H273895   5.853   4.840  12.086 -0.2584  0.5621  0.1323
17494TIP3   OH273896   4.892   3.727   3.710  0.5382 -0.1184 -0.0602
17494TIP3    H173897   4.897   3.649   3.654 -0.3955 -1.0820  1.1494
17494TIP3    H273898   4.809   3.718   3.757  0.5570  1.4638  0.3425
17495TIP3   OH273899   4.547   5.959  13.462 -0.2130 -0.3065  0.0520
17495TIP3    H173900   4.461   5.940  13.425 -0.2286 -2.1334  0.8837
17495TIP3    H273901   4.567   5.881  13.515 -0.6518  2.3689  4.7319
17496TIP3   OH273902   6.287   0.671   5.158  0.6797 -0.2140 -0.1483
17496TIP3    H173903   6.225   0.615   5.111  0.1546 -0.2937  0.6210
17496TIP3    H273904   6.370   0.625   5.151  0.7009 -0.0286 -1.3285
17497TIP3   OH273905   3.175   0.013  13.155 -0.0343 -0.2744 -0.1920
17497TIP3    H173906   3.202   0.014  13.063 -2.1310  0.4027 -0.8480
17497TIP3    H273907   3.080   0.001  13.153 -0.5660  2.4764  1.7403
17498TIP3   OH273908   3.051   6.210   2.013 -0.2960 -0.1214  0.2674
17498TIP3    H173909   3.133   6.161   2.011 -1.3497 -1.9426 -0.9415
17498TIP3    H273910   3.073   6.291   2.059  1.4855 -1.7603  2.5696
17499TIP3   OH273911   4.060   2.869   2.719  0.4131 -0.8081  0.1827
17499TIP3    H173912   4.010   2.932   2.772  1.2699 -0.3109  0.4189
17499TIP3    H273913   4.129   2.838   2.777  0.7337 -1.0423 -0.3163
17500TIP3   OH273914   0.125   6.703   3.926 -0.2788  0.1208  0.3889
17500TIP3    H173915   0.144   6.739   3.839 -1.0237  0.0985  0.2082
17500TIP3    H273916   0.194   6.738   3.982 -1.3663  2.4756  0.3780
17501TIP3   OH273917   5.839   3.429  12.732 -0.3620  0.0128  0.8497
17501TIP3    H173918   5.872   3.340  12.745  0.0545  0.2027  1.1172
17501TIP3    H273919   5.819   3.460  12.820  0.6967  0.6349  0.8908
17502TIP3   OH273920   1.777   5.666  11.552  0.6291 -0.3062 -0.1911
17502TIP3    H173921   1.790   5.595  11.490  0.2567 -1.0575  0.5737
17502TIP3    H273922   1.799   5.628  11.638  3.6037  1.3849 -0.0574
17503TIP3   OH273923   4.007   2.320  15.268  0.4829  0.2799  0.0963
17503TIP3    H173924   4.066   2.331  15.193  0.1944 -0.4490 -0.2401
17503TIP3    H273925   4.062   2.341  15.344  1.6193 -1.7367 -0.0948
17504TIP3   OH273926   5.285   4.462   4.484  0.5763 -0.0877  0.3407
17504TIP3    H173927   5.252   4.548   4.511  0.1465  0.0298 -0.5230
17504TIP3    H273928   5.330   4.429   4.562  0.1593  0.6213  0.9053
17505TIP3   OH273929   0.731   6.786  11.384 -0.5921 -0.6763  0.3235
17505TIP3    H173930   0.823   6.784  11.358 -0.7327  0.3061 -0.3258
17505TIP3    H273931   0.730   6.756  11.475  0.8193  2.4974  1.5188
17506TIP3   OH273932   1.740   0.151   1.027  0.4840  0.1365 -0.3131
17506TIP3    H173933   1.769   0.127   1.114  0.7397 -1.2432 -0.7583
17506TIP3    H273934   1.820   0.162   0.977  0.3237 -1.0357 -0.8619
17507TIP3   OH273935   2.921   5.595  14.684  0.2823  0.4154 -0.1440
17507TIP3    H173936   2.962   5.526  14.632 -0.3720 -0.2811  0.2620
17507TIP3    H273937   2.850   5.628  14.628 -0.1490 -0.0434  0.1252
17508TIP3   OH273938   3.541   4.837  11.278 -0.1740  0.1179  0.0485
17508TIP3    H173939   3.613   4.835  11.215 -0.4601  0.0142 -0.2782
17508TIP3    H273940   3.472   4.887  11.235 -0.9827 -1.3253 -0.3997
17509TIP3   OH273941   2.905   1.145   2.881  0.2272  0.6632  0.1193
17509TIP3    H173942   2.954   1.183   2.954  1.3433  1.5387 -1.0419
17509TIP3    H273943   2.835   1.209   2.864 -1.1993 -0.4339  1.5716
17510TIP3   OH273944   2.215   0.710  13.635 -0.4540 -0.2011  0.0149
17510TIP3    H173945   2.146   0.756  13.683 -0.6156  0.4105 -0.7878
17510TIP3    H273946   2.197   0.729  13.543  0.7137 -0.1290 -0.2149
17511TIP3   OH273947   4.255   4.266   1.199 -0.1974  0.2931  0.1710
17511TIP3    H173948   4.204   4.347   1.204 -0.1191  0.3996 -0.5952
17511TIP3    H273949   4.193   4.197   1.224  0.4036  0.7812  3.4724
17512TIP3   OH273950   2.543   1.234   3.339 -0.1471  0.4452 -0.5664
17512TIP3    H173951   2.452   1.226   3.312 -0.3665 -0.6126  0.3947
17512TIP3    H273952   2.538   1.270   3.428  0.3814  0.5292 -0.5693
17513TIP3   OH273953   0.372   4.610  13.023 -0.0034 -0.0300  0.0630
17513TIP3    H173954   0.286   4.606  13.064  0.5205  0.3189  1.2433
17513TIP3    H273955   0.431   4.639  13.093  0.8441  1.0907 -1.0621
17514TIP3   OH273956   3.146   2.711   5.253 -0.5172 -0.0602  0.2489
17514TIP3    H173957   3.225   2.741   5.297  0.9330 -0.2722 -2.0507
17514TIP3    H273958   3.160   2.618   5.239 -2.2260 -0.6079  1.7854
17515TIP3   OH273959   2.810   2.176   4.056 -0.1649 -0.1843 -0.3098
17515TIP3    H173960   2.730   2.131   4.081 -0.8559  0.8381 -0.6207
17515TIP3    H273961   2.839   2.131   3.976  1.4246 -2.6977  1.5287
17516TIP3   OH273962   2.971   4.535   3.782 -0.4895 -0.1264  0.0405
17516TIP3    H173963   2.926   4.509   3.702  0.4058  0.9984 -0.8583
17516TIP3    H273964   3.064   4.530   3.760 -0.2197  0.1461  1.0423
17517TIP3   OH273965   4.455   6.490  12.856 -0.7858 -0.4312 -0.2659
17517TIP3    H173966   4.373   6.491  12.807 -1.1926 -0.1113  0.4227
17517TIP3    H273967   4.522   6.510  12.790 -1.1468 -1.6009 -1.0162
17518TIP3   OH273968   1.307   0.525  13.613  0.9587 -0.1087 -0.3395
17518TIP3    H173969   1.257   0.443  13.617 -2.2846  1.7374  1.4740
17518TIP3    H273970   1.308   0.547  13.520 -0.6269 -0.8604 -0.5740
17519TIP3   OH273971   2.879   4.921  12.078  0.3048  0.1930 -0.0145
17519TIP3    H173972   2.797   4.938  12.031 -0.0276 -0.1424  0.4365
17519TIP3    H273973   2.916   4.844  12.034  0.4056  0.3749 -0.2511
17520TIP3   OH273974   2.667   1.989  10.483 -0.5455 -0.2893 -0.6948
17520TIP3    H173975   2.732   2.053  10.512 -0.5089 -1.2882  1.6539
17520TIP3    H273976   2.712   1.937  10.417  0.9456 -0.7018  0.5967
17521TIP3   OH273977   3.147   5.400   0.629 -0.4318  0.2077  0.4907
17521TIP3    H173978   3.203   5.367   0.699  0.8414  1.8208  0.2940
17521TIP3    H273979   3.205   5.409   0.554 -1.2985  0.4959 -0.1653
17522TIP3   OH273980   3.743   0.154  10.354 -0.6038 -0.2910 -0.2299
17522TIP3    H173981   3.707   0.178  10.268 -0.5735 -2.6653 -0.9592
17522TIP3    H273982   3.670   0.167  10.415 -0.2571  2.6999 -0.2890
17523TIP3   OH273983   5.856   3.700   5.152 -0.2003  0.6408  0.1880
17523TIP3    H173984   5.849   3.770   5.087 -1.5183  1.0122  0.7049
17523TIP3    H273985   5.775   3.651   5.145  0.9116 -1.2023 -0.5113
17524TIP3   OH273986   3.674   1.797  16.486 -0.3293  0.3731  0.1525
17524TIP3    H173987   3.666   1.754  16.400  0.4710 -0.4295  0.4597
17524TIP3    H273988   3.619   1.743  16.544  2.1189 -1.4421  0.9419
17525TIP3   OH273989   4.545   3.842  12.479 -0.0884 -0.3431 -0.2497
17525TIP3    H173990   4.629   3.865  12.520 -0.1402  2.2812 -1.3717
17525TIP3    H273991   4.564   3.762  12.430  1.7119  0.0461 -0.2710
17526TIP3   OH273992   2.166   0.362  14.338  0.4265  0.3377  0.2689
17526TIP3    H173993   2.103   0.290  14.337 -0.1459  0.8254  0.2735
17526TIP3    H273994   2.243   0.327  14.294  0.7143 -0.7661  1.5868
17527TIP3   OH273995   0.653   2.476  11.665 -0.3012  0.0965 -0.0344
17527TIP3    H173996   0.600   2.396  11.669  1.2663 -0.9935  0.2399
17527TIP3    H273997   0.602   2.541  11.714 -1.0636 -1.0884  0.8192
17528TIP3   OH273998   2.756   6.185  15.727 -0.0342 -0.1282 -0.2084
17528TIP3    H173999   2.743   6.128  15.651 -0.6792  3.5212 -3.1177
17528TIP3    H274000   2.685   6.162  15.787 -0.9329 -1.5740 -1.7338
17529TIP3   OH274001   3.205   6.691  14.291 -0.2709  0.3613 -0.3624
17529TIP3    H174002   3.281   6.727  14.337  0.4146 -0.2446 -0.9952
17529TIP3    H274003   3.130   6.721  14.342  0.1611  3.4725 -1.3291
17530TIP3   OH274004   4.530   3.888  14.720 -0.1738 -0.1178 -0.4446
17530TIP3    H174005   4.456   3.842  14.681 -1.2375  1.6253 -0.6247
17530TIP3    H274006   4.584   3.914  14.646  0.8970 -1.7630 -0.2841
17531TIP3   OH274007   1.815   3.576  14.717  0.5118 -0.3319  0.3951
17531TIP3    H174008   1.748   3.606  14.655 -0.2853 -0.4329  1.1932
17531TIP3    H274009   1.835   3.486  14.690  0.5016 -0.2166  0.0061
17532TIP3   OH274010   2.501   5.974   2.685 -0.2678 -0.5794  0.0905
17532TIP3    H174011   2.418   6.010   2.716 -0.8109 -1.4124 -0.3586
17532TIP3    H274012   2.496   5.980   2.589  0.9029  0.9028  0.0777
17533TIP3   OH274013   0.597   6.384  13.199 -0.3489 -0.0022 -0.2171
17533TIP3    H174014   0.533   6.367  13.130  1.3440  0.5020 -2.0208
17533TIP3    H274015   0.668   6.431  13.154  0.9118  0.1825  1.8492
17534TIP3   OH274016   0.849   5.475  10.754  0.0948 -0.4152 -0.4988
17534TIP3    H174017   0.758   5.480  10.723  0.1484 -0.9035 -0.7573
17534TIP3    H274018   0.885   5.562  10.739 -0.2650 -0.2847 -0.6176
17535TIP3   OH274019   1.029   0.199   5.130 -0.1989  0.3593  0.1983
17535TIP3    H174020   1.038   0.105   5.145  1.0373  0.4762  0.3074
17535TIP3    H274021   1.067   0.239   5.209 -2.0396  0.9560  0.8207
17536TIP3   OH274022   5.753   1.701  14.509  0.1642 -0.3950  0.4771
17536TIP3    H174023   5.713   1.628  14.555  0.4101 -0.0676  1.2349
17536TIP3    H274024   5.822   1.661  14.455 -1.7653 -1.0883 -1.6283
17537TIP3   OH274025   2.863   5.702   0.164 -0.4993  0.0503  0.5989
17537TIP3    H174026   2.914   5.711   0.084 -0.2991 -1.6911  0.5065
17537TIP3    H274027   2.869   5.788   0.206  2.0533  0.0762  0.3237
17538TIP3   OH274028   0.872   3.482   0.811 -0.2409  0.0113 -0.0684
17538TIP3    H174029   0.836   3.398   0.839  0.0412  0.2171  0.9673
17538TIP3    H274030   0.967   3.470   0.814 -0.1644 -0.3829 -2.3244
17539TIP3   OH274031   6.239   0.912   3.583  0.2536  0.1319 -0.1072
17539TIP3    H174032   6.209   0.985   3.530 -2.6619 -0.6140  0.3191
17539TIP3    H274033   6.294   0.860   3.524  0.2507  1.3077 -1.1780
17540TIP3   OH274034   4.943   1.820   0.482 -0.9705 -0.3164  0.3501
17540TIP3    H174035   5.007   1.786   0.545  0.4157 -2.9066 -2.1845
17540TIP3    H274036   4.889   1.745   0.460 -1.6369  0.5949 -1.2650
17541TIP3   OH274037   6.133   1.161   3.069 -0.1780  0.5361  0.4192
17541TIP3    H174038   6.058   1.197   3.021  0.3036  1.7076  0.5231
17541TIP3    H274039   6.133   1.068   3.045 -1.5469  0.5395  0.2738
17542TIP3   OH274040   1.716   2.205   2.167  0.0685 -0.6218 -0.5257
17542TIP3    H174041   1.760   2.172   2.245  1.4960  1.1672 -0.5158
17542TIP3    H274042   1.722   2.134   2.103 -0.5456 -1.8585  0.7507
17543TIP3   OH274043   0.204   0.147   5.957  0.2225  0.4449 -0.0090
17543TIP3    H174044   0.137   0.215   5.951  0.0476  0.3178  0.4394
17543TIP3    H274045   0.154   0.065   5.953  0.4928  0.3336 -1.2643
17544TIP3   OH274046   1.965   6.566  14.909 -0.4354  0.7546  0.1390
17544TIP3    H174047   1.912   6.645  14.919 -0.5004  0.8858 -1.0786
17544TIP3    H274048   2.036   6.576  14.973 -0.3913  1.8374 -0.0618
17545TIP3   OH274049   4.389   5.509  11.929  0.1508  0.2789  0.3155
17545TIP3    H174050   4.437   5.430  11.901  0.4253  0.6580 -0.3104
17545TIP3    H274051   4.447   5.581  11.904  0.4442  0.6480  1.9444
17546TIP3   OH274052   3.259   0.163   1.955  0.2241 -0.0245 -0.0823
17546TIP3    H174053   3.211   0.094   1.909 -1.0274  0.2770  0.7247
17546TIP3    H274054   3.279   0.227   1.886  0.8337 -0.8671 -0.7118
17547TIP3   OH274055   3.188   0.561  16.324 -0.6772 -0.2020  0.0039
17547TIP3    H174056   3.117   0.594  16.378  0.6040  1.6188  0.6484
17547TIP3    H274057   3.224   0.488  16.375 -0.5409  0.4291  0.8345
17548TIP3   OH274058   5.678   5.541   0.030  0.1781  0.0686  0.7808
17548TIP3    H174059   5.706   5.501  -0.052  0.8924 -0.2034  1.1403
17548TIP3    H274060   5.603   5.489   0.059  0.2283 -0.1340  0.5418
17549TIP3   OH274061   1.730   5.545   5.110 -0.6736 -0.4777 -0.2242
17549TIP3    H174062   1.758   5.631   5.080 -0.6984 -1.2202 -2.5787
17549TIP3    H274063   1.634   5.549   5.109 -0.6876 -0.1575  0.9358
17550TIP3   OH274064   2.720   6.691   3.117 -0.9550  0.4081  0.1337
17550TIP3    H174065   2.796   6.652   3.073  1.0301  1.9695  1.9521
17550TIP3    H274066   2.714   6.780   3.081 -0.4389  1.0759  1.6085
17551TIP3   OH274067   2.811   6.729   6.250 -0.4034  0.1771  0.5394
17551TIP3    H174068   2.848   6.642   6.235 -0.9760 -0.0262  0.3114
17551TIP3    H274069   2.756   6.719   6.327 -0.2403  0.4095  0.6874
17552TIP3   OH274070   5.799   0.646   2.117 -0.1406  1.1597 -0.2225
17552TIP3    H174071   5.827   0.652   2.026 -0.0718  0.8262 -0.2219
17552TIP3    H274072   5.786   0.737   2.144 -0.1704  1.2582 -0.5676
17553TIP3   OH274073   3.056   3.082  16.076 -0.3233  0.3853 -0.2844
17553TIP3    H174074   3.146   3.053  16.091 -0.3266 -0.8726 -2.4245
17553TIP3    H274075   3.005   3.035  16.141  0.4190  0.2765  0.2399
17554TIP3   OH274076   0.609   6.210   0.538  0.7857 -0.2922  0.1699
17554TIP3    H174077   0.627   6.303   0.551 -0.1205 -0.2583  1.4598
17554TIP3    H274078   0.693   6.166   0.551  1.0752  0.2927  0.2832
17555TIP3   OH274079   6.520   4.431  11.747 -0.0644 -0.4976 -0.0331
17555TIP3    H174080   6.527   4.400  11.837 -1.9298  0.6931  0.5710
17555TIP3    H274081   6.609   4.458  11.724  0.3244 -0.2256  1.6700
17556TIP3   OH274082   1.735   2.991   2.676 -0.2756  0.3991  0.1354
17556TIP3    H174083   1.804   3.057   2.681 -0.1563  0.3850 -1.0598
17556TIP3    H274084   1.666   3.032   2.625 -1.1523  0.3853  1.2606
17557TIP3   OH274085   2.877   1.370   1.746  0.1001  0.4535  0.2829
17557TIP3    H174086   2.966   1.334   1.746  0.6910  1.8596  0.4438
17557TIP3    H274087   2.864   1.401   1.657  0.1275  1.0688  0.4874
17558TIP3   OH274088   3.514   4.788  15.791 -0.2016 -0.2278  0.3608
17558TIP3    H174089   3.586   4.731  15.820 -1.3299 -2.2406 -0.5376
17558TIP3    H274090   3.510   4.857  15.857  0.8226 -1.5717  1.9312
17559TIP3   OH274091   2.529   6.675  16.061  0.1545  0.2836  0.2086
17559TIP3    H174092   2.601   6.696  16.001 -1.3394  1.3515 -1.3005
17559TIP3    H274093   2.531   6.580  16.068  3.5801  0.3698  2.6781
17560TIP3   OH274094   0.647   5.992  13.235  0.3417  0.1767 -0.5338
17560TIP3    H174095   0.655   5.902  13.267 -2.5347 -0.6799 -1.8732
17560TIP3    H274096   0.639   6.044  13.315 -2.9069 -1.4551  0.4131
17561TIP3   OH274097   3.280   4.600  13.758 -0.0305  0.1678 -0.2053
17561TIP3    H174098   3.354   4.660  13.769 -0.2735  0.4966 -0.3504
17561TIP3    H274099   3.240   4.595  13.844  0.6855 -0.7108  0.0916
17562TIP3   OH274100   3.681   0.912   5.508  0.0157 -0.5889  0.3948
17562TIP3    H174101   3.711   0.869   5.588  0.9359 -1.1995 -0.2575
17562TIP3    H274102   3.600   0.866   5.486  0.2414 -1.0349  0.4776
17563TIP3   OH274103   5.695   1.985   0.528 -0.5053  0.1734  0.1510
17563TIP3    H174104   5.788   2.002   0.521 -0.3822 -0.8253 -1.1078
17563TIP3    H274105   5.681   1.960   0.619  0.4256  0.4730  0.3813
17564TIP3   OH274106   5.573   0.188  15.942 -0.8551  0.1970  0.5048
17564TIP3    H174107   5.597   0.099  15.968  0.1953  0.2261 -0.2833
17564TIP3    H274108   5.525   0.177  15.860  0.5935  0.4111 -0.4180
17565TIP3   OH274109   2.822   1.986  12.548  0.0990 -0.2551 -0.0443
17565TIP3    H174110   2.752   1.932  12.584  1.3699 -0.8568  1.6678
17565TIP3    H274111   2.900   1.962  12.598  1.6418  0.1367 -2.0703
17566TIP3   OH274112   5.908   5.661   0.713 -0.3124 -0.0751  0.2876
17566TIP3    H174113   5.815   5.660   0.733 -0.3804  1.7537  0.2376
17566TIP3    H274114   5.947   5.715   0.782 -0.0195  3.0968 -2.0983
17567TIP3   OH274115   5.634   4.634  12.861  0.3059 -0.3286 -0.1876
17567TIP3    H174116   5.580   4.713  12.860 -0.7859 -1.0361 -1.2298
17567TIP3    H274117   5.636   4.607  12.952 -0.8934 -0.1168 -0.0787
17568TIP3   OH274118   6.202   0.693  12.708  0.3248 -0.0157 -0.3693
17568TIP3    H174119   6.191   0.747  12.786 -1.3668 -0.3448 -0.3483
17568TIP3    H274120   6.195   0.754  12.635 -0.9271 -0.0719 -0.3230
17569TIP3   OH274121   4.947   2.289   5.107  0.8269  0.1877  0.7580
17569TIP3    H174122   4.881   2.292   5.176  0.4246  2.2835  0.3273
17569TIP3    H274123   5.004   2.217   5.133  0.1885  0.3529  2.8171
17570TIP3   OH274124   5.609   1.038  11.417 -0.2031 -0.6204  1.2657
17570TIP3    H174125   5.629   1.112  11.360  1.1004 -0.3989  1.9653
17570TIP3    H274126   5.685   0.980  11.408 -1.3853 -2.1114  0.4021
17571TIP3   OH274127   4.107   6.358   2.027 -0.5368  0.3545  0.5707
17571TIP3    H174128   4.029   6.309   2.052  0.1273 -0.6278  0.7502
17571TIP3    H274129   4.099   6.369   1.932  0.9789 -3.2433 -0.1521
17572TIP3   OH274130   0.373   1.244   3.507  0.2675  0.2156 -0.4204
17572TIP3    H174131   0.379   1.302   3.583 -0.5987 -0.7734  0.4461
17572TIP3    H274132   0.434   1.281   3.443  0.4069  1.5412  0.4423
17573TIP3   OH274133   0.374   1.986  15.841 -0.0025 -0.2489  0.2844
17573TIP3    H174134   0.327   2.067  15.861  0.0506 -0.6206  2.1583
17573TIP3    H274135   0.306   1.920  15.833  0.0283 -0.2501  0.0327
17574TIP3   OH274136   1.356   4.429   5.789  0.0290 -0.1465 -0.2219
17574TIP3    H174137   1.447   4.403   5.775  0.2291  0.1426  0.5309
17574TIP3    H274138   1.319   4.359   5.843 -0.5080 -0.8151 -1.3986
17575TIP3   OH274139   3.765   6.108   5.795 -0.4415  0.7506  0.4670
17575TIP3    H174140   3.711   6.081   5.869  0.8487 -0.2148  1.1127
17575TIP3    H274141   3.703   6.131   5.726 -1.6633 -0.7392  1.0190
17576TIP3   OH274142   4.368   4.128   2.438 -0.3142 -0.5223 -0.0659
17576TIP3    H174143   4.400   4.046   2.400 -1.0311 -0.2398 -1.3520
17576TIP3    H274144   4.282   4.141   2.398 -0.0734  1.0182 -0.1418
17577TIP3   OH274145   5.247   2.228  12.942 -0.0428  0.5803 -0.1939
17577TIP3    H174146   5.227   2.314  12.980 -1.8210 -0.0582  0.3936
17577TIP3    H274147   5.260   2.171  13.017 -2.1834 -0.3820 -0.4973
17578TIP3   OH274148   2.579   4.563  11.732 -0.7063 -0.5026 -0.4073
17578TIP3    H174149   2.629   4.502  11.786  2.5131  0.2648 -2.2419
17578TIP3    H274150   2.515   4.508  11.687  1.4580 -2.5063 -1.2915
17579TIP3   OH274151   2.063   1.608   5.861 -0.6042  0.3702  0.0943
17579TIP3    H174152   2.071   1.565   5.776  1.1284 -1.2041  0.9657
17579TIP3    H274153   2.120   1.685   5.855 -1.9757  1.3495 -0.7512
17580TIP3   OH274154   1.248   3.763   1.432 -0.2705  0.6073 -0.2899
17580TIP3    H174155   1.311   3.749   1.361 -1.5318 -0.5391 -1.2429
17580TIP3    H274156   1.180   3.698   1.416 -0.1194 -0.3740  2.5946
17581TIP3   OH274157   5.943   1.523   3.824 -0.0655  0.3764  0.6301
17581TIP3    H174158   5.901   1.523   3.910 -0.0380 -2.1116  0.7198
17581TIP3    H274159   5.875   1.494   3.764  0.7513 -1.0576  0.3549
17582TIP3   OH274160   4.364   0.345   3.308 -0.0145  0.2657  0.7363
17582TIP3    H174161   4.349   0.316   3.217 -0.9847 -0.1947  1.0210
17582TIP3    H274162   4.385   0.265   3.355 -0.0792  0.4147  1.0206
17583TIP3   OH274163   5.354   1.570  11.477  0.2058  0.0034 -0.5314
17583TIP3    H174164   5.424   1.579  11.542 -0.2497 -1.1909  0.1604
17583TIP3    H274165   5.397   1.585  11.393  0.9157  1.0729  0.0021
17584TIP3   OH274166   1.316   2.730   2.281  0.0863 -0.0506 -0.3649
17584TIP3    H174167   1.319   2.783   2.361 -0.7372  0.0526 -0.3875
17584TIP3    H274168   1.292   2.643   2.311 -0.6223  0.0785 -0.5260
17585TIP3   OH274169   4.734   5.314  12.088 -0.5339 -0.0828 -0.8993
17585TIP3    H174170   4.764   5.388  12.035  3.9012 -2.0054 -1.5302
17585TIP3    H274171   4.730   5.241  12.026  0.3664 -1.4320  0.5859
17586TIP3   OH274172   5.256   4.058  12.648  0.9123 -0.1963 -0.1861
17586TIP3    H174173   5.171   4.030  12.612  1.1095 -1.0955  0.0156
17586TIP3    H274174   5.303   4.093  12.572  0.7975 -0.7889 -0.5440
17587TIP3   OH274175   2.317   2.174  16.676 -0.2433 -0.3836 -0.3776
17587TIP3    H174176   2.303   2.244  16.741  0.9220  1.9377 -2.4538
17587TIP3    H274177   2.264   2.201  16.601 -0.3514 -2.1885 -0.9858
17588TIP3   OH274178   1.784   5.947   2.161  0.2515  0.3746  0.4055
17588TIP3    H174179   1.736   5.981   2.236 -1.0046  0.7477 -0.5177
17588TIP3    H274180   1.856   6.009   2.147 -1.2408  1.9976 -0.4606
17589TIP3   OH274181   0.268   0.682  16.599 -0.3791  0.7446  0.1566
17589TIP3    H174182   0.260   0.596  16.640 -0.4253  0.8317  0.3320
17589TIP3    H274183   0.212   0.677  16.522 -0.9325  0.8445  0.5479
17590TIP3   OH274184   0.627   2.638   1.576  0.2958 -0.2339 -1.0945
17590TIP3    H174185   0.674   2.707   1.529  1.6842 -1.7772 -2.0961
17590TIP3    H274186   0.640   2.560   1.523 -0.9011 -1.3604  0.1932
17591TIP3   OH274187   0.801   5.791   1.768 -0.6033  0.6303  0.3747
17591TIP3    H174188   0.873   5.728   1.762 -1.4518 -0.4848  1.5592
17591TIP3    H274189   0.831   5.855   1.832  0.2824  1.5238 -0.8687
17592TIP3   OH274190   1.691   0.510   2.784 -0.1554  0.0949 -0.1034
17592TIP3    H174191   1.773   0.498   2.832 -0.6220 -0.3151  0.6053
17592TIP3    H274192   1.716   0.557   2.704  0.5587  1.3584  0.8328
17593TIP3   OH274193   6.339   4.793   5.659 -0.1744  0.1379 -0.1471
17593TIP3    H174194   6.382   4.752   5.734  0.1981  1.3302  0.3240
17593TIP3    H274195   6.306   4.720   5.606  0.6883 -0.7488  0.5139
17594TIP3   OH274196   1.714   3.272   4.778  0.0582 -0.2975  0.3483
17594TIP3    H174197   1.714   3.367   4.769  1.4486 -0.1247  1.8033
17594TIP3    H274198   1.627   3.251   4.813 -0.7980  0.2479 -1.3652
17595TIP3   OH274199   2.103   6.308   5.764  0.0520 -0.0888 -0.1340
17595TIP3    H174200   2.015   6.272   5.771 -0.3719  1.0573  0.9479
17595TIP3    H274201   2.118   6.349   5.849  2.0802 -1.2260  0.1161
17596TIP3   OH274202   1.018   0.864  15.893  0.0224  0.3591 -0.1271
17596TIP3    H174203   1.075   0.793  15.923 -0.6772 -1.0081 -1.8021
17596TIP3    H274204   1.073   0.916  15.835 -0.3824 -1.0815 -1.9123
17597TIP3   OH274205   0.421   3.991   2.484 -0.5300  0.2956  0.0286
17597TIP3    H174206   0.516   4.004   2.480 -0.3488 -0.2389  1.6905
17597TIP3    H274207   0.408   3.934   2.560 -2.1597  0.0446 -0.3998
17598TIP3   OH274208   3.956   4.276  16.068 -0.5839 -0.0087  0.1224
17598TIP3    H174209   3.909   4.199  16.100  1.6282 -1.4215  0.1678
17598TIP3    H274210   3.953   4.338  16.141 -0.3654 -1.0077  1.0170
17599TIP3   OH274211   3.585   5.620  13.675  0.2265  0.0630  0.0197
17599TIP3    H174212   3.526   5.666  13.614  0.6482 -0.2656 -0.6366
17599TIP3    H274213   3.525   5.574  13.735 -0.2083  1.2618  0.5590
17600TIP3   OH274214   6.452   3.253   4.500  0.2651 -0.3098 -0.4113
17600TIP3    H174215   6.405   3.281   4.579  0.5465  2.1354 -1.0268
17600TIP3    H274216   6.475   3.335   4.456  1.2697 -1.5784 -2.3710
17601TIP3   OH274217   5.887   5.808  16.624 -0.2094  0.3146 -0.1888
17601TIP3    H174218   5.862   5.900  16.618  0.2671  0.3907 -1.2574
17601TIP3    H274219   5.981   5.810  16.642 -0.1751  0.0382 -0.3329
17602TIP3   OH274220   3.655   4.012  16.590 -0.1192  0.3579 -0.2132
17602TIP3    H174221   3.721   3.955  16.630  0.7490  0.1794 -1.7906
17602TIP3    H274222   3.610   3.956  16.527 -0.2879  1.0270 -0.6979
17603TIP3   OH274223   4.252   0.550  16.941  0.2039  0.0746 -0.5664
17603TIP3    H174224   4.244   0.469  16.991  0.8676  0.3392 -0.0140
17603TIP3    H274225   4.260   0.619  17.007 -2.0129  0.8168 -0.9799
17604TIP3   OH274226   6.513   5.983   2.397  0.6814 -0.5590  0.2611
17604TIP3    H174227   6.562   5.901   2.397  0.8048 -0.5196 -1.5754
17604TIP3    H274228   6.543   6.029   2.319  0.7472  1.3353  1.3308
17605TIP3   OH274229   2.722   0.345   3.801  0.3012 -0.1762 -0.9388
17605TIP3    H174230   2.763   0.423   3.838  1.0835 -0.1351 -1.8478
17605TIP3    H274231   2.638   0.337   3.847 -0.4369  2.0095 -1.8015
17606TIP3   OH274232   2.761   6.535  12.633 -0.5386  0.3777 -0.0229
17606TIP3    H174233   2.791   6.447  12.658 -1.5166 -0.2242 -0.9074
17606TIP3    H274234   2.690   6.554  12.694  0.4699  1.1098  0.9822
17607TIP3   OH274235   2.366   4.666   1.401 -0.5430  0.4288  0.3682
17607TIP3    H174236   2.441   4.636   1.452 -0.1896 -0.0815 -0.4391
17607TIP3    H274237   2.400   4.741   1.352  0.2912 -1.4661 -2.1390
17608TIP3   OH274238   4.505   5.918   1.992 -0.4261  0.1072 -0.3788
17608TIP3    H174239   4.505   5.848   1.926  1.2327  0.3257 -0.6455
17608TIP3    H274240   4.575   5.976   1.965 -0.4745  0.8199  0.9644
17609TIP3   OH274241   6.358   0.665  17.117 -0.1836  0.2571  0.3776
17609TIP3    H174242   6.268   0.696  17.109 -0.3978 -0.5187 -0.3471
17609TIP3    H274243   6.408   0.721  17.056 -0.2548  0.3866  0.4382
17610TIP3   OH274244   2.989   1.808   4.863  0.3950 -0.0702  0.1830
17610TIP3    H174245   3.045   1.765   4.797 -0.5697  1.3466 -1.6465
17610TIP3    H274246   3.049   1.830   4.934  2.1028  0.9152 -1.4821
17611TIP3   OH274247   2.356   3.596  15.391 -0.8840  0.3749  0.3372
17611TIP3    H174248   2.449   3.618  15.381 -0.7917  0.4979  1.3827
17611TIP3    H274249   2.319   3.611  15.304  0.1110  0.1266 -0.1487
17612TIP3   OH274250   4.558   1.675   2.423 -0.2919 -0.3910  0.0137
17612TIP3    H174251   4.542   1.674   2.517 -1.0271  0.9800 -0.0778
17612TIP3    H274252   4.619   1.602   2.408 -0.1299 -0.5900  1.5450
17613TIP3   OH274253   3.328   3.266   1.848 -0.0204  0.7024 -0.4238
17613TIP3    H174254   3.391   3.213   1.800 -1.2363 -1.9296  0.6908
17613TIP3    H274255   3.244   3.220   1.837 -1.4193  3.0805 -0.3702
17614TIP3   OH274256   0.238   1.551  11.980 -0.2003  0.2767  0.6214
17614TIP3    H174257   0.219   1.461  11.950 -2.3959  0.8827  0.0065
17614TIP3    H274258   0.290   1.589  11.908  0.6484 -0.4469  0.8360
17615TIP3   OH274259   4.746   2.549   3.400  0.3064  0.4591  0.1395
17615TIP3    H174260   4.838   2.526   3.416  0.1296 -1.2036 -0.9671
17615TIP3    H274261   4.751   2.625   3.342  0.9798  0.5000  0.2329
17616TIP3   OH274262   0.654   0.143   2.488  1.0341 -0.1111  0.2047
17616TIP3    H174263   0.565   0.108   2.492  1.5274 -1.3135  1.2617
17616TIP3    H274264   0.685   0.119   2.401 -1.0152  3.8899 -1.8781
17617TIP3   OH274265   4.110   5.747  14.285 -0.2702  0.4264  0.0208
17617TIP3    H174266   4.028   5.712  14.250  0.8808 -0.6661 -1.7638
17617TIP3    H274267   4.125   5.698  14.366 -0.7633 -0.2495 -0.2922
17618TIP3   OH274268   6.369   1.276  13.878 -0.1029  0.1750  0.5240
17618TIP3    H174269   6.300   1.330  13.916  1.2661  1.6702  1.0004
17618TIP3    H274270   6.405   1.228  13.953  0.9795  1.2750  0.7340
17619TIP3   OH274271   1.877   3.085   5.402 -0.4020  0.2655 -0.1004
17619TIP3    H174272   1.876   3.041   5.317 -2.6612  0.8859 -0.4644
17619TIP3    H274273   1.884   3.178   5.380 -2.0214  0.5046  0.2951
17620TIP3   OH274274   4.537   6.076   2.535 -0.2278  0.6417  0.2723
17620TIP3    H174275   4.557   6.167   2.513 -1.4988  1.2108  1.3003
17620TIP3    H274276   4.538   6.030   2.451  2.9939  1.0094 -0.0173
17621TIP3   OH274277   1.179   2.203   2.599 -0.4279  0.3849 -0.4238
17621TIP3    H174278   1.264   2.203   2.556 -0.2100 -1.0556 -0.0279
17621TIP3    H274279   1.184   2.274   2.662  0.5660  0.1720 -0.2534
17622TIP3   OH274280   3.928   2.788   1.985  0.2123 -0.4888  0.3927
17622TIP3    H174281   3.867   2.787   1.911 -0.4011 -0.6164  0.8975
17622TIP3    H274282   3.983   2.711   1.972  1.0426  0.2567 -0.6961
17623TIP3   OH274283   3.929   6.318   6.205  0.0225 -0.3397 -0.8558
17623TIP3    H174284   3.916   6.397   6.153  1.3478  2.1604  2.2690
17623TIP3    H274285   3.853   6.314   6.263  0.0330 -1.2862 -0.8945
17624TIP3   OH274286   1.926   1.118   1.067  0.1030 -1.0727  0.9014
17624TIP3    H174287   2.000   1.103   1.008  0.4063  0.4529  0.8434
17624TIP3    H274288   1.958   1.093   1.153  2.5865  3.9847  1.8437
17625TIP3   OH274289   2.934   0.883   2.919  0.5250 -0.1399 -0.3785
17625TIP3    H174290   2.930   0.976   2.898  0.6256 -0.3294 -1.2593
17625TIP3    H274291   2.952   0.840   2.836 -2.1643 -1.1804 -0.5372
17626TIP3   OH274292   0.411   3.326  16.950  0.2028  0.1868 -0.1074
17626TIP3    H174293   0.404   3.309  16.856 -0.7700 -2.0855  0.3128
17626TIP3    H274294   0.321   3.325  16.982  0.6367 -1.6712  1.2051
17627TIP3   OH274295   5.436   2.012  14.644 -0.5680  0.3545  0.2123
17627TIP3    H174296   5.429   2.107  14.654 -1.3756  0.1650  1.6973
17627TIP3    H274297   5.360   1.977  14.692  0.5719 -1.1059  1.0320
17628TIP3   OH274298   3.737   1.151  11.954 -0.4732 -0.2858 -0.2099
17628TIP3    H174299   3.688   1.119  12.029 -0.8124 -1.4062 -0.8872
17628TIP3    H274300   3.818   1.099  11.954  0.4148  1.0380  0.4763
17629TIP3   OH274301   4.344   0.452  15.526 -0.3385  0.3052  0.1451
17629TIP3    H174302   4.257   0.467  15.564  0.1653  1.2142  0.9773
17629TIP3    H274303   4.392   0.533  15.543  0.6500 -0.1518 -0.3900
17630TIP3   OH274304   0.570   2.926   3.726  0.1723  0.8469 -0.4264
17630TIP3    H174305   0.569   2.987   3.800 -1.0648  1.0515 -0.5932
17630TIP3    H274306   0.501   2.958   3.668 -0.4389 -0.6488 -0.5665
17631TIP3   OH274307   3.473   4.954  13.529 -0.2208 -0.3486  0.2425
17631TIP3    H174308   3.456   5.047  13.540 -0.5995 -0.2990 -0.6819
17631TIP3    H274309   3.452   4.915  13.614 -1.0226  0.2724  0.3301
17632TIP3   OH274310   4.111   6.010  15.108  0.2999  0.0991  0.0964
17632TIP3    H174311   4.180   6.012  15.175 -0.1651  0.8248  0.5644
17632TIP3    H274312   4.093   6.102  15.090  0.8012 -0.0806 -1.4417
17633TIP3   OH274313   3.528   1.580  14.014 -0.7354  0.1829 -0.1701
17633TIP3    H174314   3.585   1.654  13.997  0.0047 -0.3922 -0.2399
17633TIP3    H274315   3.520   1.576  14.109  1.5740 -1.3393  0.0504
17634TIP3   OH274316   6.124   2.285   1.857 -0.8519 -0.0260 -0.0474
17634TIP3    H174317   6.188   2.282   1.786 -1.3988  0.9435 -0.5993
17634TIP3    H274318   6.158   2.351   1.918  0.1933 -1.6374  1.2013
17635TIP3   OH274319   5.689   5.284   0.271 -0.3891  0.0947  0.4179
17635TIP3    H174320   5.613   5.303   0.217 -0.2043  1.4031  0.5836
17635TIP3    H274321   5.678   5.338   0.349 -1.0920 -2.3765  2.1794
17636TIP3   OH274322   1.831   6.415  11.660  0.1470  0.8372 -0.4764
17636TIP3    H174323   1.852   6.345  11.722 -1.5363  1.2188  0.5914
17636TIP3    H274324   1.784   6.480  11.711 -0.1171  1.8161 -1.8843
17637TIP3   OH274325   4.913   4.542  11.732  0.0590 -0.4744  0.0870
17637TIP3    H174326   4.912   4.637  11.729  0.6630 -0.4826 -0.6308
17637TIP3    H274327   4.967   4.516  11.657  0.1710 -1.3672  0.4647
17638TIP3   OH274328   3.830   0.318  14.103  0.0486 -0.1675  0.3586
17638TIP3    H174329   3.780   0.278  14.032 -1.8304  0.6874  1.1256
17638TIP3    H274330   3.792   0.281  14.183  0.3930  0.7701  0.9821
17639TIP3   OH274331   1.440   4.945   4.701 -0.5316 -0.3920  0.4163
17639TIP3    H174332   1.389   4.865   4.689 -0.7542 -0.3395  0.9748
17639TIP3    H274333   1.402   4.987   4.778 -0.9670  0.6962 -0.3762
17640TIP3   OH274334   2.317   5.723  13.218 -0.0647  0.6082 -0.2862
17640TIP3    H174335   2.375   5.794  13.244  0.5948 -0.4210  1.1950
17640TIP3    H274336   2.252   5.719  13.289 -1.1131  0.8038 -1.2000
17641TIP3   OH274337   4.675   0.219  11.694 -0.0389  0.7991  0.6015
17641TIP3    H174338   4.679   0.216  11.599 -0.7654 -1.1482  0.5797
17641TIP3    H274339   4.758   0.259  11.721 -0.1597  2.0929 -0.8453
17642TIP3   OH274340   0.587   4.332   6.066 -0.3101 -0.4133 -0.4188
17642TIP3    H174341   0.638   4.270   6.016 -1.5646 -0.9587 -1.0667
17642TIP3    H274342   0.523   4.279   6.113 -1.1743  0.3422 -0.7021
17643TIP3   OH274343   6.655   0.885   1.838  0.3074  0.2528 -0.0545
17643TIP3    H174344   6.618   0.801   1.864  0.7117 -0.4920 -1.7370
17643TIP3    H274345   6.627   0.896   1.747 -0.1227  2.1742  0.2810
17644TIP3   OH274346   6.320   2.686   4.068 -0.4947 -0.0990  0.0286
17644TIP3    H174347   6.353   2.656   3.983  1.8841  2.1969  0.0065
17644TIP3    H274348   6.386   2.657   4.130 -0.9032  0.4363  0.7188
17645TIP3   OH274349   5.501   0.984  16.842  0.2305 -0.1574  0.2506
17645TIP3    H174350   5.469   1.024  16.923  3.1998  1.1839  0.9218
17645TIP3    H274351   5.495   1.054  16.777  1.3334  0.0184  0.3149
17646TIP3   OH274352   4.358   2.089  11.770  0.3180  0.3431  0.5412
17646TIP3    H174353   4.327   2.179  11.775 -0.7285 -0.0898  2.2340
17646TIP3    H274354   4.337   2.062  11.680 -1.6683  0.9762  0.7668
17647TIP3   OH274355   4.358   1.983   5.480 -0.0285  0.1745 -0.0339
17647TIP3    H174356   4.304   1.958   5.404  0.8567 -0.1204 -0.5805
17647TIP3    H274357   4.393   1.900   5.513  2.5906  0.5510 -1.5987
17648TIP3   OH274358   1.286   1.321   4.962  0.3487  0.3322 -0.5477
17648TIP3    H174359   1.371   1.360   4.979  0.3340 -0.1157  0.6289
17648TIP3    H274360   1.227   1.396   4.948  0.6830  0.6735 -0.1376
17649TIP3   OH274361   3.893   5.319   1.991  0.2047  0.3010 -0.2886
17649TIP3    H174362   3.884   5.293   1.899 -0.6179  2.0371 -0.7520
17649TIP3    H274363   3.987   5.329   2.004  0.3210  0.2368 -1.0138
17650TIP3   OH274364   1.561   3.869  11.695 -0.2519 -0.2549 -0.3125
17650TIP3    H174365   1.526   3.829  11.774  1.3279 -2.2186 -0.5050
17650TIP3    H274366   1.655   3.849  11.698  0.3137  1.9802 -1.3575
17651TIP3   OH274367   6.719   4.995  13.841  0.3556 -0.0193  0.6379
17651TIP3    H174368   6.664   4.917  13.849  0.1663  0.0103 -0.2619
17651TIP3    H274369   6.691   5.036  13.759 -0.0240  1.3746  1.4282
17652TIP3   OH274370   6.344   1.180   3.485 -0.5466  0.3407 -0.0979
17652TIP3    H174371   6.356   1.271   3.512  1.1970 -0.0619  0.6251
17652TIP3    H274372   6.402   1.170   3.410 -0.2219 -0.3459  0.2412
17653TIP3   OH274373   2.201   1.597  10.996 -0.0248 -0.4219  0.4193
17653TIP3    H174374   2.213   1.515  11.045  1.2978 -0.5114 -0.0329
17653TIP3    H274375   2.246   1.582  10.913 -1.0251  0.2476 -0.2649
17654TIP3   OH274376   0.552   3.678   0.215 -0.1826 -0.3530  0.1097
17654TIP3    H174377   0.646   3.674   0.234 -0.4030  1.4726  2.0032
17654TIP3    H274378   0.519   3.592   0.238  0.9739 -0.9257 -0.3006
17655TIP3   OH274379   2.394   3.506   4.873  0.1930  0.2670  0.1197
17655TIP3    H174380   2.403   3.521   4.967  0.8449  2.4014 -0.2341
17655TIP3    H274381   2.300   3.507   4.857  0.1152  0.9059  0.6047
17656TIP3   OH274382   2.771   6.510  11.542  0.5698 -0.1027 -0.0683
17656TIP3    H174383   2.859   6.485  11.513  1.2042  0.8876  0.9096
17656TIP3    H274384   2.769   6.490  11.635 -0.7682 -1.4357 -0.3411
17657TIP3   OH274385   4.810   3.348   6.237  0.1677 -0.0279  0.0431
17657TIP3    H174386   4.902   3.354   6.263  0.2629 -0.3083 -0.2269
17657TIP3    H274387   4.766   3.306   6.311 -0.2350  2.4638  1.3177
17658TIP3   OH274388   6.569   2.360  13.036  1.1124  0.4836 -0.2467
17658TIP3    H174389   6.552   2.346  12.943  1.0400 -0.8472 -0.0583
17658TIP3    H274390   6.615   2.281  13.064 -0.1436  0.1899  1.1490
17659TIP3   OH274391   3.577   5.656   2.438 -0.0897 -0.6359 -0.5652
17659TIP3    H174392   3.579   5.736   2.491 -1.9075 -0.6136 -0.4702
17659TIP3    H274393   3.594   5.585   2.499  1.3689 -0.3657 -0.6191
17660TIP3   OH274394   5.984   0.145   2.614  0.0108 -0.0664  0.0410
17660TIP3    H174395   5.943   0.081   2.556 -0.9430 -0.7866  1.4367
17660TIP3    H274396   6.044   0.194   2.558 -0.0145 -1.4847 -1.2941
17661TIP3   OH274397   1.495   5.601   5.641 -0.2121  0.1767  0.1919
17661TIP3    H174398   1.545   5.563   5.713 -0.1267 -0.9927 -0.4728
17661TIP3    H274399   1.407   5.613   5.676 -0.2255 -0.5927  0.4245
17662TIP3   OH274400   6.692   6.200   1.081 -0.4869 -0.3734  0.1093
17662TIP3    H174401   6.744   6.150   1.018 -2.3215  1.0295 -2.6972
17662TIP3    H274402   6.747   6.275   1.104 -0.0335 -0.5860 -0.2697
17663TIP3   OH274403   3.717   6.661   3.413 -0.3648  0.2285  0.0485
17663TIP3    H174404   3.648   6.629   3.471 -0.2166  0.0441  0.1246
17663TIP3    H274405   3.676   6.730   3.362 -1.1997 -1.2563 -1.3826
17664TIP3   OH274406   0.529   5.833   2.745 -0.3212  0.2738  0.4312
17664TIP3    H174407   0.611   5.801   2.709 -0.1782 -1.3230  2.0345
17664TIP3    H274408   0.554   5.902   2.806 -0.2169  0.1909  0.4812
17665TIP3   OH274409   0.927   3.574   1.951  0.2130  0.0454  0.2084
17665TIP3    H174410   0.868   3.638   1.990 -1.5848 -1.8162  0.7243
17665TIP3    H274411   0.937   3.506   2.018 -1.2983 -2.2168 -1.7014
17666TIP3   OH274412   1.377   0.404  13.072  0.1126 -0.0326 -0.2006
17666TIP3    H174413   1.347   0.328  13.023  1.6142 -1.3967  0.9055
17666TIP3    H274414   1.348   0.479  13.020 -2.3844 -1.2744 -0.7707
17667TIP3   OH274415   3.351   6.483  13.003 -0.6046 -0.2627  0.4556
17667TIP3    H174416   3.341   6.397  12.962  1.8687 -0.4517  0.1036
17667TIP3    H274417   3.407   6.532  12.943 -1.0954  1.2483  1.1760
17668TIP3   OH274418   3.287   6.212   6.508 -0.0667  0.1802 -0.7579
17668TIP3    H174419   3.211   6.270   6.500  0.3376  0.7736 -0.3613
17668TIP3    H274420   3.312   6.218   6.600 -1.4491 -2.4653 -0.1308
17669TIP3   OH274421   5.817   5.085   5.697  0.0080 -0.1445 -0.5917
17669TIP3    H174422   5.763   5.133   5.760 -1.7510  0.9674 -2.8128
17669TIP3    H274423   5.895   5.139   5.687 -0.6220  0.7307 -0.8609
17670TIP3   OH274424   1.663   1.155  16.691  0.6563  0.7126  0.3817
17670TIP3    H174425   1.690   1.137  16.781 -0.2870 -2.1354  0.1825
17670TIP3    H274426   1.573   1.186  16.699  1.0110  1.7538  0.4754
17671TIP3   OH274427   6.312   6.667  17.080 -0.4956  0.3313  0.5575
17671TIP3    H174428   6.366   6.686  17.003  1.3466 -2.8172  0.9343
17671TIP3    H274429   6.246   6.605  17.049  0.8117 -1.6702  1.5955
17672TIP3   OH274430   6.001   5.180  10.937 -0.8925  0.3053 -0.2427
17672TIP3    H174431   5.911   5.190  10.907 -1.6774 -0.4762  1.6203
17672TIP3    H274432   6.006   5.232  11.017  0.4229  0.6004 -0.4853
17673TIP3   OH274433   2.017   1.766   2.420  0.2029 -0.7138  0.0057
17673TIP3    H174434   1.935   1.717   2.417  1.0781 -2.2413  0.4415
17673TIP3    H274435   2.055   1.755   2.333 -0.8333  1.4831 -0.8173
17674TIP3   OH274436   0.288   2.483  16.264  0.0782  0.5096  0.2468
17674TIP3    H174437   0.297   2.513  16.173 -1.5013  0.3851  0.0274
17674TIP3    H274438   0.320   2.392  16.261 -1.6941 -0.1321 -0.6216
17675TIP3   OH274439   0.773   5.975  11.355 -0.0829  0.4805  0.7436
17675TIP3    H174440   0.765   5.953  11.263 -0.6057  0.8834  0.6918
17675TIP3    H274441   0.830   6.052  11.356  0.8902 -0.2156  0.8513
17676TIP3   OH274442   0.030   5.077  16.296  0.0648 -0.1100  0.0221
17676TIP3    H174443  -0.057   5.086  16.334  0.1912 -0.0457  0.2985
17676TIP3    H274444   0.015   5.081  16.201 -0.2159  0.0545  0.0710
17677TIP3   OH274445   2.739   2.759   0.737 -0.2802  0.3143  0.1998
17677TIP3    H174446   2.647   2.750   0.759 -0.3407 -0.6455 -0.3678
17677TIP3    H274447   2.785   2.702   0.799  0.2096  2.6656  2.1194
17678TIP3   OH274448   4.447   1.408   2.843 -0.8788  0.4688  0.0152
17678TIP3    H174449   4.381   1.431   2.909 -0.8445 -1.9832  1.0460
17678TIP3    H274450   4.511   1.356   2.891 -0.5987 -1.0059 -1.8368
17679TIP3   OH274451   5.031   4.098   3.788 -0.0633 -0.3899 -0.1561
17679TIP3    H174452   5.034   4.007   3.817  0.2964 -0.5198 -0.5799
17679TIP3    H274453   4.940   4.112   3.762 -0.1691 -0.5607  0.1236
17680TIP3   OH274454   4.752   6.613  16.671 -0.6436  0.1167  0.2905
17680TIP3    H174455   4.719   6.529  16.703 -1.6276 -0.0520 -1.0941
17680TIP3    H274456   4.837   6.622  16.714 -0.8382 -1.2285  1.0386
17681TIP3   OH274457   6.137   5.805  13.006  0.4138 -0.4889  0.2842
17681TIP3    H174458   6.224   5.841  12.986  0.1614  0.4847  0.8235
17681TIP3    H274459   6.077   5.857  12.953  0.0914 -0.6036  0.5349
17682TIP3   OH274460   3.980   2.320   0.787  0.4936 -0.2393 -0.3042
17682TIP3    H174461   3.949   2.390   0.845  0.6201 -0.3197 -0.1386
17682TIP3    H274462   3.925   2.245   0.807 -0.4056  0.1331 -1.2876
17683TIP3   OH274463   0.754   1.957   1.949 -0.0931  0.1420 -0.2107
17683TIP3    H174464   0.675   1.962   1.895 -0.4555 -0.9797  0.1756
17683TIP3    H274465   0.826   1.956   1.886 -0.3389  1.6800 -0.5496
17684TIP3   OH274466   1.326   4.665  12.143  0.6264  0.0830  0.2983
17684TIP3    H174467   1.287   4.693  12.060  0.7568 -0.1707  0.1524
17684TIP3    H274468   1.251   4.650  12.201  0.5703  2.4544  0.9506
17685TIP3   OH274469   6.400   3.945  13.302 -0.6221 -0.7387 -0.1753
17685TIP3    H174470   6.446   3.882  13.247  0.2841 -0.2365 -0.0121
17685TIP3    H274471   6.334   3.984  13.245  0.3797 -0.1417 -0.9575
17686TIP3   OH274472   2.632   4.003   1.243 -0.1759  0.4017 -0.0649
17686TIP3    H174473   2.548   4.012   1.197 -0.0186  2.7889 -0.0151
17686TIP3    H274474   2.697   3.990   1.174 -0.5363 -1.7216 -0.0917
17687TIP3   OH274475   5.757   6.371  13.942 -0.3021  0.0070 -0.0775
17687TIP3    H174476   5.695   6.445  13.938  0.4748  0.8498  1.9349
17687TIP3    H274477   5.706   6.300  13.980 -0.0631  0.7610  1.7726
17688TIP3   OH274478   5.276   1.812   1.232 -0.3417  0.1598  0.1993
17688TIP3    H174479   5.248   1.772   1.314  0.3320  0.1771  0.4485
17688TIP3    H274480   5.206   1.872   1.209 -0.7446 -0.1794  0.5242
17689TIP3   OH274481   5.599   6.055  14.865 -0.1458  0.2652 -0.1143
17689TIP3    H174482   5.531   6.108  14.906 -0.2213 -0.4218  0.6633
17689TIP3    H274483   5.552   5.995  14.807 -0.1594  0.1401  0.0274
17690TIP3   OH274484   4.049   5.628   2.868 -0.7197  0.4907  0.0206
17690TIP3    H174485   4.106   5.679   2.811  0.6625 -1.9501 -0.9393
17690TIP3    H274486   4.105   5.603   2.942 -0.8937 -0.8016 -0.2548
17691TIP3   OH274487   0.182   2.009  10.909 -0.6791  0.2210  0.2083
17691TIP3    H174488   0.172   1.927  10.862  1.0285 -0.0122  0.1668
17691TIP3    H274489   0.240   2.061  10.853  0.6210  0.3045  1.5636
17692TIP3   OH274490   3.948   6.450   1.160 -0.4216  0.0126 -0.2421
17692TIP3    H174491   4.031   6.460   1.207 -0.4564  2.0173 -0.5175
17692TIP3    H274492   3.882   6.458   1.228 -0.4309 -1.3385 -0.0599
17693TIP3   OH274493   6.591   2.576   6.026  0.8288  0.0903  0.5047
17693TIP3    H174494   6.683   2.589   6.049  0.1997  0.2483  3.3193
17693TIP3    H274495   6.574   2.484   6.046  0.7871 -0.4685 -1.8621
17694TIP3   OH274496   0.649   0.270   3.095 -0.3842 -0.2541  0.1901
17694TIP3    H174497   0.713   0.308   3.154  1.9862 -0.8685 -1.8118
17694TIP3    H274498   0.676   0.179   3.084 -2.8477 -1.1480  0.8309
17695TIP3   OH274499   1.470   0.718  13.329  0.3577 -0.4484  0.0136
17695TIP3    H174500   1.561   0.738  13.350 -0.0401 -1.6824  3.3880
17695TIP3    H274501   1.437   0.798  13.287  2.1953  1.1162  1.4102
17696TIP3   OH274502   1.786   0.358  12.625  0.2335 -0.2051 -0.1133
17696TIP3    H174503   1.710   0.372  12.682 -0.8567  0.0505 -1.5471
17696TIP3    H274504   1.855   0.411  12.663 -1.2631  2.1885 -0.5020
17697TIP3   OH274505   6.484   1.427   1.085  0.7205  0.7437  0.2471
17697TIP3    H174506   6.433   1.493   1.132 -0.6942 -0.3551  0.3543
17697TIP3    H274507   6.544   1.392   1.151 -0.9860 -0.5156  1.2238
17698TIP3   OH274508   4.944   5.950  12.871 -0.0913  0.6318 -0.3764
17698TIP3    H174509   4.931   5.995  12.954 -1.1337 -0.5093  0.1012
17698TIP3    H274510   4.881   5.992  12.812 -0.2665  0.5572 -0.2415
17699TIP3   OH274511   6.736   1.709   5.220 -0.4132 -0.2587 -0.0248
17699TIP3    H174512   6.804   1.766   5.255  0.3200  1.1147 -3.3394
17699TIP3    H274513   6.777   1.622   5.217  0.2439  0.0248  0.4284
17700TIP3   OH274514   4.005   4.968  13.276 -0.1250  0.3098 -0.2374
17700TIP3    H174515   3.949   4.905  13.322  0.1315  0.3248  0.1000
17700TIP3    H274516   4.058   5.007  13.345 -1.2616  1.9266 -0.2211
17701TIP3   OH274517   4.143   6.038  12.859 -0.6790  0.2700 -0.4975
17701TIP3    H174518   4.127   6.044  12.953 -0.8735  1.1784 -0.5818
17701TIP3    H274519   4.233   6.068  12.848 -0.3887 -0.5831 -0.5229
17702TIP3   OH274520   3.872   4.109   2.850 -0.1549 -0.0521 -0.6614
17702TIP3    H174521   3.927   4.179   2.885 -2.6940  1.5202  0.5188
17702TIP3    H274522   3.906   4.029   2.890 -0.2397  1.1678  2.0665
17703TIP3   OH274523   0.021   1.315   2.170 -0.2072  0.1159 -0.1461
17703TIP3    H174524   0.072   1.249   2.123 -0.1803  0.7332 -1.0182
17703TIP3    H274525   0.039   1.397   2.123 -1.3205  0.4955  0.0593
17704TIP3   OH274526   3.498   1.528  12.156 -0.2485 -0.2158  0.4279
17704TIP3    H174527   3.561   1.596  12.131 -1.7272  2.1536  2.6273
17704TIP3    H274528   3.492   1.535  12.251 -1.4138 -2.6317  0.5975
17705TIP3   OH274529   0.593   3.552  17.109  0.3972 -0.4153  0.4059
17705TIP3    H174530   0.557   3.506  17.034  1.7692 -0.5715 -0.1916
17705TIP3    H274531   0.527   3.544  17.177 -1.5792  1.0393 -1.2251
17706TIP3   OH274532   0.836   3.169   3.730  0.3956  0.0076 -1.0410
17706TIP3    H174533   0.838   3.159   3.634  0.7902  0.9920 -1.1482
17706TIP3    H274534   0.923   3.202   3.752  1.1353 -2.3973 -0.0486
17707TIP3   OH274535   4.826   6.386  15.893 -0.4579  0.1087  0.3930
17707TIP3    H174536   4.910   6.341  15.898  1.0049  2.5353 -0.1242
17707TIP3    H274537   4.796   6.370  15.803  0.0640  0.1757  0.2001
17708TIP3   OH274538   0.820   3.599  13.662  0.1904  0.0640 -0.0424
17708TIP3    H174539   0.853   3.511  13.644 -0.4024  0.0775 -1.2794
17708TIP3    H274540   0.887   3.657  13.626  0.8647  0.1489  1.2917
17709TIP3   OH274541   5.163   5.607  13.463  0.4047 -0.0504  0.3997
17709TIP3    H174542   5.139   5.516  13.481  0.7586 -0.2215  0.0302
17709TIP3    H274543   5.135   5.656  13.540 -0.7225 -0.3125  0.1630
17710TIP3   OH274544   2.260   1.127   1.791 -0.2392  0.2159  0.0755
17710TIP3    H174545   2.228   1.210   1.756 -0.2523  0.6311  1.0488
17710TIP3    H274546   2.255   1.067   1.717 -1.9501  0.6255 -0.1836
17711TIP3   OH274547   6.784   5.475   5.777  0.0791  0.0156 -0.4677
17711TIP3    H174548   6.868   5.474   5.822  0.6944 -0.8269 -1.5891
17711TIP3    H274549   6.754   5.566   5.784  0.3670  0.0044  1.1988
17712TIP3   OH274550   0.699   5.655   5.513 -0.8209  0.6045 -0.2203
17712TIP3    H174551   0.746   5.619   5.588  0.2734 -0.1182 -1.2229
17712TIP3    H274552   0.718   5.749   5.516  0.0083  0.4400 -0.1374
17713TIP3   OH274553   3.355   5.102   5.352 -0.1008  0.2974 -0.7111
17713TIP3    H174554   3.409   5.023   5.358 -0.0253  0.4572  1.6509
17713TIP3    H274555   3.358   5.139   5.440 -1.6559  1.9414 -1.3023
17714TIP3   OH274556   6.709   3.546   1.096  0.2793  0.0895 -0.2301
17714TIP3    H174557   6.617   3.571   1.083  0.3767  0.4781 -0.1935
17714TIP3    H274558   6.751   3.627   1.125  0.4824 -0.2682  0.4808
17715TIP3   OH274559   5.101   3.687  11.039 -0.0810 -0.5453  0.8180
17715TIP3    H174560   5.123   3.608  11.088  1.9763  0.2149  1.2356
17715TIP3    H274561   5.146   3.676  10.955 -0.6830 -0.2886  0.4601
17716TIP3   OH274562   1.905   0.931  14.039  1.2085 -0.4293  0.2416
17716TIP3    H174563   1.856   0.917  13.958 -1.0695 -0.1284  1.4814
17716TIP3    H274564   1.893   0.850  14.088 -1.7322  1.1078  2.3259
17717TIP3   OH274565   0.581   5.434  17.125 -0.2526  0.0895  0.7527
17717TIP3    H174566   0.665   5.395  17.101  0.0773  1.6389 -0.8097
17717TIP3    H274567   0.517   5.368  17.098  0.4260 -1.3116  2.3801
17718TIP3   OH274568   0.438   1.453  16.643  0.6452 -0.3428 -0.4753
17718TIP3    H174569   0.350   1.482  16.620  1.1698  0.3397 -1.6709
17718TIP3    H274570   0.424   1.378  16.701 -0.7128 -0.0068 -0.3354
17719TIP3   OH274571   1.248   1.019   4.074 -0.5771 -0.0290  0.5172
17719TIP3    H174572   1.246   0.962   3.997  0.5690  1.9533 -1.0578
17719TIP3    H274573   1.164   1.063   4.074 -0.8711 -0.5722  0.8681
17720TIP3   OH274574   1.635   5.497   3.965 -0.2232 -0.1713  0.2146
17720TIP3    H174575   1.616   5.404   3.956 -0.1432 -0.3018  1.2719
17720TIP3    H274576   1.666   5.524   3.879  0.8123 -1.3775  0.1781
17721TIP3   OH274577   0.279   1.615  15.702  0.1478  0.7632 -0.2341
17721TIP3    H174578   0.279   1.550  15.773 -3.0132  2.6869  1.7878
17721TIP3    H274579   0.244   1.569  15.627  2.4883 -1.0358 -0.3312
17722TIP3   OH274580   3.150   6.418   1.186 -0.1891 -0.3976  0.1551
17722TIP3    H174581   3.214   6.367   1.236 -0.3098  0.2250  0.9604
17722TIP3    H274582   3.113   6.479   1.249 -0.5896  0.1812 -0.6222
17723TIP3   OH274583   3.114   3.125  13.710  0.1357 -0.1397  0.0862
17723TIP3    H174584   3.135   3.117  13.803 -0.8249 -1.0723  0.2410
17723TIP3    H274585   3.055   3.200  13.705 -1.5725 -1.3644  0.5904
17724TIP3   OH274586   1.524   0.524   5.622  0.1188  0.1050  0.0609
17724TIP3    H174587   1.433   0.548   5.638  0.1318  0.7488 -0.7419
17724TIP3    H274588   1.568   0.607   5.607  1.0934 -0.1100  1.5752
17725TIP3   OH274589   4.167   0.027   3.389 -0.2505 -0.0063 -0.0077
17725TIP3    H174590   4.195  -0.014   3.307 -1.6086 -1.1338  0.0375
17725TIP3    H274591   4.246   0.033   3.442  0.4484 -0.2318 -0.9937
17726TIP3   OH274592   2.799   0.621   6.022  0.2477  0.4928  0.4852
17726TIP3    H174593   2.818   0.534   5.987  1.0356  0.4748  0.9567
17726TIP3    H274594   2.723   0.607   6.079  0.5050  0.0684  0.7341
17727TIP3   OH274595   3.976   1.567  16.110  0.2113  0.5506  0.0603
17727TIP3    H174596   3.895   1.588  16.065 -0.4617  0.8129  1.3494
17727TIP3    H274597   3.979   1.471  16.112 -0.5354  0.5362  0.8042
17728TIP3   OH274598   5.490   2.488   1.224  0.6052 -0.3598 -0.0997
17728TIP3    H174599   5.512   2.576   1.256 -0.9985 -0.7785  2.4373
17728TIP3    H274600   5.548   2.430   1.273  1.8647 -0.8047 -1.9802
17729TIP3   OH274601   4.031   3.966   2.483  0.4649  0.6313  0.6443
17729TIP3    H174602   4.095   4.035   2.468 -0.6834  1.2179 -2.1275
17729TIP3    H274603   4.029   3.916   2.401 -0.3693 -1.3344  1.7768
17730TIP3   OH274604   1.062   5.942  16.987  0.5059  0.0847 -0.0298
17730TIP3    H174605   1.116   5.976  17.059  0.8141  1.3192 -0.8110
17730TIP3    H274606   1.105   5.860  16.963  1.3233  0.4377  0.1675
17731TIP3   OH274607   4.784   6.511   5.596  0.0724  0.4268  0.0330
17731TIP3    H174608   4.689   6.517   5.602  0.2318  2.6086  1.9781
17731TIP3    H274609   4.804   6.419   5.609 -1.7482  0.0824  0.5889
17732TIP3   OH274610   4.469   3.392   3.209  0.1203  0.0416  0.0633
17732TIP3    H174611   4.513   3.475   3.189 -1.0001  0.4481 -0.7817
17732TIP3    H274612   4.533   3.325   3.184  1.1321  0.6228  0.9787
17733TIP3   OH274613   3.643   4.938  16.307 -0.2531 -0.5034  0.3137
17733TIP3    H174614   3.675   5.026  16.287 -1.9131  0.5760  2.0261
17733TIP3    H274615   3.693   4.880  16.250  0.9424  1.5396 -0.8137
17734TIP3   OH274616   1.275   0.054  14.098 -0.0645  0.3009  0.2263
17734TIP3    H174617   1.353   0.033  14.047 -1.0228 -1.0673 -0.7604
17734TIP3    H274618   1.283   0.001  14.178 -0.7636 -1.1953 -0.6517
17735TIP3   OH274619   2.742   2.099   3.570 -0.4154  0.1768 -0.7901
17735TIP3    H174620   2.727   2.194   3.574 -2.8059 -0.1712  0.5713
17735TIP3    H274621   2.654   2.061   3.567  0.3584 -2.0391  1.2112
17736TIP3   OH274622   6.460   4.227  16.052  0.3188  0.0693  0.1201
17736TIP3    H174623   6.380   4.177  16.072  1.2623 -1.6609 -0.2628
17736TIP3    H274624   6.435   4.318  16.069 -0.8235 -0.6680  3.0699
17737TIP3   OH274625   5.468   3.662   0.251 -0.4790  0.0328 -0.0238
17737TIP3    H174626   5.557   3.658   0.214  0.1630  0.2633  1.4336
17737TIP3    H274627   5.414   3.694   0.178  0.7530  0.6145 -0.7322
17738TIP3   OH274628   5.812   1.668   1.167 -0.0232  0.0674  0.4318
17738TIP3    H174629   5.808   1.660   1.262  0.3722 -0.5843  0.4058
17738TIP3    H274630   5.824   1.761   1.150 -0.2081  0.1965  1.0169
17739TIP3   OH274631   5.935   2.980  15.598  0.2303 -0.4533  0.6150
17739TIP3    H174632   5.956   2.908  15.657  1.1958  0.2676  1.1833
17739TIP3    H274633   5.990   3.053  15.628  1.0397 -0.1765 -1.3825
17740TIP3   OH274634   0.492   5.555   6.317 -0.2947 -0.0951 -0.2439
17740TIP3    H174635   0.512   5.630   6.261 -1.3298 -0.6740 -1.4416
17740TIP3    H274636   0.568   5.498   6.310 -0.1773  0.1069 -0.5988
17741TIP3   OH274637   5.972   6.377   5.498 -0.1052  0.6028  0.0809
17741TIP3    H174638   5.938   6.320   5.567 -0.4135  1.7344  0.8980
17741TIP3    H274639   6.067   6.376   5.510 -0.1878  1.2206  0.8959
17742TIP3   OH274640   2.106   4.063   4.566 -0.1668 -0.0268 -0.7720
17742TIP3    H174641   2.061   4.063   4.481  0.2593  1.1792 -1.0197
17742TIP3    H274642   2.186   4.113   4.550 -0.1336  0.3050  0.3762
17743TIP3   OH274643   4.762   3.230  15.712 -0.0514  0.6180 -0.1154
17743TIP3    H174644   4.844   3.247  15.667  0.1388  0.5050  0.1824
17743TIP3    H274645   4.727   3.316  15.734 -0.2295  0.6771 -0.6254
17744TIP3   OH274646   4.128   0.692  15.012 -0.4752 -0.2891  0.5349
17744TIP3    H174647   4.040   0.712  15.046 -0.9503  0.0503 -0.8142
17744TIP3    H274648   4.139   0.599  15.029 -1.5880 -0.5974 -0.2888
17745TIP3   OH274649   5.628   4.117   6.249 -0.1283 -0.3801 -0.4353
17745TIP3    H174650   5.662   4.042   6.297 -0.8765 -1.2829 -1.2676
17745TIP3    H274651   5.533   4.113   6.263 -0.1894  0.3547 -0.5813
17746TIP3   OH274652   1.130   1.667  13.595 -0.2488 -0.4179  0.0665
17746TIP3    H174653   1.088   1.749  13.570  3.1067  1.4223 -0.1343
17746TIP3    H274654   1.160   1.629  13.513  1.7037  0.3118  0.3815
17747TIP3   OH274655   0.008   4.552   2.808  0.0658  0.0976 -0.0669
17747TIP3    H174656   0.077   4.617   2.820  1.5113 -1.3188 -0.2811
17747TIP3    H274657   0.043   4.492   2.742 -1.5470 -0.4526 -0.4557
17748TIP3   OH274658   0.494   6.113   4.504 -0.4877  0.3597 -0.1362
17748TIP3    H174659   0.440   6.039   4.532  1.5481 -1.4232 -0.5908
17748TIP3    H274660   0.497   6.107   4.409  1.9579 -0.7989 -0.0635
17749TIP3   OH274661   6.599   5.074  12.393  0.1536 -0.1927 -0.1096
17749TIP3    H174662   6.582   5.030  12.476 -2.0071  1.6277  0.5361
17749TIP3    H274663   6.694   5.071  12.383  0.6393  0.5365  3.0840
17750TIP3   OH274664   0.970   0.444   5.906 -0.4153  0.2193  0.1834
17750TIP3    H174665   0.879   0.427   5.931 -0.6198  2.2998  1.0969
17750TIP3    H274666   1.022   0.403   5.974 -0.5085 -2.6109 -1.3158
17751TIP3   OH274667   3.398   5.119  12.238  0.6978 -0.4056 -0.2306
17751TIP3    H174668   3.488   5.146  12.222  0.2959  1.2682  0.1390
17751TIP3    H274669   3.345   5.186  12.195 -0.4293 -2.0950 -1.6666
17752TIP3   OH274670   0.677   3.553  15.928  0.0808 -0.5349  0.0674
17752TIP3    H174671   0.612   3.578  15.862  1.1335  0.7547 -0.5263
17752TIP3    H274672   0.669   3.458  15.935  0.4859 -0.8267 -2.5307
17753TIP3   OH274673   4.181   2.456  16.599 -0.1487 -0.4574 -0.3317
17753TIP3    H174674   4.250   2.454  16.532 -0.4653 -1.0782 -0.6467
17753TIP3    H274675   4.105   2.417  16.556 -0.6953  0.2163  0.0194
17754TIP3   OH274676   2.976   6.068  12.738  0.1660 -0.1326 -0.4473
17754TIP3    H174677   2.935   6.034  12.818 -1.2233 -1.3181 -1.6198
17754TIP3    H274678   3.068   6.043  12.746 -0.3255 -1.9457 -0.0787
17755TIP3   OH274679   1.563   0.089   0.831 -0.1235  0.1730  0.0015
17755TIP3    H174680   1.618   0.124   0.902 -1.1284 -0.3825  1.0856
17755TIP3    H274681   1.474   0.090   0.867 -0.4810 -1.3498 -0.7720
17756TIP3   OH274682   4.233   4.403   5.320 -0.3082 -0.3937 -0.1076
17756TIP3    H174683   4.193   4.407   5.407  0.3987 -0.7810  0.2439
17756TIP3    H274684   4.289   4.481   5.315  1.3036 -1.4490  0.6364
17757TIP3   OH274685   4.334   5.714  14.940  0.5394 -0.5727  0.4190
17757TIP3    H174686   4.246   5.716  14.978  0.0184 -0.4754 -0.7517
17757TIP3    H274687   4.369   5.802  14.955  1.2333 -1.1648  2.6246
17758TIP3   OH274688   4.097   5.409   2.593 -0.5189 -0.6002 -0.0603
17758TIP3    H174689   4.024   5.350   2.610 -1.8606  1.0648  0.2595
17758TIP3    H274690   4.082   5.442   2.504  2.3045 -3.4829 -1.8492
17759TIP3   OH274691   5.645   6.563   0.268 -0.3349 -0.1255 -0.0437
17759TIP3    H174692   5.657   6.595   0.178  0.4336 -0.6525 -0.1291
17759TIP3    H274693   5.575   6.619   0.303  0.2381  0.9452 -0.5401
17760TIP3   OH274694   4.296   3.216   0.527 -0.0343  0.5633  0.8916
17760TIP3    H174695   4.306   3.257   0.613  1.3187 -0.5252  1.2902
17760TIP3    H274696   4.321   3.125   0.541 -0.0135  0.3145 -0.6123
17761TIP3   OH274697   5.224   6.027  13.831  0.3738  0.1598  0.0955
17761TIP3    H174698   5.268   5.945  13.854  0.6678  0.5638  1.0559
17761TIP3    H274699   5.253   6.046  13.742 -1.3890 -1.8660 -1.0096
17762TIP3   OH274700   2.287   1.462   6.051  0.1828  0.7463  0.5152
17762TIP3    H174701   2.218   1.440   5.988  0.2265  1.3654  0.2473
17762TIP3    H274702   2.241   1.464   6.135  0.3223 -1.0798  0.6585
17763TIP3   OH274703   0.831   1.697   0.060 -0.0181 -0.5469  0.3573
17763TIP3    H174704   0.792   1.693  -0.027  1.1964  0.8681 -0.2893
17763TIP3    H274705   0.756   1.702   0.120 -0.8529 -0.4129 -0.6771
17764TIP3   OH274706   1.543   3.947  12.086  0.5438 -0.4008 -0.4222
17764TIP3    H174707   1.530   4.032  12.044  0.5601 -0.5249 -0.6855
17764TIP3    H274708   1.458   3.904  12.077  0.9160 -0.9522 -1.5388
17765TIP3   OH274709   3.866   0.502   5.475 -0.6990 -0.7282  0.3424
17765TIP3    H174710   3.793   0.563   5.478 -0.4692 -0.3173 -1.3912
17765TIP3    H274711   3.906   0.516   5.389  1.9723 -0.2838  1.5385
17766TIP3   OH274712   1.765   5.037   1.343 -0.1635  0.3469  0.6413
17766TIP3    H174713   1.770   4.943   1.357 -0.3577  0.4542  1.5011
17766TIP3    H274714   1.762   5.075   1.431 -1.8062  1.0484  0.3272
17767TIP3   OH274715   5.265   3.962   1.193 -0.2186 -0.1405  0.2141
17767TIP3    H174716   5.295   3.991   1.106  1.0690  0.3438  0.7940
17767TIP3    H274717   5.185   4.011   1.208 -0.3477 -0.0755 -0.6181
17768TIP3   OH274718   6.366   4.616  15.297  0.1544  0.0180 -0.2798
17768TIP3    H174719   6.429   4.551  15.327  1.4060  0.9711 -0.7198
17768TIP3    H274720   6.416   4.671  15.236 -0.4040  2.2543  1.1322
17769TIP3   OH274721   2.048   4.447   3.659 -0.1955 -0.7162 -0.1245
17769TIP3    H174722   2.017   4.499   3.585  1.6653  0.3852 -0.2122
17769TIP3    H274723   2.000   4.480   3.734  0.4577  0.7227 -0.2968
17770TIP3   OH274724   4.861   3.155  13.122  0.8554  0.2667  0.1635
17770TIP3    H174725   4.810   3.158  13.041 -0.2531  1.9106  0.8426
17770TIP3    H274726   4.903   3.070  13.121 -1.1119 -0.7730 -0.9486
17771TIP3   OH274727   3.391   0.364  11.405 -0.5583 -0.5003  0.4999
17771TIP3    H174728   3.295   0.366  11.406 -0.5983  1.0864 -1.4286
17771TIP3    H274729   3.414   0.359  11.312  1.2324  1.1920  0.7956
17772TIP3   OH274730   3.612   2.842   4.774 -0.1162 -0.0142  0.1586
17772TIP3    H174731   3.661   2.798   4.705 -0.4953 -0.9195  0.4478
17772TIP3    H274732   3.678   2.884   4.829  0.3600 -1.3363  0.6275
17773TIP3   OH274733   3.705   1.527  12.656  0.0945  0.0852 -0.0509
17773TIP3    H174734   3.706   1.574  12.740  1.2172  1.9327 -1.0272
17773TIP3    H274735   3.795   1.497  12.644 -0.0170 -0.0094 -0.6863
17774TIP3   OH274736   5.999   2.855   3.583  0.1912 -0.0566  0.4738
17774TIP3    H174737   5.910   2.832   3.609  0.7394 -1.9193  0.8971
17774TIP3    H274738   6.036   2.902   3.658 -0.3653  0.5553  0.3679
17775TIP3   OH274739   3.639   1.812  11.745 -0.0554 -0.0487 -0.0562
17775TIP3    H174740   3.609   1.724  11.766  1.3498 -0.2093  1.4803
17775TIP3    H274741   3.735   1.804  11.740 -0.0192  1.0193 -1.8091
17776TIP3   OH274742   1.958   4.451  11.739  0.1869 -0.5940  0.5306
17776TIP3    H174743   1.874   4.417  11.709  0.5240 -1.8334  0.9159
17776TIP3    H274744   1.941   4.485  11.827  0.0122 -0.5177  0.4661
17777TIP3   OH274745   5.186   6.325  16.899 -0.0783 -0.2245  0.1131
17777TIP3    H174746   5.280   6.335  16.887 -0.0040 -1.1491 -0.1545
17777TIP3    H274747   5.147   6.360  16.819  0.1548 -1.6708 -0.6655
17778TIP3   OH274748   1.060   5.669   4.905  0.4801 -0.1526 -0.5940
17778TIP3    H174749   0.976   5.666   4.858  0.2124 -1.9624 -0.0776
17778TIP3    H274750   1.061   5.755   4.947 -0.9844  0.0135 -0.8401
17779TIP3   OH274751   2.539   4.563  15.405 -0.4317  0.4335  0.7349
17779TIP3    H174752   2.481   4.577  15.331  0.7502 -0.8654 -0.5138
17779TIP3    H274753   2.623   4.598  15.377  0.5310 -1.7894  0.6277
17780TIP3   OH274754   4.613   5.850  17.125 -0.3324 -0.3312  1.0967
17780TIP3    H174755   4.599   5.892  17.210 -2.4204 -0.1153  0.7188
17780TIP3    H274756   4.544   5.784  17.120  0.9839 -1.6816  0.3707
17781TIP3   OH274757   2.409   5.276   4.398 -0.0077  0.0249  0.5461
17781TIP3    H174758   2.372   5.209   4.340 -0.6072 -1.0632  2.1183
17781TIP3    H274759   2.384   5.359   4.359  1.9810 -0.5489 -2.2932
17782TIP3   OH274760   1.733   2.123  15.604  0.4594  0.0189 -0.0460
17782TIP3    H174761   1.739   2.170  15.688  1.0100 -0.7574  0.3699
17782TIP3    H274762   1.728   2.030  15.629 -0.7939 -0.1419 -0.8417
17783TIP3   OH274763   3.227   1.594   4.084  0.2695  0.5740  0.5120
17783TIP3    H174764   3.245   1.533   4.156 -1.4199 -2.7960 -1.6638
17783TIP3    H274765   3.299   1.581   4.023 -1.1485 -1.0414 -0.9415
17784TIP3   OH274766   4.466   5.028  14.255  0.1584 -0.1071  0.2496
17784TIP3    H174767   4.394   5.024  14.193  0.1125  2.9163 -0.0529
17784TIP3    H274768   4.537   4.978  14.214  0.0942  1.7007 -2.2701
17785TIP3   OH274769   3.808   1.444  15.046 -0.1474  0.2446  0.0028
17785TIP3    H174770   3.762   1.420  15.127 -0.2740  1.9498  0.4902
17785TIP3    H274771   3.753   1.411  14.976 -1.4308  1.0334  0.5999
17786TIP3   OH274772   2.298   4.790   5.566 -0.2073 -0.8985 -0.2433
17786TIP3    H174773   2.339   4.703   5.572  0.9122 -0.6301 -2.7075
17786TIP3    H274774   2.334   4.839   5.640  1.9650 -1.4860 -0.8379
17787TIP3   OH274775   1.892   4.287  16.500 -0.9954  0.0690 -0.2336
17787TIP3    H174776   1.867   4.378  16.515  0.3139  0.0481  2.6169
17787TIP3    H274777   1.944   4.263  16.576  4.4543 -1.0956 -3.7810
17788TIP3   OH274778   6.216   6.770   5.002  0.3764 -0.3385  0.1583
17788TIP3    H174779   6.188   6.723   4.923  1.2613 -1.2123  0.3424
17788TIP3    H274780   6.307   6.793   4.985  0.0740  0.9828  0.2465
17789TIP3   OH274781   5.020   5.640  16.276 -0.3821 -0.2710 -0.7093
17789TIP3    H174782   5.005   5.663  16.367 -0.8285 -1.2105 -0.5418
17789TIP3    H274783   5.115   5.643  16.266 -0.1843 -1.9755  0.2902
17790TIP3   OH274784   5.363   5.686  14.117 -0.1850  0.0903 -0.2147
17790TIP3    H174785   5.414   5.738  14.055  0.6190  1.5431  1.5529
17790TIP3    H274786   5.295   5.746  14.148  0.6536  0.1088  1.7574
17791TIP3   OH274787   6.011   0.278  15.847 -0.0681 -0.0315  1.2018
17791TIP3    H174788   6.060   0.355  15.815 -0.8613  0.3587  0.9031
17791TIP3    H274789   5.920   0.299  15.829 -0.2304 -1.5077  0.0962
17792TIP3   OH274790   4.472   2.662  15.731 -0.2338  0.1209 -0.3378
17792TIP3    H174791   4.559   2.650  15.693  0.7366 -0.2703  1.8418
17792TIP3    H274792   4.476   2.615  15.814 -2.4876  0.2680 -0.0822
17793TIP3   OH274793   6.382   6.410  15.660 -0.2907  0.0433 -0.0564
17793TIP3    H174794   6.369   6.317  15.642  1.8466 -0.5069  0.8160
17793TIP3    H274795   6.418   6.412  15.749  0.0822  1.6624 -0.2027
17794TIP3   OH274796   3.763   0.868  12.703  0.0077 -0.3000  0.6595
17794TIP3    H174797   3.783   0.784  12.744 -1.4877 -0.5732  0.8910
17794TIP3    H274798   3.687   0.900  12.751  0.7501  1.3545  0.7934
17795TIP3   OH274799   5.414   3.623   0.520 -0.1720  0.2892  0.1894
17795TIP3    H174800   5.493   3.636   0.572 -0.1783 -0.6365  0.4572
17795TIP3    H274801   5.444   3.619   0.429  0.0201  0.4877  0.2457
17796TIP3   OH274802   3.012   2.138   4.881 -0.3919  0.4115  0.1802
17796TIP3    H174803   3.047   2.109   4.797 -0.0873  2.0906 -0.3259
17796TIP3    H274804   3.083   2.124   4.944 -1.2777 -2.6709  0.6237
17797TIP3   OH274805   3.748   1.628   2.996 -0.3199  0.5636  0.5312
17797TIP3    H174806   3.778   1.611   3.085  0.4488  2.4487  0.6736
17797TIP3    H274807   3.825   1.616   2.941 -0.4336  0.8280  0.3092
17798TIP3   OH274808   0.023   5.344   4.808 -0.0238  0.8101  0.0713
17798TIP3    H174809   0.097   5.390   4.846  1.7160 -1.0726 -0.8416
17798TIP3    H274810   0.012   5.267   4.863 -0.9958  0.8159 -0.0988
17799TIP3   OH274811   6.558   2.165   4.822  0.3154  0.5064 -0.0845
17799TIP3    H174812   6.620   2.100   4.789  0.3250  0.4864 -0.0264
17799TIP3    H274813   6.473   2.134   4.790  0.2575  0.2034  0.3442
17800TIP3   OH274814   3.588   3.605  14.839 -0.2683 -0.2660 -0.4407
17800TIP3    H174815   3.569   3.572  14.751  0.7089 -0.0990 -0.7305
17800TIP3    H274816   3.507   3.594  14.887 -2.0619  2.9182 -2.3579
17801TIP3   OH274817   4.326   0.940   1.530 -0.6109  0.2766  0.5779
17801TIP3    H174818   4.361   0.851   1.518 -0.7561  0.1823  0.8302
17801TIP3    H274819   4.231   0.928   1.530 -0.6313  0.4362  0.5919
17802TIP3   OH274820   5.193   0.448  13.420 -0.3293 -0.6042 -0.1128
17802TIP3    H174821   5.131   0.375  13.417 -1.1627  0.1196 -1.4109
17802TIP3    H274822   5.192   0.476  13.512  0.9817 -2.9863  0.7197
17803TIP3   OH274823   3.438   6.354  11.801 -0.2128  0.0961 -0.2187
17803TIP3    H174824   3.527   6.354  11.837 -0.9287  0.3409  1.6458
17803TIP3    H274825   3.449   6.386  11.711  1.2512  3.1439  0.9163
17804TIP3   OH274826   6.490   2.457   5.452  0.6717  0.5862  0.1048
17804TIP3    H174827   6.491   2.447   5.547 -0.5120 -0.1979  0.0578
17804TIP3    H274828   6.417   2.517   5.434  2.5876  2.9820 -0.1718
17805TIP3   OH274829   5.788   0.449  13.303 -0.1232  0.3146 -0.1048
17805TIP3    H174830   5.797   0.506  13.227  0.0799  0.4590  0.0276
17805TIP3    H274831   5.876   0.444  13.339 -0.5827  1.9206  1.3427
17806TIP3   OH274832   3.596   5.011  11.471 -0.1326  0.0768 -0.6963
17806TIP3    H174833   3.579   4.930  11.422 -0.1929 -0.9055  0.8642
17806TIP3    H274834   3.511   5.054  11.478 -0.0761  0.3599 -1.6503
17807TIP3   OH274835   0.716   2.124  14.339 -0.4395 -0.6244 -0.1691
17807TIP3    H174836   0.729   2.136  14.245 -0.8540  1.6309  0.0162
17807TIP3    H274837   0.753   2.202  14.380 -1.1472 -1.0850  1.4793
17808TIP3   OH274838   4.757   0.476   2.263  0.2440  0.0365 -0.5419
17808TIP3    H174839   4.705   0.423   2.203 -0.0436 -0.7651  0.3802
17808TIP3    H274840   4.808   0.534   2.207 -1.2330  0.4527 -1.4948
17809TIP3   OH274841   0.532   1.536  10.898 -0.2724  0.1901  0.2510
17809TIP3    H174842   0.518   1.445  10.872 -0.3341 -0.2145  1.6447
17809TIP3    H274843   0.483   1.587  10.833 -0.4931 -0.7726 -0.3606
17810TIP3   OH274844   2.745   6.706  16.974 -0.5765 -0.2378 -0.1538
17810TIP3    H174845   2.714   6.617  16.960  2.6579 -1.5120  0.0738
17810TIP3    H274846   2.685   6.743  17.038 -0.3223 -3.3021  2.0303
17811TIP3   OH274847   4.638   5.874   1.310 -0.5209 -0.1383  0.1161
17811TIP3    H174848   4.549   5.850   1.335  0.0176  0.2195  2.6511
17811TIP3    H274849   4.690   5.796   1.329 -0.4093 -0.8669 -2.7227
17812TIP3   OH274850   5.539   2.395   4.797  0.5109  0.6253 -0.3680
17812TIP3    H174851   5.447   2.370   4.800  1.0556 -2.0070 -1.7771
17812TIP3    H274852   5.585   2.321   4.837  2.0953  1.2863 -0.8712
17813TIP3   OH274853   2.401   1.820   0.552  0.3752  0.4932  0.3058
17813TIP3    H174854   2.435   1.909   0.546  1.8184  0.0043  0.6537
17813TIP3    H274855   2.470   1.771   0.597  0.0306 -1.0104 -0.7210
17814TIP3   OH274856   0.649   1.490  14.945  0.3012 -0.0703 -0.0780
17814TIP3    H174857   0.590   1.423  14.979  0.8020 -0.0150  0.9606
17814TIP3    H274858   0.707   1.510  15.019 -0.7817  2.5979  0.1612
17815TIP3   OH274859   5.566   0.428  11.577  0.1181 -0.1246 -0.6977
17815TIP3    H174860   5.596   0.357  11.522 -1.3509 -0.8899 -0.5620
17815TIP3    H274861   5.501   0.388  11.635  1.1096  0.7848  1.1432
17816TIP3   OH274862   0.305   2.839  12.305 -0.4167  0.5349  0.7270
17816TIP3    H174863   0.240   2.813  12.240 -0.1907  2.4536 -0.3394
17816TIP3    H274864   0.388   2.807  12.270 -0.3778  0.9999  0.3859
17817TIP3   OH274865   1.750   0.394  14.073 -0.1254  0.4239  0.3664
17817TIP3    H174866   1.714   0.306  14.081  0.4861  0.2501  1.3717
17817TIP3    H274867   1.712   0.428  13.992  1.4535 -1.6315 -1.3740
17818TIP3   OH274868   2.963   5.487   1.862  0.6544  0.2695  0.0270
17818TIP3    H174869   3.022   5.411   1.853  1.0993  0.4472  1.3135
17818TIP3    H274870   2.919   5.492   1.777  1.9559 -0.3140 -0.7204
17819TIP3   OH274871   5.502   6.126   0.261  0.2847  0.2381 -0.1287
17819TIP3    H174872   5.461   6.162   0.339  0.4369 -1.4132  0.7422
17819TIP3    H274873   5.547   6.047   0.291  1.4939  0.3033 -1.6323
17820TIP3   OH274874   5.437   5.596   5.315  0.2293  0.0974  0.0034
17820TIP3    H174875   5.367   5.629   5.259  1.2750  0.0522 -1.4087
17820TIP3    H274876   5.420   5.502   5.323 -0.2423  0.2029  0.2259
17821TIP3   OH274877   6.129   2.238   5.640 -0.0518 -0.0890 -0.3205
17821TIP3    H174878   6.137   2.333   5.645  1.5278 -0.1852 -0.5473
17821TIP3    H274879   6.219   2.206   5.641 -0.4684 -1.4870 -2.0337
17822TIP3   OH274880   0.518   1.204   2.826 -0.1508  0.4777  0.0538
17822TIP3    H174881   0.573   1.271   2.867 -0.4744  0.8433 -0.1000
17822TIP3    H274882   0.430   1.243   2.825 -0.0448  0.7255 -1.5500
17823TIP3   OH274883   3.547   4.043   4.760 -0.5568  0.3637 -0.2070
17823TIP3    H174884   3.454   4.028   4.747 -1.1872  2.0637  1.8324
17823TIP3    H274885   3.589   3.963   4.728 -2.6338 -0.2189 -1.6845
17824TIP3   OH274886   6.048   0.971   5.543 -0.5006 -0.0692 -0.3967
17824TIP3    H174887   5.961   0.968   5.504 -1.8056 -0.1782  2.2480
17824TIP3    H274888   6.104   1.009   5.476 -2.4130 -0.6733 -2.4478
17825TIP3   OH274889   5.180   2.029  12.734  0.4844  0.2719  0.0312
17825TIP3    H174890   5.244   2.011  12.803 -0.5342 -1.1711  0.6648
17825TIP3    H274891   5.103   2.061  12.782  0.0767  0.1175 -0.5144
17826TIP3   OH274892   2.560   3.484  13.042 -0.5870 -0.4778  0.6685
17826TIP3    H174893   2.508   3.486  13.123  0.0224 -1.1010  1.0788
17826TIP3    H274894   2.549   3.396  13.008 -0.7056 -0.2680  0.1502
17827TIP3   OH274895   4.799   0.223   0.374  0.1523  0.1018 -0.3709
17827TIP3    H174896   4.725   0.283   0.371  0.8110  0.9975  0.5965
17827TIP3    H274897   4.785   0.163   0.301 -1.4568  0.3257 -0.2716
17828TIP3   OH274898   6.157   4.147   0.107 -0.0429 -0.2276  0.1962
17828TIP3    H174899   6.224   4.163   0.042 -1.2415  0.5864 -0.8884
17828TIP3    H274900   6.189   4.192   0.186  1.1380 -0.7152  0.0146
17829TIP3   OH274901   2.414   1.247   4.251  0.3993 -0.4501  0.0488
17829TIP3    H174902   2.357   1.209   4.318 -1.1871  2.2367  0.3868
17829TIP3    H274903   2.483   1.291   4.302 -1.2006  2.2093  0.1341
17830TIP3   OH274904   0.246   6.055   0.711 -0.3830  0.0653  0.6689
17830TIP3    H174905   0.272   6.055   0.619 -1.3537  0.9173  0.3879
17830TIP3    H274906   0.307   5.994   0.752  0.2299 -0.1324 -0.4859
17831TIP3   OH274907   3.485   4.638  14.917 -0.0302 -0.3956  0.2926
17831TIP3    H174908   3.393   4.641  14.945  0.8019  1.3362  3.3646
17831TIP3    H274909   3.491   4.560  14.862 -3.5111 -0.0115 -0.8834
17832TIP3   OH274910   6.322   1.807   5.418  0.4688 -0.2987  0.0509
17832TIP3    H174911   6.401   1.861   5.420  0.9347 -0.9891  1.5175
17832TIP3    H274912   6.280   1.824   5.502 -1.0380  0.1586 -0.7675
17833TIP3   OH274913   5.624   0.436   1.586  0.1410 -0.0483 -0.0223
17833TIP3    H174914   5.610   0.432   1.680  2.3219  0.1975  0.3582
17833TIP3    H274915   5.697   0.376   1.569 -0.8067 -0.7975 -1.7086
17834TIP3   OH274916   1.099   5.728  16.767  0.3286  0.4164 -0.0368
17834TIP3    H174917   1.019   5.754  16.813 -1.2013  0.3574 -2.4390
17834TIP3    H274918   1.081   5.639  16.736  2.5755 -0.8037  1.8690
17835TIP3   OH274919   3.864   2.153  12.183  0.3546  0.4906 -0.4365
17835TIP3    H174920   3.932   2.090  12.208  0.5017  0.6986 -0.3093
17835TIP3    H274921   3.847   2.134  12.090 -0.5271 -0.5941 -0.0760
17836TIP3   OH274922   5.330   1.717   0.800  0.2669  0.8285  0.2394
17836TIP3    H174923   5.358   1.725   0.891  0.8570 -0.3065  0.1782
17836TIP3    H274924   5.409   1.687   0.753 -0.4255 -0.1647 -0.3418
17837TIP3   OH274925   5.611   5.074  14.690 -0.2394 -0.0833  0.0516
17837TIP3    H174926   5.677   5.007  14.709 -0.7522 -0.3062  1.1000
17837TIP3    H274927   5.660   5.142  14.644  0.3101 -1.1241 -0.9799
17838TIP3   OH274928   6.555   6.358  11.968  0.8957 -0.5395 -0.2433
17838TIP3    H174929   6.525   6.383  12.055 -0.0494  0.7390 -0.9013
17838TIP3    H274930   6.636   6.311  11.983  0.5686 -0.6412  1.3467
17839TIP3   OH274931   6.018   2.577  12.449 -0.1629 -0.0979 -0.2927
17839TIP3    H174932   6.003   2.667  12.476  0.5918  0.1681 -0.7417
17839TIP3    H274933   5.959   2.564  12.375 -2.4882 -0.9347  1.5885
17840TIP3   OH274934   0.948   6.440   2.035 -0.7811  0.2210  0.3497
17840TIP3    H174935   0.969   6.520   2.083  0.7905  0.8670 -1.2829
17840TIP3    H274936   0.906   6.471   1.955  0.1490 -0.5364 -0.4528
17841TIP3   OH274937   0.020   4.423  12.723 -0.2361  0.1926  0.1310
17841TIP3    H174938   0.070   4.355  12.767 -0.7645  0.3583  1.0236
17841TIP3    H274939   0.060   4.431  12.637  0.6696 -0.3163  0.4919
17842TIP3   OH274940   2.670   3.812  15.576 -0.3042 -0.2237  0.0255
17842TIP3    H174941   2.678   3.733  15.630 -0.5844 -1.0970 -1.1651
17842TIP3    H274942   2.627   3.876  15.633  0.3856 -0.7489  1.1816
17843TIP3   OH274943   0.129   5.050  15.887 -0.2310  0.6102 -0.1485
17843TIP3    H174944   0.077   5.130  15.898 -0.6475  0.2924  0.2449
17843TIP3    H274945   0.116   5.025  15.796 -1.2785  0.1977  0.0959
17844TIP3   OH274946   6.774   2.985   1.475  0.2243  0.2126 -0.0863
17844TIP3    H174947   6.706   3.035   1.520 -1.5040  1.4214 -3.6601
17844TIP3    H274948   6.737   2.897   1.466  0.4396  0.0542  0.5465
17845TIP3   OH274949   2.592   6.482  10.619 -0.0274  0.3948 -0.2517
17845TIP3    H174950   2.654   6.425  10.664  0.7927  0.9169 -0.7082
17845TIP3    H274951   2.643   6.526  10.551 -1.5327 -1.4628 -2.7320
17846TIP3   OH274952   5.007   5.819   0.676  0.7681 -0.0292  0.3281
17846TIP3    H174953   5.035   5.877   0.747 -0.5287 -0.8446  1.5802
17846TIP3    H274954   4.959   5.875   0.616  1.9761  0.7007  0.0180
17847TIP3   OH274955   0.246   3.646  13.805 -0.1456  0.2647  0.3696
17847TIP3    H174956   0.169   3.598  13.835 -0.6573 -1.1331 -2.7881
17847TIP3    H274957   0.217   3.737  13.797 -0.9837  0.0254  0.6550
17848TIP3   OH274958   4.255   4.936   2.140 -0.0756 -0.4753  0.0421
17848TIP3    H174959   4.160   4.936   2.153 -0.7290  0.0245 -3.5906
17848TIP3    H274960   4.279   4.843   2.144 -0.8193 -0.6586  0.4037
17849TIP3   OH274961   0.685   4.030   1.513 -0.1951  0.2756  0.0913
17849TIP3    H174962   0.703   3.966   1.444  2.1637 -0.2860  1.1317
17849TIP3    H274963   0.627   3.984   1.574 -0.7564  0.1150 -0.5558
17850TIP3   OH274964   6.209   6.723  14.919  0.3733 -0.4598 -0.3861
17850TIP3    H174965   6.256   6.806  14.922 -0.4675  0.0091  0.0881
17850TIP3    H274966   6.198   6.706  14.825  0.2220  0.1563 -0.4848
17851TIP3   OH274967   4.440   2.952   5.306 -0.4441  0.0115  0.0082
17851TIP3    H174968   4.443   2.879   5.367 -2.0940  1.1768  1.5882
17851TIP3    H274969   4.453   2.912   5.220 -0.1719 -1.9652  0.9163
17852TIP3   OH274970   5.152   3.183   4.343 -0.6995 -0.6120 -0.4356
17852TIP3    H174971   5.197   3.112   4.388  0.7511  0.5676  0.0660
17852TIP3    H274972   5.152   3.158   4.251  0.2951 -0.9939 -0.3374
17853TIP3   OH274973   3.594   6.113   0.524 -0.3673 -0.0207 -0.2406
17853TIP3    H174974   3.509   6.089   0.485 -0.6357 -1.3303  1.0767
17853TIP3    H274975   3.574   6.131   0.616  0.6626  0.5528 -0.1191
17854TIP3   OH274976   0.559   1.261   0.852 -0.1898  0.4865 -0.9739
17854TIP3    H174977   0.585   1.194   0.915 -0.1851  0.7469 -0.6934
17854TIP3    H274978   0.598   1.233   0.769 -2.2494 -1.1845 -1.4487
17855TIP3   OH274979   5.594   5.222  13.769 -0.2078 -0.0859 -0.2883
17855TIP3    H174980   5.664   5.253  13.711  2.0822 -1.7017  1.3992
17855TIP3    H274981   5.612   5.265  13.853 -0.9082 -0.9317  0.3100
17856TIP3   OH274982   6.003   1.084  12.204 -0.1748 -0.1766  0.1702
17856TIP3    H174983   5.966   0.998  12.184  0.2192 -0.5727  1.0945
17856TIP3    H274984   5.927   1.140  12.221 -0.4818 -0.0378 -1.5244
17857TIP3   OH274985   2.998   3.680   1.225  0.0493 -0.0356 -0.3522
17857TIP3    H174986   3.022   3.739   1.297  1.6864 -0.9186 -0.1254
17857TIP3    H274987   3.056   3.705   1.154 -0.8101  0.1044 -1.0136
17858TIP3   OH274988   3.578   4.292   0.880  0.5723 -0.1287  0.2009
17858TIP3    H174989   3.626   4.241   0.815  0.1325 -0.0899 -0.1622
17858TIP3    H274990   3.538   4.363   0.829  1.5145  0.8240  0.7622
17859TIP3   OH274991   3.167   1.430   3.144  0.1391 -0.0047 -0.1469
17859TIP3    H174992   3.150   1.475   3.227 -1.9403 -2.1363  0.6715
17859TIP3    H274993   3.263   1.424   3.140  0.3642  1.6766  1.2024
17860TIP3   OH274994   0.523   4.886   5.366 -0.4774  0.3201  0.5939
17860TIP3    H174995   0.486   4.829   5.433  0.1761 -0.0372  0.6647
17860TIP3    H274996   0.577   4.828   5.313  0.4379  0.9268  0.8401
17861TIP3   OH274997   3.270   1.360   0.703 -0.0619  0.2419  0.5755
17861TIP3    H174998   3.275   1.305   0.624  1.4507  0.8494  0.2139
17861TIP3    H274999   3.321   1.312   0.768  1.1076  1.0779  0.3129
17862TIP3   OH275000   5.418   4.949   1.180  0.7732 -0.1205  0.0587
17862TIP3    H175001   5.356   5.000   1.127 -1.2012 -1.5979  0.8233
17862TIP3    H275002   5.417   4.991   1.265  0.4424 -0.4148  0.2036
17863TIP3   OH275003   5.159   1.062   0.202 -0.2137 -0.5085  0.0643
17863TIP3    H175004   5.232   1.004   0.226  0.0875 -0.4259 -0.6552
17863TIP3    H275005   5.091   1.041   0.266  1.5527  1.7753  2.9637
17864TIP3   OH275006   3.220   6.049   2.376  0.1439 -0.0746  0.1521
17864TIP3    H175007   3.171   5.969   2.355  0.1389 -0.4544  1.5155
17864TIP3    H275008   3.155   6.119   2.369  0.2843 -0.0778 -1.6380
17865TIP3   OH275009   3.391   1.417   0.408 -0.2370  0.1519 -0.5574
17865TIP3    H175010   3.435   1.391   0.327  0.1492  0.4409 -0.4455
17865TIP3    H275011   3.349   1.337   0.439  0.1064 -0.0991 -0.7331
17866TIP3   OH275012   2.026   2.484   0.831 -0.1382 -0.8191 -0.2348
17866TIP3    H175013   2.070   2.440   0.758 -1.4182 -0.9137 -0.9970
17866TIP3    H275014   2.004   2.413   0.892 -1.1229 -1.1060 -0.8893
17867TIP3   OH275015   6.461   3.965   6.199  0.0641 -0.3186 -0.3106
17867TIP3    H175016   6.555   3.983   6.190  0.7135 -0.6879  3.7686
17867TIP3    H275017   6.424   4.048   6.228 -0.3880 -0.7943  0.5006
17868TIP3   OH275018   6.212   0.332  11.229 -0.0370 -0.2171  0.3499
17868TIP3    H175019   6.199   0.424  11.253  0.8110  0.2097 -0.7270
17868TIP3    H275020   6.303   0.328  11.198 -0.7657 -0.8801 -1.8798
17869TIP3   OH275021   1.257   6.395   4.137 -0.1780 -0.2873 -0.4036
17869TIP3    H175022   1.201   6.379   4.212  0.8518  1.6872  0.8777
17869TIP3    H275023   1.258   6.491   4.128  1.2972 -0.3809 -1.6927
17870TIP3   OH275024   0.792   6.387   3.849  0.2841  0.2053  0.1263
17870TIP3    H175025   0.841   6.366   3.769 -0.5336 -1.3791 -0.0180
17870TIP3    H275026   0.848   6.356   3.920 -0.3280 -1.3998 -0.0287
17871TIP3   OH275027   5.883   0.180  10.734  0.4314 -0.0243 -0.0944
17871TIP3    H175028   5.896   0.239  10.808  0.0919  0.4044 -0.3685
17871TIP3    H275029   5.867   0.238  10.660 -1.0855 -0.4693 -0.1475
17872TIP3   OH275030   4.641   4.838   6.257  0.4785  0.1048 -0.0702
17872TIP3    H175031   4.637   4.744   6.239 -1.5579  0.1970 -0.3834
17872TIP3    H275032   4.662   4.844   6.351 -0.7007 -0.7336  0.2707
17873TIP3   OH275033   6.046   3.022   0.534  0.0083 -0.0328 -0.2857
17873TIP3    H175034   6.112   3.085   0.508 -1.9390  2.2695  0.0363
17873TIP3    H275035   6.088   2.937   0.523  2.4088  1.2447 -1.6916
17874TIP3   OH275036   1.336   4.011   6.351 -0.0995  0.3280 -0.0693
17874TIP3    H175037   1.402   4.007   6.421 -1.1034 -0.5277  0.8701
17874TIP3    H275038   1.267   3.951   6.380 -0.9680  0.6594 -1.3694
17875TIP3   OH275039   3.275   4.420  13.264  0.4877 -0.2494  0.4504
17875TIP3    H175040   3.272   4.393  13.173 -0.8125  0.0108  0.3939
17875TIP3    H275041   3.318   4.505  13.263  0.6471 -0.3364  0.1055
17876TIP3   OH275042   5.834   1.681   4.979  0.2395  0.5627  0.6901
17876TIP3    H175043   5.891   1.717   4.910 -0.7113  0.9015  0.0695
17876TIP3    H275044   5.788   1.609   4.938  0.7179 -0.1696  1.3973
17877TIP3   OH275045   1.851   0.758   3.676 -0.2785  0.1383  0.0217
17877TIP3    H175046   1.851   0.667   3.707 -0.3511 -0.2687 -1.1274
17877TIP3    H275047   1.876   0.809   3.753 -1.0261 -0.7750  0.8973
17878TIP3   OH275048   3.819   2.444   2.248  0.5236 -0.5723  0.7388
17878TIP3    H175049   3.814   2.447   2.152 -2.4861  0.0225  0.8440
17878TIP3    H275050   3.874   2.520   2.270 -2.1517  1.8904 -0.4389
17879TIP3   OH275051   6.005   0.087  16.037  0.3628 -0.0301  0.7577
17879TIP3    H175052   5.994   0.118  16.127  0.1765 -0.8487  1.0274
17879TIP3    H275053   6.006   0.167  15.984  2.0411  0.5607  1.6226
17880TIP3   OH275054   2.363   5.448   3.752 -0.3949 -0.0991 -0.0776
17880TIP3    H175055   2.356   5.442   3.847  0.7241  1.3903  0.1470
17880TIP3    H275056   2.411   5.530   3.737 -1.3783  0.1985 -1.9591
17881TIP3   OH275057   6.194   4.816  14.137  0.1811  0.0394 -0.2864
17881TIP3    H175058   6.110   4.849  14.105 -0.1687 -0.2107  0.3710
17881TIP3    H275059   6.227   4.762  14.065  0.2903  0.9875 -0.9749
17882TIP3   OH275060   1.401   1.181  12.717  0.6680  0.3811 -0.1263
17882TIP3    H175061   1.308   1.160  12.704  0.6574  0.2981  0.0700
17882TIP3    H275062   1.421   1.246  12.650  1.0950 -1.3489 -1.7419
17883TIP3   OH275063   1.724   5.025  12.427 -0.2785  0.2391 -0.1454
17883TIP3    H175064   1.733   5.112  12.466  0.5261 -0.1396  0.5360
17883TIP3    H275065   1.655   4.983  12.479  0.0437  0.1148  0.1869
17884TIP3   OH275066   6.424   2.490  15.252 -0.0877  0.0735 -1.4153
17884TIP3    H175067   6.382   2.575  15.269  1.1218  0.5744 -0.8124
17884TIP3    H275068   6.421   2.482  15.156  1.1748  1.5696 -1.6308
17885TIP3   OH275069   5.949   1.002   0.727  0.0438 -0.3396 -1.0518
17885TIP3    H175070   5.926   0.954   0.648  0.9161 -2.5048 -0.0686
17885TIP3    H275071   5.868   1.003   0.778 -0.2380  0.1172 -1.5021
17886TIP3   OH275072   4.837   3.975  11.222 -0.4618  0.2026  0.0440
17886TIP3    H175073   4.886   4.057  11.215  0.7133 -0.5529 -1.1961
17886TIP3    H275074   4.754   3.993  11.178 -0.0934  0.6500 -0.4907
17887TIP3   OH275075   5.413   6.336   1.121 -0.5971  0.5379  0.4859
17887TIP3    H175076   5.501   6.352   1.086 -1.0899  0.2215 -0.9481
17887TIP3    H275077   5.404   6.401   1.191  1.4534 -0.6263  1.9255
17888TIP3   OH275078   3.808   6.446   3.989 -0.2398 -0.7713 -0.2994
17888TIP3    H175079   3.889   6.487   3.957 -0.7714 -0.2400 -0.9958
17888TIP3    H275080   3.761   6.420   3.910 -2.1461  1.6539 -0.1122
17889TIP3   OH275081   1.136   1.603  14.251  0.1703  0.2396  0.5359
17889TIP3    H175082   1.070   1.536  14.233  1.3542 -0.4723 -1.4474
17889TIP3    H275083   1.195   1.563  14.314 -1.1715  0.8542  2.2676
17890TIP3   OH275084   5.359   2.066   6.186 -0.3134 -0.0361  0.5051
17890TIP3    H175085   5.430   2.041   6.127  0.8838 -0.5150  2.0806
17890TIP3    H275086   5.396   2.058   6.274 -1.5237  2.1581  1.3127
17891TIP3   OH275087   3.330   1.421   4.900 -0.1959  0.0252 -0.3724
17891TIP3    H175088   3.354   1.364   4.827 -0.0148  1.3447 -1.3817
17891TIP3    H275089   3.314   1.361   4.973 -0.7386 -1.3631 -1.5764
17892TIP3   OH275090   6.164   5.117   5.803  0.1376  0.1334 -0.1980
17892TIP3    H175091   6.185   5.160   5.886 -0.7374 -0.5476  0.4015
17892TIP3    H275092   6.173   5.185   5.737  0.7390  0.7138  0.4695
17893TIP3   OH275093   1.478   1.632   5.674  0.7568 -0.1320 -0.2111
17893TIP3    H175094   1.462   1.725   5.660  0.7080 -0.1474 -0.2571
17893TIP3    H275095   1.425   1.610   5.751 -2.3119 -0.9777 -2.3618
17894TIP3   OH275096   1.659   0.283   3.577  0.1663  0.8292 -0.3726
17894TIP3    H175097   1.568   0.259   3.595 -0.4267  2.4084 -1.0986
17894TIP3    H275098   1.664   0.287   3.481  0.0534  3.9492 -0.3343
17895TIP3   OH275099   2.293   1.660  14.526 -0.4443 -0.4205  0.1027
17895TIP3    H175100   2.322   1.574  14.558 -3.0344 -1.0942  0.9111
17895TIP3    H275101   2.315   1.721  14.597 -0.1698 -0.7326  0.2895
17896TIP3   OH275102   4.148   2.184   4.553 -0.3129  0.1310 -0.5926
17896TIP3    H175103   4.209   2.137   4.610 -0.9673 -0.1784 -0.1250
17896TIP3    H275104   4.193   2.266   4.532 -0.4419  0.7036  1.1875
17897TIP3   OH275105   0.894   0.459  11.040  0.5228 -0.2723 -0.0509
17897TIP3    H175106   0.939   0.441  10.958  2.5340  1.3595  0.5900
17897TIP3    H275107   0.955   0.428  11.108 -0.7362 -0.8623  0.8387
17898TIP3   OH275108   5.059   2.481   1.746  0.7257 -0.2298 -0.4312
17898TIP3    H175109   5.146   2.497   1.711  1.0751 -1.7082 -0.3026
17898TIP3    H275110   5.056   2.386   1.761 -1.0234 -0.2586 -0.7646
17899TIP3   OH275111   5.857   2.117   4.127  0.6541 -0.1247 -0.0683
17899TIP3    H175112   5.861   2.029   4.165  0.2224 -0.6695 -1.2561
17899TIP3    H275113   5.767   2.125   4.094  0.8743  0.5211 -0.5326
17900TIP3   OH275114   2.623   4.536   3.411  0.0934  0.1725  0.4167
17900TIP3    H175115   2.555   4.538   3.478 -2.2682 -1.8001 -1.7447
17900TIP3    H275116   2.624   4.625   3.374  0.0956  0.7364  1.7124
17901TIP3   OH275117   3.867   2.951   5.560 -0.6269  0.3494  0.1187
17901TIP3    H175118   3.872   2.985   5.470 -1.8787 -2.7331 -1.2549
17901TIP3    H275119   3.786   2.989   5.594 -1.1302  0.0892 -0.7461
17902TIP3   OH275120   3.294   5.278   0.833 -0.1432 -0.8860  0.1798
17902TIP3    H175121   3.379   5.237   0.849 -0.0842 -0.3439  1.3912
17902TIP3    H275122   3.252   5.280   0.919  0.1920  2.2602  0.4111
17903TIP3   OH275123   1.086   3.430  14.588  0.1521 -0.5096 -0.0843
17903TIP3    H175124   1.004   3.392  14.558  1.2523 -2.0043 -1.3547
17903TIP3    H275125   1.123   3.472  14.511  0.6387  0.0642  0.4462
17904TIP3   OH275126   1.307   5.663   4.432  0.3017 -0.2387 -0.2343
17904TIP3    H175127   1.350   5.592   4.384  3.3128  1.3101 -0.0865
17904TIP3    H275128   1.236   5.620   4.479  0.6381 -2.7537 -1.8338
17905TIP3   OH275129   1.100   2.770   0.176  0.1034 -0.3682  0.4173
17905TIP3    H175130   1.019   2.720   0.167 -0.9609  1.1364  1.1889
17905TIP3    H275131   1.086   2.825   0.253  1.0080  1.4559 -0.6679
17906TIP3   OH275132   2.636   1.595   1.766  0.3683 -0.2244  0.2805
17906TIP3    H175133   2.611   1.503   1.759 -0.0156 -0.1203  0.2548
17906TIP3    H275134   2.579   1.630   1.834 -0.3096  0.2692 -0.5109
17907TIP3   OH275135   1.692   3.402  14.276  0.0855 -0.0831 -0.0773
17907TIP3    H175136   1.596   3.396  14.274  0.0852 -0.1783  0.2004
17907TIP3    H275137   1.711   3.490  14.244 -0.1107  0.0496  0.1663
17908TIP3   OH275138   0.793   2.264  16.781  0.6227  0.0191  0.4746
17908TIP3    H175139   0.724   2.259  16.848  0.6643  0.4828  0.5499
17908TIP3    H275140   0.754   2.222  16.704  0.3580  0.0229  0.6038
17909TIP3   OH275141   2.511   4.173   3.516 -0.1622  0.3918  0.1437
17909TIP3    H175142   2.424   4.152   3.549 -0.3114  1.5688  0.5413
17909TIP3    H275143   2.498   4.246   3.456  0.4258 -0.1175 -0.6295
17910TIP3   OH275144   2.282   1.849  16.834  0.1027 -0.0841 -0.0592
17910TIP3    H175145   2.230   1.771  16.811  0.3619 -0.1237 -0.5255
17910TIP3    H275146   2.272   1.907  16.759  3.3531 -1.4119 -1.7282
17911TIP3   OH275147   1.600   0.574  15.157 -0.0056  0.4596  0.3247
17911TIP3    H175148   1.574   0.657  15.196 -0.2586  0.1701  0.7788
17911TIP3    H275149   1.573   0.581  15.065 -0.0870  0.8465  0.3756
17912TIP3   OH275150   0.676   3.070  12.367  0.1843  0.0360  0.4062
17912TIP3    H175151   0.666   2.975  12.378 -1.5116  0.2509  0.9456
17912TIP3    H275152   0.593   3.099  12.328  1.2513  1.1066 -1.1873
17913TIP3   OH275153   5.538   4.404  12.737 -0.4233 -0.3744  0.2508
17913TIP3    H175154   5.548   4.485  12.787 -1.1650  0.3879 -0.7941
17913TIP3    H275155   5.557   4.335  12.801 -0.7370  0.5798  1.4340
17914TIP3   OH275156   0.214   1.315   0.556 -0.6903  0.0875 -0.1018
17914TIP3    H175157   0.239   1.293   0.646 -1.8489  0.3624  0.3005
17914TIP3    H275158   0.275   1.385   0.531 -0.3452 -0.0061  0.4625
17915TIP3   OH275159   2.006   2.445   2.758  0.0119  0.1815 -0.0601
17915TIP3    H175160   2.071   2.402   2.813  2.7045  1.5158 -2.0057
17915TIP3    H275161   1.973   2.517   2.811 -0.7568 -1.1603  1.3464
17916TIP3   OH275162   4.928   6.642   4.957  0.1476  0.3639 -0.6218
17916TIP3    H175163   4.965   6.681   4.878  2.1924  2.5112  1.2375
17916TIP3    H275164   4.862   6.705   4.986 -0.5182 -0.3584 -0.5492
17917TIP3   OH275165   4.180   3.791  13.180 -0.1824 -0.0157 -0.3905
17917TIP3    H175166   4.271   3.784  13.208  1.1943  2.7506 -3.5498
17917TIP3    H275167   4.149   3.700  13.178  2.6458 -1.1085  0.2780
17918TIP3   OH275168   4.490   4.939   1.940  0.1929  0.8495  0.3267
17918TIP3    H175169   4.444   4.887   2.007  1.7761 -0.0530  0.7603
17918TIP3    H275170   4.430   4.940   1.865 -0.6882  0.0264  0.9918
17919TIP3   OH275171   3.558   4.037   0.059 -0.5899 -0.1399  0.2440
17919TIP3    H175172   3.492   4.061  -0.006 -0.2347  0.6600  0.1644
17919TIP3    H275173   3.595   4.120   0.088  0.5994 -0.5772  0.0572
17920TIP3   OH275174   0.305   2.465  14.211  0.6783 -0.1362 -0.0061
17920TIP3    H175175   0.385   2.458  14.160  0.1328  0.0608 -0.9029
17920TIP3    H275176   0.240   2.415  14.162 -0.3320  1.6031 -0.5316
17921TIP3   OH275177   2.798   5.463   4.372  0.3714 -0.1442  0.2950
17921TIP3    H175178   2.824   5.551   4.343  1.2213 -0.8001 -0.9937
17921TIP3    H275179   2.706   5.457   4.348  0.2469  0.4679  0.5876
17922TIP3   OH275180   5.333   4.706   5.082  0.0075 -0.0537  0.3439
17922TIP3    H175181   5.274   4.781   5.086 -0.3450 -0.3466  0.7606
17922TIP3    H275182   5.406   4.735   5.027 -0.2013  0.5383  0.3761
17923TIP3   OH275183   1.542   1.085  13.844 -0.4927  0.8094  0.3382
17923TIP3    H175184   1.456   1.126  13.844 -0.7799  0.2398  1.2429
17923TIP3    H275185   1.595   1.140  13.901 -0.3127  1.0537 -0.0663
17924TIP3   OH275186   3.100   1.273   5.662 -0.1526 -0.3324  0.0378
17924TIP3    H175187   3.176   1.309   5.706  1.5318 -1.5949 -1.6470
17924TIP3    H275188   3.031   1.338   5.675  1.1726  0.8132  1.6951
17925TIP3   OH275189   2.775   0.166  12.978 -0.4060  0.3297  0.5429
17925TIP3    H175190   2.703   0.215  13.018 -0.9808  0.5365 -0.6711
17925TIP3    H275191   2.731   0.105  12.918  0.4335  1.8553 -1.7750
17926TIP3   OH275192   4.052   2.722  16.361  0.4601  0.1170  0.1057
17926TIP3    H175193   3.992   2.660  16.319  1.3283 -1.1193  0.6381
17926TIP3    H275194   4.068   2.685  16.448  1.1434  1.0091  0.3743
17927TIP3   OH275195   3.352   2.880   4.971  0.1375 -0.1959  0.3959
17927TIP3    H175196   3.338   2.797   5.017 -2.4482  0.0913  0.2589
17927TIP3    H275197   3.335   2.947   5.037 -0.1288  0.2262 -0.1006
17928TIP3   OH275198   1.405   0.690   3.257  0.3179 -0.4351  0.2495
17928TIP3    H175199   1.422   0.616   3.315 -0.9980 -0.8354  0.1588
17928TIP3    H275200   1.485   0.701   3.206  0.9886 -0.9586  1.1753
17929TIP3   OH275201   3.743   4.688  16.202 -0.1826 -0.5611 -0.0992
17929TIP3    H175202   3.799   4.660  16.274 -0.9191  0.4309  0.8912
17929TIP3    H275203   3.802   4.733  16.142  0.3145 -0.7379  0.2487
17930TIP3   OH275204   4.574   5.693  13.814 -0.5213  0.2508  0.3539
17930TIP3    H175205   4.489   5.686  13.770 -0.3380 -0.0903  0.0512
17930TIP3    H275206   4.581   5.613  13.866 -0.1328  0.0026 -0.0746
17931TIP3   OH275207   3.031   4.678   2.779  0.7074  0.4461 -0.0409
17931TIP3    H175208   3.115   4.632   2.783  1.4668  1.7983  0.0214
17931TIP3    H275209   2.966   4.608   2.771  1.9079 -0.5966 -1.2378
17932TIP3   OH275210   0.238   1.523   1.558 -0.8027 -0.0162 -0.0950
17932TIP3    H175211   0.276   1.604   1.524  1.0441 -1.4961 -1.8417
17932TIP3    H275212   0.310   1.480   1.604 -1.2457 -1.3833 -0.6184
17933TIP3   OH275213   4.589   0.495   4.686 -0.0757  0.1646  0.2268
17933TIP3    H175214   4.604   0.461   4.598 -0.8996  0.4709 -0.0332
17933TIP3    H275215   4.597   0.590   4.677 -3.5886  0.5386 -0.2687
17934TIP3   OH275216   3.091   6.453  13.126  0.6167  0.5428 -0.1606
17934TIP3    H175217   3.052   6.398  13.058 -1.5144  0.6097  0.9115
17934TIP3    H275218   3.174   6.482  13.089  2.6531 -4.4658 -0.2760
17935TIP3   OH275219   6.297   0.326  17.026  0.1263 -0.3131 -0.1520
17935TIP3    H175220   6.306   0.340  17.120 -1.7838  0.2870 -0.0222
17935TIP3    H275221   6.385   0.301  16.997  0.7907 -0.3154  1.7438
17936TIP3   OH275222   4.302   3.168  14.246  0.4084 -0.2011  0.0502
17936TIP3    H175223   4.237   3.102  14.273 -0.4890  0.1884 -1.0756
17936TIP3    H275224   4.364   3.119  14.193 -1.0214  0.0407 -1.9623
17937TIP3   OH275225   6.694   2.610  15.153 -0.4364 -0.3603  0.1351
17937TIP3    H175226   6.681   2.594  15.246  0.0181 -0.2206  0.2246
17937TIP3    H275227   6.756   2.543  15.125  0.7867  0.6537  0.3212
17938TIP3   OH275228   3.906   3.624   2.214 -0.2528  0.0342 -0.1698
17938TIP3    H175229   3.810   3.630   2.218 -0.2445  1.3526 -1.5043
17938TIP3    H275230   3.928   3.564   2.285 -2.1433 -1.1127 -0.4785
17939TIP3   OH275231   6.114   3.588  16.790 -0.1144 -0.3151  0.4092
17939TIP3    H175232   6.146   3.515  16.842 -0.8089 -2.0623 -1.4763
17939TIP3    H275233   6.151   3.575  16.703  0.4798  2.1285  0.2104
17940TIP3   OH275234   5.270   2.792   0.519 -0.2715 -0.9418 -0.1380
17940TIP3    H175235   5.312   2.738   0.452 -0.5341  0.9955 -1.9636
17940TIP3    H275236   5.218   2.856   0.469 -0.7190  0.3965  1.9362
17941TIP3   OH275237   1.599   6.705   1.188 -0.0501  0.3616 -0.2537
17941TIP3    H175238   1.667   6.668   1.244 -0.4013  1.5340  1.0077
17941TIP3    H275239   1.553   6.629   1.152  1.4821 -0.4363 -0.5941
17942TIP3   OH275240   4.238   4.865   4.364 -0.2966  0.3913  0.7383
17942TIP3    H175241   4.291   4.792   4.398 -0.0952  0.8315  1.3848
17942TIP3    H275242   4.156   4.824   4.337  0.2311 -0.2492  0.0580
17943TIP3   OH275243   5.381   3.117   2.366 -1.0226  0.0178 -0.3703
17943TIP3    H175244   5.419   3.029   2.371 -0.5010  0.2625  0.1262
17943TIP3    H275245   5.333   3.128   2.448  0.4229  0.8581  0.4076
17944TIP3   OH275246   2.689   5.259  16.493  0.1663 -0.0412 -0.3954
17944TIP3    H175247   2.702   5.345  16.454 -1.0776  0.3119 -0.0718
17944TIP3    H275248   2.691   5.275  16.588 -0.2932 -0.3198 -0.3326
17945TIP3   OH275249   2.976   3.472  12.290  1.1136 -0.5375 -0.6632
17945TIP3    H175250   2.884   3.465  12.266  0.7813  0.6507  0.1525
17945TIP3    H275251   3.000   3.385  12.321 -0.0569 -0.6044  0.1139
17946TIP3   OH275252   6.194   3.628  12.127  0.6843 -0.0041 -0.5770
17946TIP3    H175253   6.138   3.691  12.081 -0.2580 -2.0603 -2.4449
17946TIP3    H275254   6.158   3.623  12.215  0.1888  1.3322 -0.6872
17947TIP3   OH275255   2.833   3.895   3.795 -0.0850  0.7587 -0.3241
17947TIP3    H175256   2.809   3.936   3.878  0.2597  0.2508  0.0356
17947TIP3    H275257   2.835   3.801   3.815  1.4826  0.7304 -0.5189
17948TIP3   OH275258   3.988   4.106  16.978 -0.2252  0.3433 -0.0066
17948TIP3    H175259   4.060   4.047  17.003  0.6714  0.7552 -1.4869
17948TIP3    H275260   3.909   4.059  17.005  0.5241 -0.9235  0.1086
17949TIP3   OH275261   6.613   0.056   0.890 -0.5802 -0.4464 -0.7563
17949TIP3    H175262   6.637   0.014   0.807 -0.8184 -1.2461 -0.4364
17949TIP3    H275263   6.530   0.013   0.915 -0.1081 -0.7941  0.2826
17950TIP3   OH275264   1.964   5.627   2.975  0.0023  0.3002 -0.2285
17950TIP3    H175265   2.055   5.655   2.972 -0.6090  2.7193  0.9288
17950TIP3    H275266   1.926   5.657   2.892 -0.4965  2.5510  0.7408
17951TIP3   OH275267   3.969   5.810  11.031 -0.1521  0.2435  0.1406
17951TIP3    H175268   3.928   5.879  10.979 -0.8270  1.1760  1.8096
17951TIP3    H275269   4.029   5.856  11.090  0.0756 -0.6744  0.6558
17952TIP3   OH275270   0.097   1.205  16.184 -0.1081  0.1875  0.5286
17952TIP3    H175271   0.173   1.150  16.203 -0.2775  0.1477  1.0935
17952TIP3    H275272   0.118   1.246  16.100  0.8966  0.8023  1.0664
17953TIP3   OH275273   0.990   2.862   1.584  0.4168 -0.4525  0.6888
17953TIP3    H175274   0.918   2.864   1.521  0.6792 -2.2746  0.2652
17953TIP3    H275275   0.980   2.942   1.634 -1.6691 -0.4525  0.3707
17954TIP3   OH275276   2.212   5.850   3.155 -0.1332  0.5785  0.0338
17954TIP3    H175277   2.212   5.822   3.063 -1.2814 -0.1703  0.2364
17954TIP3    H275278   2.305   5.861   3.177  0.1227  2.1921 -1.6180
17955TIP3   OH275279   5.286   2.183   1.137 -0.2261  0.1600 -0.0465
17955TIP3    H175280   5.241   2.267   1.143 -0.8308 -0.2099  0.7747
17955TIP3    H275281   5.335   2.176   1.219  1.5951  0.6774 -1.0276
17956TIP3   OH275282   5.467   3.790   4.199  0.9737 -0.6146  0.0379
17956TIP3    H175283   5.452   3.698   4.180 -0.0408 -0.9011  1.9808
17956TIP3    H275284   5.455   3.798   4.294 -3.2075  2.2089 -0.4637
17957TIP3   OH275285   0.204   3.464   1.304 -0.2628  0.5020 -0.0560
17957TIP3    H175286   0.209   3.548   1.257 -1.4416  0.5502 -0.1353
17957TIP3    H275287   0.197   3.489   1.396  0.1239  0.4723 -0.0206
17958TIP3   OH275288   1.893   5.277   4.029 -0.3248 -0.2511  0.3274
17958TIP3    H175289   1.910   5.187   4.056 -0.4437  0.2869  2.2837
17958TIP3    H275290   1.798   5.279   4.011 -0.0935 -0.8347 -1.1780
17959TIP3   OH275291   3.056   6.346   0.233  0.6140  0.4967  0.1097
17959TIP3    H175292   3.055   6.326   0.139  0.0401  1.8069 -0.1865
17959TIP3    H275293   2.984   6.293   0.269  0.8082  0.0200 -0.1869
17960TIP3   OH275294   4.995   0.503   4.042 -0.6959  0.4341 -0.6016
17960TIP3    H175295   5.056   0.430   4.033 -0.4643  0.3332  1.2992
17960TIP3    H275296   4.940   0.499   3.964  0.1290 -0.9912 -1.1437
17961TIP3   OH275297   6.296   4.558   2.860  0.5868 -0.0249  0.0824
17961TIP3    H175298   6.286   4.521   2.772  0.0469  0.1417  0.0738
17961TIP3    H275299   6.391   4.572   2.868  0.6092  0.3016 -0.6172
17962TIP3   OH275300   3.924   2.651   2.629 -0.3583  0.5574 -0.3449
17962TIP3    H175301   3.958   2.733   2.666 -2.0271  1.3217 -0.4276
17962TIP3    H275302   3.838   2.641   2.669  0.1906 -1.7008  0.4223
17963TIP3   OH275303   1.737   5.941   3.533 -0.3431  0.6127  0.0468
17963TIP3    H175304   1.703   5.884   3.602 -1.4352 -1.2340 -1.8923
17963TIP3    H275305   1.831   5.927   3.533 -0.7186 -2.8092 -1.5729
17964TIP3   OH275306   2.484   3.147  13.533 -0.0322  0.0884  0.0779
17964TIP3    H175307   2.562   3.173  13.484  0.4102 -0.5078  0.4575
17964TIP3    H275308   2.411   3.181  13.481  0.5094  2.8602  0.9531
17965TIP3   OH275309   0.901   2.243   0.345 -0.9156  0.5194 -0.2973
17965TIP3    H175310   0.836   2.182   0.311  0.3114 -0.6423 -0.6674
17965TIP3    H275311   0.970   2.245   0.278  0.2186  0.3796  0.8152
17966TIP3   OH275312   6.186   5.200  13.079  0.0747  0.0159  0.2592
17966TIP3    H175313   6.107   5.169  13.035  0.2193  0.0593 -0.0347
17966TIP3    H275314   6.154   5.247  13.156 -0.2039  0.4410 -0.1116
17967TIP3   OH275315   3.757   4.624  12.758  0.2695 -0.0601 -0.2486
17967TIP3    H175316   3.805   4.693  12.804 -0.2661 -0.0769  0.3563
17967TIP3    H275317   3.665   4.641  12.780  0.1332 -0.9861 -0.0673
17968TIP3   OH275318   5.024   4.420  16.493 -0.0789  0.4808 -0.2958
17968TIP3    H175319   5.035   4.352  16.560 -1.4511  0.1491 -0.3623
17968TIP3    H275320   4.965   4.484  16.533  1.6598  1.9865 -0.0127
17969TIP3   OH275321   2.504   5.313   6.938  0.0103  0.4473 -0.7392
17969TIP3    H175322   2.429   5.260   6.911  0.7826 -0.3195 -1.4347
17969TIP3    H275323   2.480   5.403   6.914 -0.4269  0.1315 -1.5307
17970TIP3   OH275324   6.771   0.252   3.996 -0.3333 -0.2389 -0.4085
17970TIP3    H175325   6.715   0.302   3.937 -0.8753  1.6480  1.5634
17970TIP3    H275326   6.718   0.178   4.024  0.1087 -1.4694 -2.5600
17971TIP3   OH275327   3.071   3.516   5.229 -0.7213  0.3957  0.3748
17971TIP3    H175328   3.166   3.532   5.227 -0.4922 -0.5982  1.6911
17971TIP3    H275329   3.060   3.433   5.183 -0.8797  0.2129  0.7428
17972TIP3   OH275330   4.671   6.568   1.196  0.3953 -0.1599  0.4286
17972TIP3    H175331   4.643   6.633   1.132  0.3494 -0.1578  0.4515
17972TIP3    H275332   4.593   6.548   1.247 -0.0630 -1.5948 -0.7516
17973TIP3   OH275333   1.099   5.612   3.761  0.0405  0.4843 -0.4131
17973TIP3    H175334   1.051   5.620   3.679  0.3515 -0.1146 -0.6608
17973TIP3    H275335   1.098   5.700   3.799 -1.2852  0.4797 -0.3875
17974TIP3   OH275336   6.324   3.009   2.064 -0.3089  0.6789  0.6204
17974TIP3    H175337   6.377   2.947   2.113  0.5285 -0.1101 -1.1839
17974TIP3    H275338   6.291   2.959   1.990  0.1475  2.2750 -0.7246
17975TIP3   OH275339   6.292   4.342   4.980  0.8250 -0.3035  0.2610
17975TIP3    H175340   6.325   4.258   5.014 -0.1557 -0.7144  0.2364
17975TIP3    H275341   6.276   4.395   5.058  0.2738 -0.6020  0.3621
17976TIP3   OH275342   4.466   4.369  16.074  0.3517  0.1571 -0.1364
17976TIP3    H175343   4.519   4.394  15.999  0.7185  1.1010  0.4124
17976TIP3    H275344   4.407   4.302  16.041 -0.2028  1.2766 -1.5355
17977TIP3   OH275345   0.916   6.517  16.005 -0.1114 -0.0713 -0.0699
17977TIP3    H175346   0.891   6.577  16.075 -0.5661  0.4611 -0.6816
17977TIP3    H275347   0.899   6.565  15.924 -0.7400 -1.1168 -0.5774
17978TIP3   OH275348   3.143   4.570  16.227  0.2957 -0.1989 -0.8684
17978TIP3    H175349   3.111   4.534  16.144 -1.3154  2.4662 -1.5376
17978TIP3    H275350   3.106   4.514  16.294 -1.7756 -0.1053 -1.8600
17979TIP3   OH275351   1.286   0.139   3.089  0.0414  0.0794  0.0691
17979TIP3    H175352   1.266   0.049   3.062 -0.0474 -0.4018  1.6152
17979TIP3    H275353   1.201   0.180   3.104  0.0908  0.0046  0.5900
17980TIP3   OH275354   5.988   6.298  12.087  0.2480  0.2938 -0.1564
17980TIP3    H175355   6.039   6.250  12.021  0.8831 -0.0231  0.5467
17980TIP3    H275356   5.940   6.364  12.037  1.4733  0.7085 -0.8288
17981TIP3   OH275357   1.884   4.019   5.495 -0.1725 -0.1154 -0.3044
17981TIP3    H175358   1.829   4.093   5.518  0.1909  1.0767 -2.8486
17981TIP3    H275359   1.874   4.011   5.400  0.8219 -2.5231 -0.2757
17982TIP3   OH275360   4.857   4.207   3.283  0.0659  0.8313  0.3144
17982TIP3    H175361   4.843   4.112   3.280  0.2809  0.7951  0.4384
17982TIP3    H275362   4.850   4.230   3.376 -0.3516  0.9951  0.2462
17983TIP3   OH275363   6.412   1.750  15.514  0.3204  0.4935 -0.1734
17983TIP3    H175364   6.319   1.767  15.530  0.4430  1.2076 -0.2055
17983TIP3    H275365   6.412   1.681  15.447 -0.1906  0.8951 -0.5976
17984TIP3   OH275366   1.677   4.500  14.697  0.6972 -0.6301  0.6046
17984TIP3    H175367   1.641   4.546  14.772 -1.2707 -0.4761 -0.3809
17984TIP3    H275368   1.662   4.407  14.716 -0.5522 -0.5542  0.0712
17985TIP3   OH275369   6.474   3.353  11.830 -0.8419  0.2731 -0.7691
17985TIP3    H175370   6.565   3.383  11.839 -0.0792 -2.0633 -0.0463
17985TIP3    H275371   6.443   3.342  11.920 -1.6830  0.5110 -1.0175
17986TIP3   OH275372   3.776   6.282  14.262 -0.0582 -0.2424 -0.0740
17986TIP3    H175373   3.798   6.352  14.201 -0.8228 -1.3789 -1.7248
17986TIP3    H275374   3.752   6.208  14.206 -1.0439 -1.2612  1.6101
17987TIP3   OH275375   3.390   5.522   1.002 -0.0374 -0.5210 -1.1041
17987TIP3    H175376   3.301   5.508   0.971  0.0627  0.9995 -2.2035
17987TIP3    H275377   3.383   5.523   1.097 -0.8279 -2.4764 -1.0974
17988TIP3   OH275378   4.798   5.914   3.520 -0.7431 -0.3305 -0.7180
17988TIP3    H175379   4.784   5.970   3.597  1.0749 -1.2017  0.3195
17988TIP3    H275380   4.734   5.843   3.530  1.0855 -1.8319  1.4735
17989TIP3   OH275381   3.287   4.175   0.746 -0.1231  0.1870 -0.1573
17989TIP3    H175382   3.343   4.101   0.721 -1.3097 -0.0261 -2.4542
17989TIP3    H275383   3.332   4.252   0.712 -0.8490  0.0834 -1.3935
17990TIP3   OH275384   0.046   5.400   5.273  0.8600 -0.1252  0.1506
17990TIP3    H175385   0.127   5.358   5.302  1.2267 -0.2916 -1.0703
17990TIP3    H275386  -0.005   5.330   5.232  0.8999  0.3349 -0.7108
17991TIP3   OH275387   0.576   1.698  14.576 -0.5709  0.5330  0.0759
17991TIP3    H175388   0.566   1.714  14.670  0.9365 -1.5889  0.6795
17991TIP3    H275389   0.667   1.723  14.557 -0.7917  0.7135 -0.7562
17992TIP3   OH275390   6.156   3.667  13.452 -0.4510 -0.0230  0.1411
17992TIP3    H175391   6.063   3.675  13.475 -0.5995  0.9627 -0.7102
17992TIP3    H275392   6.201   3.669  13.537 -1.1128  1.3327  0.4970
17993TIP3   OH275393   4.811   2.371  11.724 -0.2877 -0.2047 -0.3028
17993TIP3    H175394   4.739   2.315  11.694  2.1797 -3.6107 -0.4320
17993TIP3    H275395   4.867   2.381  11.647  0.5573  0.3826  0.3710
17994TIP3   OH275396   1.511   0.016  12.665 -0.2438  0.6504 -0.9304
17994TIP3    H175397   1.441  -0.031  12.620 -0.8060  0.1254  0.4453
17994TIP3    H275398   1.502  -0.009  12.757 -1.3307  4.3688  0.1215
17995TIP3   OH275399   2.137   4.500  15.152  0.6144  0.4307  0.5408
17995TIP3    H175400   2.056   4.540  15.118  0.1639 -0.8284  0.0967
17995TIP3    H275401   2.138   4.412  15.114  0.3993 -0.8532  3.2955
17996TIP3   OH275402   0.363   3.472  11.271  0.0702  0.0848  0.0843
17996TIP3    H175403   0.384   3.526  11.348 -0.4723 -0.1391  0.3973
17996TIP3    H275404   0.328   3.534  11.208  0.6631  0.2952 -0.0487
17997TIP3   OH275405   0.436   5.925  12.818  0.0328 -0.6934 -0.8231
17997TIP3    H175406   0.414   5.866  12.890  0.3119  1.3889  1.0680
17997TIP3    H275407   0.494   5.990  12.857 -1.2497  1.5628 -2.4742
17998TIP3   OH275408   1.910   6.495   2.812  0.1618 -0.0712 -0.5082
17998TIP3    H175409   1.885   6.552   2.885 -2.9673  0.0775 -1.5468
17998TIP3    H275410   1.950   6.419   2.854  0.1226  0.8067  1.2268
17999TIP3   OH275411   0.611   2.723   4.019  0.0808 -0.4861 -0.0639
17999TIP3    H175412   0.587   2.815   4.018  1.2786 -0.1579 -1.5823
17999TIP3    H275413   0.529   2.677   4.038 -1.7165  0.6007 -4.1961
18000TIP3   OH275414   4.962   4.041  12.556 -0.1272 -0.0281  0.6348
18000TIP3    H175415   4.950   4.018  12.464  1.9028 -0.2949  0.3921
18000TIP3    H275416   4.926   3.967  12.605 -0.2941 -0.3433  0.0378
18001TIP3   OH275417   2.796   2.933   3.377 -0.8248  0.1755 -0.4369
18001TIP3    H175418   2.870   2.980   3.338 -2.0856  1.0512 -1.9440
18001TIP3    H275419   2.774   2.983   3.455 -0.5836  0.6477 -0.6659
18002TIP3   OH275420   6.697   0.581   2.585  0.0784 -0.4729 -0.1864
18002TIP3    H175421   6.745   0.664   2.592 -0.7631  0.0215 -0.2733
18002TIP3    H275422   6.626   0.589   2.648 -0.0616 -1.1042 -0.2582
18003TIP3   OH275423   3.100   0.962   3.808  0.0018  0.1611 -0.3436
18003TIP3    H175424   3.120   0.869   3.820 -1.5242  0.0264  1.6611
18003TIP3    H275425   3.013   0.963   3.769 -0.4314  0.7150  0.5970
18004TIP3   OH275426   0.886   1.617  15.130  0.4058 -0.4576  0.1247
18004TIP3    H175427   0.960   1.617  15.191 -0.7768  2.2083  1.7558
18004TIP3    H275428   0.911   1.681  15.063  0.1577 -0.6337 -0.1382
18005TIP3   OH275429   5.445   1.032  13.410  0.0855 -0.2681 -0.1020
18005TIP3    H175430   5.458   0.973  13.336 -0.6203 -0.1285 -0.3493
18005TIP3    H275431   5.447   1.119  13.372 -2.7600 -0.2399 -0.4344
18006TIP3   OH275432   1.197   3.182   3.299  0.0440 -0.3239  0.5174
18006TIP3    H175433   1.212   3.195   3.205  3.3251  0.0613  0.9911
18006TIP3    H275434   1.232   3.095   3.317  0.7441  0.1619  1.5912
18007TIP3   OH275435   5.871   2.260  13.699 -0.3462 -0.1824 -0.3728
18007TIP3    H175436   5.922   2.179  13.691 -0.7222 -0.3342 -1.3583
18007TIP3    H275437   5.827   2.269  13.615 -0.4293  0.9827 -0.2187
18008TIP3   OH275438   1.132   0.687  13.203 -0.3105  0.1542  0.3449
18008TIP3    H175439   1.163   0.775  13.180 -1.7091  0.7680  0.6948
18008TIP3    H275440   1.120   0.643  13.119 -0.7640  0.7217  0.1012
18009TIP3   OH275441   5.554   2.456  13.016  0.5981 -0.3382  0.2188
18009TIP3    H175442   5.562   2.518  13.089 -1.0277  0.8372 -0.5232
18009TIP3    H275443   5.478   2.403  13.039  1.3916 -1.4330  0.3736
18010TIP3   OH275444   1.555   6.522   5.882 -0.3587  0.4032 -0.3747
18010TIP3    H175445   1.507   6.579   5.822 -2.0490  0.2164  0.7347
18010TIP3    H275446   1.569   6.441   5.833 -1.9123  0.1682 -0.4717
18011TIP3   OH275447   3.065   1.910  13.288  0.5352 -0.4540  0.0302
18011TIP3    H175448   3.155   1.930  13.313 -0.0246  1.1298  0.9462
18011TIP3    H275449   3.012   1.964  13.346 -1.0045 -1.0241 -0.7911
18012TIP3   OH275450   6.388   1.327  12.661  0.0103 -0.9224 -0.5751
18012TIP3    H175451   6.405   1.378  12.740 -1.0152 -0.9926 -0.2971
18012TIP3    H275452   6.450   1.254  12.665  1.2536  0.0781 -0.8027
18013TIP3   OH275453   3.660   0.660   2.376  0.3754 -0.1161  0.6162
18013TIP3    H175454   3.738   0.692   2.422  0.5031 -0.4376  0.6223
18013TIP3    H275455   3.654   0.715   2.298 -0.0519  0.6873  1.1953
18014TIP3   OH275456   2.154   4.322  14.683  0.6581 -0.1333  0.1448
18014TIP3    H175457   2.113   4.409  14.682  1.4901  0.2671  0.3890
18014TIP3    H275458   2.080   4.261  14.680  0.0845  0.5696 -1.1458
18015TIP3   OH275459   2.231   1.797   1.968 -0.4984  0.0687  0.1358
18015TIP3    H175460   2.157   1.801   1.907  0.2886  0.8048 -0.8001
18015TIP3    H275461   2.251   1.888   1.988  1.8086  0.0627 -1.7182
18016TIP3   OH275462   5.870   1.168  16.378 -0.6000 -0.1531  0.1902
18016TIP3    H175463   5.808   1.126  16.438 -0.5794 -0.4502  0.0061
18016TIP3    H275464   5.864   1.261  16.399 -3.3226  0.2408 -1.8061
18017TIP3   OH275465   3.223   4.102  15.048 -0.5914 -0.3291  0.0564
18017TIP3    H175466   3.197   4.063  15.131 -1.7223  1.4784  0.6042
18017TIP3    H275467   3.165   4.061  14.984 -1.2140 -0.1606  0.4987
18018TIP3   OH275468   6.330   3.141   3.281  0.0328  0.3235 -0.7026
18018TIP3    H175469   6.301   3.134   3.190  1.4886 -0.4206 -1.1471
18018TIP3    H275470   6.275   3.079   3.329  0.4025 -0.5567 -1.3900
18019TIP3   OH275471   1.366   2.851  15.091  0.1371 -0.3535 -0.0104
18019TIP3    H175472   1.437   2.828  15.151  0.6686 -1.2089 -0.9334
18019TIP3    H275473   1.411   2.880  15.011 -0.4479  3.6110  0.8598
18020TIP3   OH275474   4.009   0.470  13.785  0.1739 -0.3302  0.2273
18020TIP3    H175475   3.999   0.375  13.782  0.0007 -0.2833 -1.1042
18020TIP3    H275476   3.986   0.500  13.697 -2.5864  1.2223  1.3465
18021TIP3   OH275477   1.736   1.883   5.124  0.2544 -0.2212 -0.3672
18021TIP3    H175478   1.774   1.796   5.107 -1.2296 -1.0985  0.5951
18021TIP3    H275479   1.752   1.898   5.217  0.7795  0.6989 -0.5988
18022TIP3   OH275480   3.627   5.181   1.522  0.0137 -0.1760  0.1513
18022TIP3    H175481   3.593   5.268   1.544  0.7832 -0.0018  0.6703
18022TIP3    H275482   3.606   5.170   1.429  0.2421  0.7247 -0.0121
18023TIP3   OH275483   5.138   0.001  11.934  0.7659  0.5087 -0.6133
18023TIP3    H175484   5.053   0.044  11.945  1.3904  1.9928 -1.2201
18023TIP3    H275485   5.120  -0.092  11.939 -0.3255  0.7745  3.3649
18024TIP3   OH275486   2.338   0.687  14.517 -0.1692 -0.0907 -0.0854
18024TIP3    H175487   2.357   0.770  14.561 -0.5230  0.0186 -0.1346
18024TIP3    H275488   2.390   0.689  14.437 -0.4117  0.2198 -0.2372
18025TIP3   OH275489   5.733   5.596   4.715  0.3337 -0.5958  1.1480
18025TIP3    H175490   5.765   5.685   4.732 -0.8715  0.0888  0.0447
18025TIP3    H275491   5.804   5.554   4.667 -0.3649  0.9857 -1.5155
18026TIP3   OH275492   3.352   3.813  13.774 -0.0960  0.1502 -0.2308
18026TIP3    H175493   3.355   3.741  13.711  2.8393 -0.2190  0.1775
18026TIP3    H275494   3.375   3.890  13.722  0.2955  0.1919  0.0067
18027TIP3   OH275495   6.640   1.853  13.410  0.1401 -0.3924  0.0526
18027TIP3    H175496   6.582   1.913  13.363 -0.8575  0.6060  2.3979
18027TIP3    H275497   6.585   1.778  13.432 -0.0883  0.1688  1.5314
18028TIP3   OH275498   2.384   1.161  16.986  0.0714  0.3736 -0.1335
18028TIP3    H175499   2.336   1.181  17.066  0.8933 -0.1734  0.5192
18028TIP3    H275500   2.385   1.244  16.937  0.3567  0.9665  0.8574
18029TIP3   OH275501   2.679   4.104  12.348  0.3175  0.4334  0.0053
18029TIP3    H175502   2.597   4.152  12.363  1.1710  0.9850  3.8972
18029TIP3    H275503   2.742   4.172  12.322 -0.1470  0.1723 -1.9146
18030TIP3   OH275504   2.249   3.022  11.946 -0.6019 -0.2779  0.3966
18030TIP3    H175505   2.314   3.004  11.879  1.2970 -0.2353  2.1191
18030TIP3    H275506   2.168   2.986  11.911  0.3647 -0.5464 -1.7420
18031TIP3   OH275507   6.484   1.657   4.506 -0.1008 -0.0083 -0.0783
18031TIP3    H175508   6.573   1.688   4.493 -0.6706  1.4187 -0.8035
18031TIP3    H275509   6.454   1.632   4.418 -0.5566 -0.0928  0.0980
18032TIP3   OH275510   5.999   3.172   5.126 -0.3583  0.3555  0.2852
18032TIP3    H175511   5.924   3.119   5.153  0.6609 -1.5617 -0.4621
18032TIP3    H275512   5.960   3.246   5.079 -1.7535 -1.7107 -2.0059
18033TIP3   OH275513   0.703   4.534   2.404 -0.0489 -0.3610 -0.3237
18033TIP3    H175514   0.719   4.525   2.311 -0.3425  1.4421 -0.5875
18033TIP3    H275515   0.626   4.592   2.410 -1.0618 -1.7465  1.0122
18034TIP3   OH275516   2.191   0.285  13.982  0.4514 -0.0111 -0.4239
18034TIP3    H175517   2.262   0.280  14.046 -1.1409 -0.0286  1.4212
18034TIP3    H275518   2.203   0.369  13.939  0.9998  0.4605  0.6169
18035TIP3   OH275519   1.937   6.031  15.908 -0.4657  0.8249  0.0374
18035TIP3    H175520   1.899   5.947  15.884 -1.1949  0.8527  1.0423
18035TIP3    H275521   1.861   6.088  15.922  0.0158  1.7730 -1.0132
18036TIP3   OH275522   1.920   5.089   3.732  0.4488 -0.0283 -0.3962
18036TIP3    H175523   1.894   5.072   3.823  0.6157 -0.4173 -0.4190
18036TIP3    H275524   1.856   5.041   3.679 -0.3508  1.1268 -0.5273
18037TIP3   OH275525   1.630   6.271  12.464  0.0341 -0.0053 -0.7080
18037TIP3    H175526   1.599   6.346  12.413  0.6511  0.0728 -0.9736
18037TIP3    H275527   1.554   6.212  12.467 -0.8768  1.1536  0.5748
18038TIP3   OH275528   5.252   2.708   0.813 -0.1217 -0.0258  0.0303
18038TIP3    H175529   5.316   2.759   0.862 -0.3663  0.5441 -0.2407
18038TIP3    H275530   5.249   2.750   0.727 -0.5086 -0.3436 -0.1139
18039TIP3   OH275531   1.474   6.391  14.631 -0.1814 -0.5520 -0.4757
18039TIP3    H175532   1.469   6.298  14.654 -1.2003 -0.6074 -0.8901
18039TIP3    H275533   1.406   6.433  14.683 -0.1974 -0.1435 -0.8230
18040TIP3   OH275534   0.823   4.725  12.272  0.3743  0.4796  0.0762
18040TIP3    H175535   0.738   4.733  12.315  0.6295  0.9208  0.5177
18040TIP3    H275536   0.858   4.642  12.304 -0.2616 -0.1368 -0.7984
18041TIP3   OH275537   5.341   6.589   1.232  0.2065  0.0348  0.2132
18041TIP3    H175538   5.428   6.628   1.231  0.1757  0.1088 -0.3536
18041TIP3    H275539   5.299   6.623   1.152 -0.7011  0.7975  0.9974
18042TIP3   OH275540   1.212   6.441   6.695  0.3607 -0.5074 -0.1558
18042TIP3    H175541   1.134   6.445   6.640  0.5943 -0.1435 -0.4632
18042TIP3    H275542   1.249   6.354   6.676  0.6276 -0.2520 -0.8400
18043TIP3   OH275543   6.197   1.687   0.664 -0.5099  0.1904 -0.2484
18043TIP3    H175544   6.290   1.673   0.649 -0.7891 -0.3481 -1.5805
18043TIP3    H275545   6.191   1.706   0.758  1.0473  1.3299 -0.3390
18044TIP3   OH275546   5.827   6.449   4.610 -0.5393 -0.0621 -0.8371
18044TIP3    H175547   5.855   6.400   4.687 -0.6397  1.3395  0.1256
18044TIP3    H275548   5.908   6.470   4.564 -0.0631  2.3106  0.9120
18045TIP3   OH275549   0.520   4.215  14.711 -0.5910  0.2881 -0.0739
18045TIP3    H175550   0.458   4.284  14.688  1.3092  1.9484 -0.4937
18045TIP3    H275551   0.528   4.221  14.806 -0.7011  0.4014 -0.0706
18046TIP3   OH275552   1.074   3.686  12.300  0.4521 -0.2401 -0.1757
18046TIP3    H175553   1.083   3.620  12.231 -0.5095  0.1219 -0.6549
18046TIP3    H275554   1.067   3.634  12.381 -0.5752 -0.7631 -0.5757
18047TIP3   OH275555   5.206   1.909  16.150 -0.6836  0.0416  0.0145
18047TIP3    H175556   5.131   1.967  16.135 -0.4036  0.5572  0.5773
18047TIP3    H275557   5.210   1.899  16.245 -0.6465 -0.8010 -0.0685
18048TIP3   OH275558   4.194   2.108  10.773  0.0648  0.4112  0.2312
18048TIP3    H175559   4.169   2.191  10.813 -1.0964  0.1390  0.1193
18048TIP3    H275560   4.278   2.125  10.732  0.2769  1.2722  0.9911
18049TIP3   OH275561   2.213   3.274  13.923  0.4456 -0.2450 -0.2411
18049TIP3    H175562   2.268   3.323  13.984  0.4932  0.2042 -0.6314
18049TIP3    H275563   2.162   3.215  13.977  1.0433 -0.3938  0.1596
18050TIP3   OH275564   1.767   5.565   5.801 -0.0075 -0.1514  0.0168
18050TIP3    H175565   1.736   5.476   5.818 -0.1461 -0.3083 -1.0276
18050TIP3    H275566   1.846   5.574   5.854  0.0865 -0.9410  0.0177
18051TIP3   OH275567   4.818   4.950  13.109 -0.1086 -0.6629 -0.1120
18051TIP3    H175568   4.792   4.960  13.017  0.5569 -2.1110 -0.4898
18051TIP3    H275569   4.904   4.992  13.114  0.1964 -1.2435 -0.3511
18052TIP3   OH275570   0.634   6.224  13.432 -0.2652 -0.0078 -0.2576
18052TIP3    H175571   0.719   6.224  13.476  0.3755 -0.4862 -1.4398
18052TIP3    H275572   0.645   6.283  13.357 -2.8285  4.9735  2.7635
18053TIP3   OH275573   1.902   6.619  16.294 -0.0674 -0.1426 -0.2862
18053TIP3    H175574   1.864   6.702  16.264  0.0941 -0.4663 -1.4490
18053TIP3    H275575   1.826   6.562  16.309 -0.2227  0.4456  1.2980
18054TIP3   OH275576   5.898   2.605  13.094 -0.2648 -0.1668 -0.0964
18054TIP3    H175577   5.985   2.631  13.064  0.9260 -0.3085  2.8734
18054TIP3    H275578   5.878   2.666  13.165 -1.4855 -1.6666  0.9129
18055TIP3   OH275579   5.049   4.952  12.676  0.5007  0.1563 -0.1819
18055TIP3    H175580   4.970   4.944  12.623  1.1335 -0.6364 -1.0410
18055TIP3    H275581   5.034   5.030  12.730  0.2025  1.5634 -2.1918
18056TIP3   OH275582   0.986   6.726   6.207 -0.1034  0.5147  0.2597
18056TIP3    H175583   1.006   6.732   6.300  0.7713  0.3952  0.0908
18056TIP3    H275584   1.068   6.697   6.166 -0.1866  1.4790 -0.6598
18057TIP3   OH275585   5.146   2.453  12.471 -0.0980  0.3575 -0.4306
18057TIP3    H175586   5.223   2.452  12.528 -0.2263  0.0098 -0.2600
18057TIP3    H275587   5.182   2.459  12.383  0.1094  0.6747 -0.3252
18058TIP3   OH275588   5.893   0.197   6.267 -0.7132  0.6805  0.0845
18058TIP3    H175589   5.959   0.142   6.309 -1.4225  0.1817  0.5711
18058TIP3    H275590   5.818   0.196   6.327  0.1119  4.3330  1.4767
18059TIP3   OH275591   3.090   4.424   4.265  1.0806 -0.3967  0.1732
18059TIP3    H175592   3.122   4.513   4.274 -1.3452  0.5293  0.2278
18059TIP3    H275593   3.089   4.408   4.170 -0.2632  0.3693  0.0355
18060TIP3   OH275594   3.423   3.795   0.141  0.0544 -0.3449  0.6711
18060TIP3    H175595   3.475   3.875   0.134  0.6234 -0.6931  0.8692
18060TIP3    H275596   3.334   3.825   0.161 -0.0753  0.3253 -0.7311
18061TIP3   OH275597   4.907   4.009   4.749 -0.1021  0.1556  0.0445
18061TIP3    H175598   4.974   3.944   4.726  0.4243  0.2325  1.2868
18061TIP3    H275599   4.955   4.079   4.792 -0.8877  0.5650  0.2704
18062TIP3   OH275600   4.592   4.882  12.203 -0.1454 -0.4655 -0.2314
18062TIP3    H175601   4.573   4.794  12.236  0.1840 -0.4190  0.0857
18062TIP3    H275602   4.648   4.868  12.127 -0.4372 -0.5459 -0.4350
18063TIP3   OH275603   1.882   3.970  13.518  0.3173 -0.2545 -0.1604
18063TIP3    H175604   1.959   3.919  13.545 -0.0406 -0.1614  1.1162
18063TIP3    H275605   1.916   4.034  13.455  1.1461 -0.6970 -0.1775
18064TIP3   OH275606   5.534   2.127  15.669 -0.5949  0.1557 -0.3397
18064TIP3    H175607   5.476   2.068  15.622 -1.3045  0.5270  0.0526
18064TIP3    H275608   5.476   2.195  15.705 -0.1498 -0.3048  1.3642
18065TIP3   OH275609   0.861   5.005  16.361 -0.2627 -0.3215  0.0289
18065TIP3    H175610   0.954   4.982  16.370  0.1939  1.3051 -0.2116
18065TIP3    H275611   0.861   5.082  16.305 -1.6823  0.2949  0.8270
18066TIP3   OH275612   6.147   3.103  16.086  0.6018 -0.8954  0.2951
18066TIP3    H175613   6.201   3.082  16.010  1.0236 -0.2337  0.4002
18066TIP3    H275614   6.210   3.112  16.157  0.7200  2.6243 -0.1193
18067TIP3   OH275615   4.460   1.942  10.779  0.2948 -0.3306 -0.4152
18067TIP3    H175616   4.496   2.018  10.733  1.1340  0.3858  1.3189
18067TIP3    H275617   4.479   1.868  10.722  2.5772  0.3353 -0.6181
18068TIP3   OH275618   4.570   2.169   0.147 -0.2387 -0.0325  0.1649
18068TIP3    H175619   4.579   2.099   0.082 -1.4156 -0.3487  0.3210
18068TIP3    H275620   4.481   2.159   0.181 -0.7171  2.0106 -0.3549
18069TIP3   OH275621   3.729   2.840  16.174 -0.5926 -0.3788 -0.0505
18069TIP3    H175622   3.654   2.820  16.229 -2.6127 -2.0034 -3.0892
18069TIP3    H275623   3.784   2.897  16.227 -2.6014 -1.3221  3.3172
18070TIP3   OH275624   3.089   3.509  13.873  0.6711 -0.6089  0.7690
18070TIP3    H175625   3.016   3.562  13.904  0.6602  0.2428 -0.6321
18070TIP3    H275626   3.167   3.553  13.906  0.7845  1.6632 -2.2142
18071TIP3   OH275627   0.823   1.844   1.146 -0.2086 -0.6627 -0.4855
18071TIP3    H175628   0.773   1.768   1.175 -1.0507  0.8075  2.2324
18071TIP3    H275629   0.767   1.888   1.082 -1.6630 -0.0512  1.1389
18072TIP3   OH275630   1.658   6.571  15.168  0.3155  0.4595  0.2586
18072TIP3    H175631   1.650   6.524  15.085 -2.7607 -0.5968  1.0453
18072TIP3    H275632   1.576   6.555  15.213  2.5406 -0.6138  4.4007
18073TIP3   OH275633   2.580   2.273   0.437 -0.2681  0.0285  0.4782
18073TIP3    H175634   2.578   2.320   0.353  0.9138 -0.1892  0.3104
18073TIP3    H275635   2.607   2.339   0.501  0.1900 -0.1186  0.4444
18074TIP3   OH275636   4.602   0.560  14.884  0.1441  0.1155 -0.3378
18074TIP3    H175637   4.697   0.551  14.893 -0.0629 -1.3176  0.6140
18074TIP3    H275638   4.567   0.525  14.965 -1.2190  0.6411 -0.6802
18075TIP3   OH275639   6.618   6.695  13.391  0.3488 -0.1493  0.6156
18075TIP3    H175640   6.631   6.764  13.327  0.1159 -2.8588 -2.6008
18075TIP3    H275641   6.703   6.685  13.433  1.5130 -0.5078 -1.7116
18076TIP3   OH275642   1.882   5.627   4.448 -0.3957 -0.3180  0.2876
18076TIP3    H175643   1.855   5.686   4.519 -0.6945 -0.1317  0.0209
18076TIP3    H275644   1.973   5.653   4.429 -0.3776 -0.2415  0.4712
18077TIP3   OH275645   6.258   6.689   5.604 -0.0468  0.5303  0.1349
18077TIP3    H175646   6.200   6.743   5.658  0.0017  0.4029  0.3155
18077TIP3    H275647   6.277   6.744   5.528  1.4180  1.4984  1.1367
18078TIP3   OH275648   1.230   4.808   3.680 -0.3948  0.6948 -0.0467
18078TIP3    H175649   1.168   4.835   3.612 -0.6718  0.1126 -0.0289
18078TIP3    H275650   1.252   4.718   3.657 -2.3749 -0.3959  1.9866
18079TIP3   OH275651   5.672   3.255   0.724  0.1688 -0.4571  0.7936
18079TIP3    H175652   5.729   3.178   0.730  0.5769 -0.3854 -1.2215
18079TIP3    H275653   5.728   3.322   0.686 -0.5851  0.3999  1.1776
18080TIP3   OH275654   6.711   1.907   0.913 -0.5323 -0.3018  0.0766
18080TIP3    H175655   6.680   1.856   0.839  0.4545 -0.2211 -0.4007
18080TIP3    H275656   6.803   1.882   0.924 -0.1795  0.9448  0.1880
18081TIP3   OH275657   3.090   1.392  11.431  0.2549  0.3141 -0.5541
18081TIP3    H175658   3.073   1.480  11.465  2.4309 -0.0326  1.6954
18081TIP3    H275659   3.116   1.407  11.340  0.9931  2.0528 -0.1048
18082TIP3   OH275660   6.002   4.450  17.056 -0.5560 -0.4225  0.0484
18082TIP3    H175661   6.044   4.404  16.984  0.3358 -0.3026  0.4792
18082TIP3    H275662   6.061   4.439  17.130 -1.5525 -0.7104  0.8243
18083TIP3   OH275663   1.899   2.380   2.336  0.0891  0.1692 -0.4206
18083TIP3    H175664   1.876   2.292   2.307  0.4613 -0.4903  1.1795
18083TIP3    H275665   1.824   2.409   2.388  0.1466  0.6323 -0.5918
18084TIP3   OH275666   5.426   6.081  15.457 -0.1406 -0.3631 -0.4998
18084TIP3    H175667   5.455   6.095  15.546 -0.3155 -2.3555 -0.0800
18084TIP3    H275668   5.445   6.163  15.411  0.6712  0.4004  1.1574
18085TIP3   OH275669   5.061   2.393  14.610 -0.7410 -0.1706  0.3812
18085TIP3    H175670   5.095   2.404  14.521 -2.6621  0.5150 -0.3115
18085TIP3    H275671   5.114   2.453  14.663 -0.1588  0.0751 -0.4454
18086TIP3   OH275672   1.628   3.334  16.012 -0.2196 -0.1207  0.0246
18086TIP3    H175673   1.537   3.305  16.001 -0.4757  0.5448  0.3270
18086TIP3    H275674   1.645   3.325  16.106 -0.7802  1.9782  0.3919
18087TIP3   OH275675   4.080   2.290  11.990 -0.1172 -0.9075 -0.1518
18087TIP3    H175676   4.090   2.311  11.898 -0.1305 -0.2436 -0.0049
18087TIP3    H275677   4.048   2.371  12.030  2.4198 -0.3229  0.9062
18088TIP3   OH275678   4.012   1.967   6.236 -0.5476  0.4048  0.0785
18088TIP3    H175679   4.040   2.058   6.249  2.0017 -0.5509  2.1215
18088TIP3    H275680   3.917   1.969   6.247 -0.5809  2.8132 -0.1427
18089TIP3   OH275681   5.278   5.184   1.054  0.6983  0.0322 -0.2418
18089TIP3    H175682   5.290   5.173   0.960  0.2009  0.9275 -0.4151
18089TIP3    H275683   5.325   5.264   1.076  1.8661 -0.8169  0.5070
18090TIP3   OH275684   2.002   1.979   0.577  0.7189 -0.3363 -0.0292
18090TIP3    H175685   2.044   2.000   0.661  0.9577  0.3245 -0.3051
18090TIP3    H275686   1.910   2.002   0.590  1.3751  3.6315 -1.1413
18091TIP3   OH275687   6.608   1.722  14.422 -0.1989 -0.1951 -0.0466
18091TIP3    H175688   6.664   1.658  14.380  0.0611 -0.7150  1.0687
18091TIP3    H275689   6.666   1.796  14.442 -0.0816 -0.4064  0.3957
18092TIP3   OH275690   2.078   3.701   5.149  0.2519 -0.2354  0.3758
18092TIP3    H175691   2.029   3.783   5.159  0.3634 -0.2587  1.2573
18092TIP3    H275692   2.164   3.719   5.186  1.3792  0.1567 -2.2273
18093TIP3   OH275693   1.355   1.217   4.452 -0.6563  0.0128 -0.2882
18093TIP3    H175694   1.365   1.202   4.546  0.4497  0.7220 -0.2807
18093TIP3    H275695   1.382   1.308   4.438  0.1460 -0.3677 -1.4263
18094TIP3   OH275696   5.445   2.314  15.242  0.4650 -0.0871  0.0045
18094TIP3    H175697   5.501   2.331  15.318 -0.1431 -0.0625  0.4531
18094TIP3    H275698   5.497   2.255  15.187  0.3925 -1.1832  1.0709
18095TIP3   OH275699   2.270   2.384  11.418 -0.0182 -0.6741  0.5487
18095TIP3    H175700   2.299   2.452  11.357 -0.0502  0.4321  1.7219
18095TIP3    H275701   2.230   2.432  11.490  2.6134 -1.7136  2.8859
18096TIP3   OH275702   3.372   3.604  14.372 -0.1837  0.5285 -0.0680
18096TIP3    H175703   3.339   3.576  14.286 -2.5061  0.4166  0.7696
18096TIP3    H275704   3.293   3.631  14.420  0.9689  0.0961  2.2184
18097TIP3   OH275705   4.336   4.856   6.408  0.7398 -0.0647  0.1344
18097TIP3    H175706   4.391   4.932   6.425 -0.0031  0.3710  0.6418
18097TIP3    H275707   4.350   4.798   6.483 -0.0448  0.3883  0.6532
18098TIP3   OH275708   4.194   5.421   3.017  0.2160 -0.8281  0.1492
18098TIP3    H175709   4.248   5.374   3.081  1.1883 -0.3436 -0.2771
18098TIP3    H275710   4.234   5.399   2.932 -0.2124 -0.3893 -0.1698
18099TIP3   OH275711   0.660   1.078   1.405  0.5708 -0.0347  1.0782
18099TIP3    H175712   0.661   1.001   1.462  0.8731 -0.8508  0.0073
18099TIP3    H275713   0.748   1.082   1.369 -0.4760 -1.6673 -2.0437
18100TIP3   OH275714   6.149   4.362  16.793 -0.1254 -0.3310 -0.2992
18100TIP3    H175715   6.221   4.333  16.849  0.7989 -0.7509 -1.6380
18100TIP3    H275716   6.119   4.283  16.749 -0.4707  0.0622 -0.7808
18101TIP3   OH275717   6.482   2.373  11.271  0.4018 -0.1654  0.0091
18101TIP3    H175718   6.528   2.444  11.227  0.7865  0.6774  1.6691
18101TIP3    H275719   6.523   2.293  11.239  2.0007  0.5092  0.3090
18102TIP3   OH275720   2.175   0.998   2.680 -0.5321  0.0904  0.4291
18102TIP3    H175721   2.237   0.949   2.733  1.7080  1.6662 -0.5848
18102TIP3    H275722   2.167   1.082   2.724 -1.8713 -0.0270  0.4505
18103TIP3   OH275723   0.108   5.496   2.451 -0.4705 -0.0331 -0.4192
18103TIP3    H175724   0.108   5.401   2.459  0.7093 -0.0732 -0.7551
18103TIP3    H275725   0.033   5.515   2.395 -1.1091 -0.7049  0.1895
18104TIP3   OH275726   0.775   2.621  14.653 -0.0215  0.9295 -0.5995
18104TIP3    H175727   0.862   2.609  14.690  0.0626  2.3979 -0.2573
18104TIP3    H275728   0.741   2.532  14.642  1.5768  0.3267 -0.9021
18105TIP3   OH275729   5.488   0.713  16.616  0.4472 -0.1434 -0.2476
18105TIP3    H175730   5.494   0.796  16.663  1.7099  0.2863 -1.1077
18105TIP3    H275731   5.526   0.649  16.678 -1.4730 -0.3102  0.8299
18106TIP3   OH275732   0.545   1.679   1.535 -0.6323 -0.2670 -0.1442
18106TIP3    H175733   0.468   1.733   1.554 -1.1034 -1.2724  0.9298
18106TIP3    H275734   0.598   1.686   1.615  0.3951  0.3874 -0.8594
18107TIP3   OH275735   4.887   5.015   5.965  0.3946 -0.1373 -0.4290
18107TIP3    H175736   4.797   4.999   5.937  0.5104 -0.8861 -0.3872
18107TIP3    H275737   4.878   5.062   6.048  0.0487  0.4840 -0.8097
18108TIP3   OH275738   2.271   4.554   3.157  0.6304 -0.0382 -1.0835
18108TIP3    H175739   2.259   4.603   3.238  2.8969 -0.3789 -0.4903
18108TIP3    H275740   2.344   4.596   3.113  1.5337 -1.8040 -1.3681
18109TIP3   OH275741   3.433   3.773  15.126 -0.1186 -0.0418 -0.3561
18109TIP3    H175742   3.453   3.739  15.213 -0.0889  1.8725  0.4331
18109TIP3    H275743   3.371   3.710  15.089  0.7680 -1.5050  0.5717
18110TIP3   OH275744   6.171   1.520   0.210 -0.2805  0.4057 -0.0396
18110TIP3    H175745   6.221   1.556   0.283  0.0134  1.2960 -0.6641
18110TIP3    H275746   6.233   1.520   0.137 -0.9405  0.7447 -0.6105
18111TIP3   OH275747   0.408   6.727  14.242 -0.3684  0.4877 -0.0603
18111TIP3    H175748   0.429   6.672  14.318 -0.1184  1.0398  0.2898
18111TIP3    H275749   0.453   6.686  14.169  0.9906  0.9803  0.4598
18112TIP3   OH275750   5.888   6.641   3.088  0.2613  0.0185 -0.3523
18112TIP3    H175751   5.846   6.555   3.090 -0.5818  0.3697 -1.7225
18112TIP3    H275752   5.977   6.625   3.059 -0.4608 -0.2295 -2.6031
18113TIP3   OH275753   3.196   0.875   2.436 -0.0671 -0.4142  0.1899
18113TIP3    H175754   3.256   0.949   2.447 -2.5421  1.9245 -0.7954
18113TIP3    H275755   3.162   0.859   2.524  2.3950 -2.2454  0.8903
18114TIP3   OH275756   6.731   2.301  15.314 -0.4553  0.2935 -0.0435
18114TIP3    H175757   6.668   2.233  15.337 -0.7289  0.5178 -0.1311
18114TIP3    H275758   6.690   2.383  15.341  0.3999  0.3322  1.2143
18115TIP3   OH275759   3.150   2.559   2.932  0.0940  0.4537  0.5957
18115TIP3    H175760   3.157   2.652   2.909  0.1257  0.3464  0.1594
18115TIP3    H275761   3.161   2.513   2.848  1.2520  0.0053  0.9736
18116TIP3   OH275762   0.695   4.854   2.403  0.8354 -0.4159 -0.0636
18116TIP3    H175763   0.637   4.826   2.332 -0.1666 -0.1012  0.6015
18116TIP3    H275764   0.656   4.816   2.482  0.7743  0.8873  0.5621
18117TIP3   OH275765   5.079   1.081   1.235  0.0246 -0.5858  0.4381
18117TIP3    H175766   5.123   1.046   1.312  1.4236 -0.4843 -0.2750
18117TIP3    H275767   5.150   1.095   1.172 -0.9869  0.0651 -0.5847
18118TIP3   OH275768   5.545   5.278   0.985 -0.4437  0.6160 -0.1833
18118TIP3    H175769   5.482   5.289   0.913 -2.6666 -0.9102  1.3780
18118TIP3    H275770   5.523   5.348   1.047  1.3096  1.7815 -0.7907
18119TIP3   OH275771   1.442   0.339   3.288  0.0514 -0.2803 -0.0388
18119TIP3    H175772   1.418   0.335   3.195 -2.1056 -0.6089  0.4672
18119TIP3    H275773   1.528   0.297   3.292 -0.8198 -2.4538 -1.6183
18120TIP3   OH275774   1.256   3.299   1.262 -0.2211 -0.0910  0.0222
18120TIP3    H175775   1.185   3.363   1.270  0.8502  1.3747 -1.5343
18120TIP3    H275776   1.314   3.318   1.335 -0.0719  0.5167 -0.2483
18121TIP3   OH275777   6.597   1.871   5.414 -0.5104  0.2439  0.3048
18121TIP3    H175778   6.634   1.818   5.343 -0.2145 -0.5966  1.0658
18121TIP3    H275779   6.664   1.935   5.435  0.0502 -0.4986  0.8566
18122TIP3   OH275780   5.204   4.233   5.638 -0.5102 -0.0030  0.2781
18122TIP3    H175781   5.279   4.268   5.591  1.5890 -0.8429  2.7961
18122TIP3    H275782   5.170   4.164   5.580  2.4050 -1.5048  0.1821
18123TIP3   OH275783   4.050   3.524  16.483 -0.0463  0.3803  0.1272
18123TIP3    H175784   3.960   3.502  16.459 -0.0250  1.5812 -1.1782
18123TIP3    H275785   4.041   3.585  16.556 -0.3069  0.4873  0.0071
18124TIP3   OH275786   4.471   4.867   5.557 -0.0235 -0.4762  0.6879
18124TIP3    H175787   4.427   4.951   5.570 -0.2206 -0.5048  0.2262
18124TIP3    H275788   4.463   4.823   5.642  0.1669  0.0067  0.9644
18125TIP3   OH275789   5.120   1.961  12.035  0.3697 -0.0261 -0.2575
18125TIP3    H175790   5.080   1.964  12.121 -0.1351  2.7776 -0.5103
18125TIP3    H275791   5.058   2.007  11.978  1.4878 -0.3096 -1.7667
18126TIP3   OH275792   3.499   0.748   6.189  0.0141  0.0834  0.1825
18126TIP3    H175793   3.463   0.661   6.169 -0.4069 -0.1683  1.8931
18126TIP3    H275794   3.423   0.805   6.193  0.2380  0.4274 -0.3793
18127TIP3   OH275795   5.012   3.111  15.934  0.3251 -0.3800  0.3064
18127TIP3    H175796   5.103   3.140  15.939  0.4680 -0.9189  1.0073
18127TIP3    H275797   4.995   3.101  15.840  0.8439  0.1511  0.1488
18128TIP3   OH275798   5.194   1.929  14.113 -0.3083  0.1716  0.6841
18128TIP3    H175799   5.163   1.963  14.197  0.2344  0.0639  0.9346
18128TIP3    H275800   5.154   1.986  14.048  0.1404  0.9413  1.0727
18129TIP3   OH275801   2.055   6.280  14.188  0.0505 -0.2368  0.0432
18129TIP3    H175802   1.962   6.257  14.187 -0.3338  1.2000 -0.6096
18129TIP3    H275803   2.056   6.373  14.212  1.5362 -0.9493  3.3528
18130TIP3   OH275804   2.430   4.944  11.596 -0.1964  0.5559  0.2807
18130TIP3    H175805   2.524   4.945  11.580  0.1516  0.9470  2.0537
18130TIP3    H275806   2.395   5.010  11.537  0.8666  1.4752  0.6273
18131TIP3   OH275807   2.876   3.797  11.484 -0.6911  0.1823 -0.1486
18131TIP3    H175808   2.908   3.810  11.573 -1.4491  1.3657 -0.0254
18131TIP3    H275809   2.833   3.712  11.486 -0.8369  0.2669  0.6567
18132TIP3   OH275810   1.671   4.623  12.348  0.7287  0.5665 -0.1389
18132TIP3    H175811   1.645   4.655  12.434 -0.3146  0.5637 -0.4340
18132TIP3    H275812   1.747   4.567  12.364  1.1571  1.3602  0.6497
18133TIP3   OH275813   4.639   4.335  11.141 -0.6163  0.0134  0.1928
18133TIP3    H175814   4.574   4.279  11.184 -0.9639 -0.3013 -0.7343
18133TIP3    H275815   4.591   4.416  11.123 -1.3753 -0.8957 -2.2453
18134TIP3   OH275816   5.080   4.423  17.144 -0.1010  0.5523 -0.6081
18134TIP3    H175817   5.020   4.479  17.194  1.5620  0.8629  1.1518
18134TIP3    H275818   5.167   4.458  17.162  0.7859 -1.0229 -1.5710
18135TIP3   OH275819   6.075   6.554  15.396 -0.0782 -0.2182  0.5843
18135TIP3    H175820   6.039   6.561  15.308  2.4596 -0.2755 -0.5294
18135TIP3    H275821   6.103   6.463  15.404  0.4130 -0.0260  1.1531
18136TIP3   OH275822   4.224   1.610  12.525  0.8992 -0.4876  0.7945
18136TIP3    H175823   4.274   1.669  12.469  1.0528 -0.6402  0.7714
18136TIP3    H275824   4.178   1.552  12.465 -1.0771  1.0631  0.7271
18137TIP3   OH275825   1.305   0.713  14.170  0.5235 -1.0151 -0.1677
18137TIP3    H175826   1.390   0.747  14.144  0.0149  0.7957  0.3854
18137TIP3    H275827   1.322   0.662  14.249  0.8119  1.5226  1.5069
18138TIP3   OH275828   6.609   5.507   1.209  0.1163  0.4409  0.1154
18138TIP3    H175829   6.690   5.498   1.158  0.0054  1.6667 -0.3120
18138TIP3    H275830   6.547   5.547   1.148 -0.7712 -0.3239  0.4978
18139TIP3   OH275831   3.212   1.133  14.584 -0.3835 -0.4444 -0.6904
18139TIP3    H175832   3.210   1.082  14.665  0.7198 -0.0981 -0.4260
18139TIP3    H275833   3.256   1.077  14.521  0.5049  0.0160 -0.4989
18140TIP3   OH275834   6.148   5.530  15.910 -0.0230  0.1444  0.1272
18140TIP3    H175835   6.110   5.536  15.822  0.1240 -0.6129  0.0050
18140TIP3    H275836   6.236   5.567  15.900  0.0605 -0.1082 -0.0918
18141TIP3   OH275837   0.564   1.701   4.082 -0.2900  0.1654  0.5934
18141TIP3    H175838   0.510   1.780   4.070 -1.4686 -0.4495  1.6773
18141TIP3    H275839   0.539   1.644   4.009 -0.9575 -0.0297  0.9684
18142TIP3   OH275840   4.564   1.747  11.324 -0.2600  0.4766 -0.6439
18142TIP3    H175841   4.493   1.697  11.285 -1.1992  0.1842  1.3578
18142TIP3    H275842   4.568   1.828  11.272 -1.3297  0.0374 -1.4332
18143TIP3   OH275843   3.596   1.297  11.395  0.0673 -0.0922 -0.0203
18143TIP3    H175844   3.600   1.392  11.381  1.0603  0.1188  1.4299
18143TIP3    H275845   3.517   1.269  11.348 -0.5166  1.5317 -0.0783
18144TIP3   OH275846   0.212   2.234  17.020 -0.2192  0.3296 -0.2764
18144TIP3    H175847   0.120   2.229  16.993 -0.5289  3.0474  0.0079
18144TIP3    H275848   0.252   2.296  16.959  1.2130 -0.0772  0.2055
18145TIP3   OH275849   6.247   2.736   2.732 -0.3113  0.0412 -0.0893
18145TIP3    H175850   6.301   2.789   2.791  0.1244 -0.3173 -0.1636
18145TIP3    H275851   6.159   2.774   2.740 -0.2858 -0.0872  0.8969
18146TIP3   OH275852   0.089   2.864  14.860  0.2123 -0.7373 -0.6426
18146TIP3    H175853   0.024   2.828  14.921  1.8933 -0.2383  1.5885
18146TIP3    H275854   0.125   2.788  14.816  0.3773 -1.3536  0.5089
18147TIP3   OH275855   4.767   2.944  15.711 -0.5067  0.0390 -0.2797
18147TIP3    H175856   4.862   2.941  15.698 -0.5900 -0.4352 -0.8165
18147TIP3    H275857   4.742   3.031  15.681 -0.1170  0.5563  0.8254
18148TIP3   OH275858   6.574   5.140   1.694 -0.0063  0.7219  0.0089
18148TIP3    H175859   6.663   5.173   1.683 -0.4988  1.4484 -2.5617
18148TIP3    H275860   6.529   5.208   1.744  0.6307  0.8052  0.4810
18149TIP3   OH275861   2.717   3.278   3.139 -0.3654 -0.2842 -0.2258
18149TIP3    H175862   2.690   3.367   3.115 -0.4100 -0.2512 -0.0524
18149TIP3    H275863   2.804   3.268   3.101  0.7507  0.7511  1.9291
18150TIP3   OH275864   2.799   1.823   0.998  0.4830 -0.1623  0.4394
18150TIP3    H175865   2.878   1.790   1.042  1.1503 -2.3774 -2.0930
18150TIP3    H275866   2.734   1.754   1.012 -0.6349  1.0612  1.4293
18151TIP3   OH275867   2.544   1.470   0.412 -0.6999  0.1156  0.5304
18151TIP3    H175868   2.459   1.503   0.439 -1.0791 -1.4712  1.3825
18151TIP3    H275869   2.536   1.457   0.317 -1.6397 -0.6455  0.7006
18152TIP3   OH275870   1.263   5.057   2.077 -0.6921  0.0356 -0.4576
18152TIP3    H175871   1.356   5.074   2.093 -0.9231  0.8453  0.0937
18152TIP3    H275872   1.234   5.010   2.155 -1.3281  2.1227  0.6664
18153TIP3   OH275873   2.921   0.437  14.949  0.6087 -0.1566  0.0095
18153TIP3    H175874   2.988   0.505  14.942 -0.4107  0.9860  0.8661
18153TIP3    H275875   2.838   0.485  14.951 -0.2042 -1.4871 -0.2743
18154TIP3   OH275876   4.097   4.496   0.814  0.5306  0.5242  0.7726
18154TIP3    H175877   4.133   4.421   0.861  0.5568 -0.0045 -0.0724
18154TIP3    H275878   4.076   4.463   0.727 -1.1682  1.0320  0.9431
18155TIP3   OH275879   0.676   6.494  12.732  0.5070  0.0507 -0.2814
18155TIP3    H175880   0.651   6.433  12.802  1.4625 -0.7577 -0.6248
18155TIP3    H275881   0.686   6.439  12.655 -0.1893  0.8885 -0.9975
18156TIP3   OH275882   3.534   1.814  11.497 -0.1053 -0.0350  0.2894
18156TIP3    H175883   3.560   1.816  11.589 -0.7522  1.4998  0.4636
18156TIP3    H275884   3.439   1.805  11.500 -0.2622  1.3165 -0.1914
18157TIP3   OH275885   1.548   3.703  12.712  0.2647 -0.1240  0.5996
18157TIP3    H175886   1.562   3.757  12.635 -0.8549  0.4045  0.7437
18157TIP3    H275887   1.623   3.644  12.714  0.6208  0.2646 -0.5383
18158TIP3   OH275888   3.037   2.759   1.440  0.1444 -0.1436  0.1167
18158TIP3    H175889   2.942   2.770   1.450  0.1671  0.0633  0.1075
18158TIP3    H275890   3.047   2.675   1.395 -0.0079 -0.5142  0.7504
18159TIP3   OH275891   2.755   5.619  14.939 -0.7273 -0.2299  0.0650
18159TIP3    H175892   2.707   5.538  14.923 -0.3084 -0.1042 -2.3318
18159TIP3    H275893   2.832   5.613  14.882  1.5611  0.0864  2.8603
18160TIP3   OH275894   5.347   3.904   6.015  0.0072 -0.6296 -0.0555
18160TIP3    H175895   5.267   3.884   5.966  0.2226  0.5571 -0.9261
18160TIP3    H275896   5.413   3.844   5.980 -0.5163 -1.7311  0.7862
18161TIP3   OH275897   1.426   1.138  11.959  0.3442 -0.5777 -0.6296
18161TIP3    H175898   1.398   1.214  11.908  0.4681 -0.6248 -0.7694
18161TIP3    H275899   1.345   1.104  11.998  0.4431  0.3109  0.3878
18162TIP3   OH275900   5.263   0.933  16.385  0.6701 -0.8200  0.0356
18162TIP3    H175901   5.313   0.911  16.307  0.4159  0.1089 -0.4050
18162TIP3    H275902   5.238   1.024  16.373  0.0107 -0.8722  0.8681
18163TIP3   OH275903   6.630   0.304   5.515 -0.1936  0.1694 -0.4621
18163TIP3    H175904   6.702   0.242   5.501 -0.3728 -0.2947  0.5773
18163TIP3    H275905   6.595   0.281   5.601 -1.9994 -0.0523 -1.1964
18164TIP3   OH275906   2.571   6.706  11.683  0.0583 -0.3434 -0.1174
18164TIP3    H175907   2.550   6.677  11.595 -0.9578  0.6582 -0.2266
18164TIP3    H275908   2.541   6.635  11.740 -0.6324 -0.3569 -0.4908
18165TIP3   OH275909   5.232   3.286   5.508  0.6009  0.1623 -0.6151
18165TIP3    H175910   5.192   3.209   5.469 -0.7769  1.2886 -1.5340
18165TIP3    H275911   5.322   3.260   5.526  0.5054 -1.2898 -2.0048
18166TIP3   OH275912   6.702   0.952   5.062 -0.1759 -0.2995  0.2658
18166TIP3    H175913   6.666   1.041   5.068 -0.1483 -0.3523  1.4255
18166TIP3    H275914   6.762   0.945   5.137  1.7845 -0.4374 -1.2296
18167TIP3   OH275915   2.570   3.435  14.938 -0.0642 -0.7243  0.2811
18167TIP3    H175916   2.533   3.355  14.976 -0.1228  0.1109  2.1189
18167TIP3    H275917   2.609   3.481  15.013  1.1404  0.3518 -0.9442
18168TIP3   OH275918   2.553   1.895  11.353  0.2610 -0.5448  0.0596
18168TIP3    H175919   2.571   1.920  11.262 -0.2302  0.4865  0.2316
18168TIP3    H275920   2.466   1.930  11.370 -0.2449 -1.9461  0.5024
18169TIP3   OH275921   3.335   5.101   1.322 -0.3357  0.5465  0.0392
18169TIP3    H175922   3.420   5.145   1.333 -0.4903  0.7548  0.4044
18169TIP3    H275923   3.350   5.012   1.354  0.2232  0.0389 -1.5099
18170TIP3   OH275924   6.589   4.687   6.133  0.3269  0.1863 -0.4644
18170TIP3    H175925   6.677   4.649   6.137 -0.3473 -1.7929 -2.5895
18170TIP3    H275926   6.536   4.630   6.188 -0.2558 -0.7665 -1.9410
18171TIP3   OH275927   1.304   5.880   0.680  0.4229 -0.0009 -0.0496
18171TIP3    H175928   1.339   5.873   0.769 -0.6468 -1.1603  0.3136
18171TIP3    H275929   1.210   5.889   0.691  0.3440  0.6160 -1.0625
18172TIP3   OH275930   4.274   2.120   0.203  0.2580  0.7658  0.2538
18172TIP3    H175931   4.209   2.144   0.270 -0.2036 -2.0763  0.9465
18172TIP3    H275932   4.223   2.105   0.124 -0.2712 -2.6057  1.0785
18173TIP3   OH275933   3.496   1.825  15.861  0.7281 -0.6286  0.2536
18173TIP3    H175934   3.495   1.840  15.766 -1.5894 -0.7247  0.2154
18173TIP3    H275935   3.515   1.732  15.870  5.1193  0.0625  0.1317
18174TIP3   OH275936   0.547   1.845   4.369 -0.5845 -0.2201 -0.2820
18174TIP3    H175937   0.632   1.810   4.346  0.7982  2.2076  0.7516
18174TIP3    H275938   0.546   1.845   4.465 -2.0857 -0.9442 -0.2725
18175TIP3   OH275939   0.483   0.014  14.522  0.5032  0.6761 -0.2362
18175TIP3    H175940   0.540   0.083  14.554 -1.7683  2.3633  0.4470
18175TIP3    H275941   0.527  -0.019  14.444  2.1244  2.2472 -0.0559
18176TIP3   OH275942   1.910   3.881   5.728  0.0824  0.0345 -0.7174
18176TIP3    H175943   1.921   3.789   5.703 -0.1843 -0.0525 -0.5235
18176TIP3    H275944   1.873   3.922   5.649  0.1351 -0.0386 -0.7810
18177TIP3   OH275945   6.488   0.856  13.950  0.5459 -0.2609  0.0266
18177TIP3    H175946   6.440   0.916  13.893  0.1698 -1.5241 -1.0612
18177TIP3    H275947   6.544   0.912  14.003  0.2627  1.0295 -0.9799
18178TIP3   OH275948   2.676   0.248   2.145 -0.5683  0.4000 -0.2682
18178TIP3    H175949   2.709   0.223   2.232 -0.7649 -0.6851 -0.4978
18178TIP3    H275950   2.583   0.223   2.146  0.0933 -2.4987 -1.8218
18179TIP3   OH275951   6.368   1.469   2.802 -0.1564  0.0805  0.2629
18179TIP3    H175952   6.453   1.428   2.788 -0.2934 -0.0430 -0.2249
18179TIP3    H275953   6.331   1.422   2.877  0.6434  0.8428  1.1813
18180TIP3   OH275954   5.679   5.128  16.782  0.2247  0.8110 -0.4028
18180TIP3    H175955   5.645   5.127  16.692  0.3751  0.0187 -0.4583
18180TIP3    H275956   5.619   5.071  16.830  0.4931  0.7595 -0.1300
18181TIP3   OH275957   6.224   0.861  13.246 -0.5079  0.0315  0.6637
18181TIP3    H175958   6.273   0.873  13.165 -1.0529  0.1628  0.3477
18181TIP3    H275959   6.223   0.766  13.260 -0.6945 -0.0153  0.3396
18182TIP3   OH275960   3.475   2.921  16.889 -0.1914  0.2213  0.0292
18182TIP3    H175961   3.516   2.992  16.937 -0.2216  0.8199 -0.8112
18182TIP3    H275962   3.543   2.889  16.830 -0.4854  0.2435 -0.3293
18183TIP3   OH275963   6.303   2.058   4.122 -0.1437  0.1802 -0.3339
18183TIP3    H175964   6.251   2.099   4.191 -0.2427 -0.0121 -0.2929
18183TIP3    H275965   6.318   2.128   4.058 -1.0417  0.0681 -0.6821
18184TIP3   OH275966   4.677   5.112   2.456 -0.1662 -0.3164  0.0060
18184TIP3    H175967   4.618   5.150   2.521  0.2579 -1.0300  0.8232
18184TIP3    H275968   4.760   5.157   2.470 -0.2878  0.1192 -0.6121
18185TIP3   OH275969   5.021   5.739  15.345 -0.3757  0.0800  0.3451
18185TIP3    H175970   4.992   5.812  15.400 -0.3450 -0.2968  0.8694
18185TIP3    H275971   4.943   5.712  15.297 -1.2609 -1.6312  2.5333
18186TIP3   OH275972   1.309   4.468  17.142 -1.0071 -0.3669 -0.1406
18186TIP3    H175973   1.320   4.374  17.126 -0.7067 -0.4810  0.6735
18186TIP3    H275974   1.261   4.473  17.224 -0.2316  0.1901  0.2989
18187TIP3   OH275975   1.057   5.619   4.569  0.1718 -0.4235 -0.0254
18187TIP3    H175976   1.039   5.587   4.658 -2.7107  0.6972 -0.0805
18187TIP3    H275977   0.982   5.590   4.518 -0.2433  2.2580 -1.1263
18188TIP3   OH275978   3.312   3.203   4.688 -0.7211  0.3134  0.1219
18188TIP3    H175979   3.367   3.280   4.680  1.3621 -1.2749 -2.9459
18188TIP3    H275980   3.237   3.221   4.631 -0.1387  0.0454 -0.7474
18189TIP3   OH275981   5.970   5.945  11.144 -0.2842  0.3547  0.2957
18189TIP3    H175982   5.893   5.976  11.192 -1.2239 -1.3104 -0.0718
18189TIP3    H275983   5.993   6.018  11.086 -2.2567  0.5156 -0.3602
18190TIP3   OH275984   1.543   3.254  16.997 -0.4458  0.0908 -0.2102
18190TIP3    H175985   1.509   3.320  17.057 -2.8165 -2.7746  1.8907
18190TIP3    H275986   1.617   3.215  17.044  0.0988  0.3351 -0.8490
18191TIP3   OH275987   5.222   4.818   0.084  0.4123  0.7693  0.2902
18191TIP3    H175988   5.153   4.878   0.113  2.0180  2.7917  0.1518
18191TIP3    H275989   5.276   4.804   0.162  0.3013 -0.2123  0.2083
18192TIP3   OH275990   0.458   5.009   1.146  0.2215  0.2503 -0.4722
18192TIP3    H175991   0.406   4.979   1.221 -0.1210  0.6586 -0.5395
18192TIP3    H275992   0.469   4.931   1.092 -1.3515  0.3928 -1.0465
18193TIP3   OH275993   2.700   0.441  16.440  0.6286 -0.0029  0.1721
18193TIP3    H175994   2.612   0.480  16.437  0.0253 -1.2018  1.2966
18193TIP3    H275995   2.747   0.482  16.367 -0.8754  0.6304 -0.4834
18194TIP3   OH275996   4.860   4.613  11.361  0.6063  0.3124 -0.2131
18194TIP3    H175997   4.922   4.568  11.418  0.5854 -0.4119 -0.7428
18194TIP3    H275998   4.893   4.597  11.272 -0.8421 -0.9129 -0.5805
18195TIP3   OH275999   5.551   5.489   2.503  0.6081  0.4547 -0.1226
18195TIP3    H176000   5.524   5.451   2.420 -1.3379 -1.0540  1.0966
18195TIP3    H276001   5.469   5.496   2.553  1.9008 -0.1579  2.2110
18196TIP3   OH276002   2.946   3.539   0.044 -0.0073 -0.2726  0.1179
18196TIP3    H176003   2.886   3.592   0.097 -2.0022 -2.0894 -0.1705
18196TIP3    H276004   2.998   3.603  -0.005 -2.4277  1.4508 -0.3898
18197TIP3   OH276005   0.551   2.237   4.879 -0.6611  0.3166  0.0692
18197TIP3    H176006   0.512   2.248   4.793  1.3022 -1.0409 -1.0955
18197TIP3    H276007   0.637   2.279   4.873 -0.2420 -0.3168  1.1647
18198TIP3   OH276008   6.570   4.919  13.508 -0.6376 -0.2420  0.5193
18198TIP3    H176009   6.521   4.998  13.486  0.2223  0.3662  0.7294
18198TIP3    H276010   6.659   4.949  13.522  0.1891 -1.5488 -1.4798
18199TIP3   OH276011   4.769   5.564   3.954  0.1906  0.2509  0.3671
18199TIP3    H176012   4.770   5.536   4.045  0.1109  0.4850  0.4397
18199TIP3    H276013   4.765   5.659   3.958 -2.2688  0.2152  0.1209
18200TIP3   OH276014   2.636   5.467   2.347  0.0040 -0.2262  0.7209
18200TIP3    H176015   2.726   5.440   2.365 -0.2307 -0.3297  1.8682
18200TIP3    H276016   2.623   5.448   2.254  0.5679 -1.9914  0.9602
18201TIP3   OH276017   3.470   6.773  11.304  0.1427  0.1921  0.1447
18201TIP3    H176018   3.545   6.801  11.251  0.6444  1.7197  1.5724
18201TIP3    H276019   3.507   6.716  11.370  0.2977  1.7938  1.5183
18202TIP3   OH276020   5.281   1.982   4.929  0.3625  0.0582  0.1997
18202TIP3    H176021   5.229   2.005   4.852  0.2009 -0.3845  0.1744
18202TIP3    H276022   5.227   2.009   5.003  0.9588  1.4572  0.1686
18203TIP3   OH276023   6.444   4.948  16.900 -0.1005 -0.2358 -0.3689
18203TIP3    H176024   6.506   4.876  16.913 -1.5650 -1.3604  0.7781
18203TIP3    H276025   6.358   4.908  16.911 -0.9571  1.8367  1.1464
18204TIP3   OH276026   6.751   6.625   1.026 -0.1363  0.1468  0.6501
18204TIP3    H176027   6.723   6.706   0.984 -0.6873 -1.6230 -2.7224
18204TIP3    H276028   6.686   6.611   1.096 -0.4497  2.1735  0.8275
18205TIP3   OH276029   4.892   2.295  13.161  0.2730  0.1918 -0.0083
18205TIP3    H176030   4.979   2.254  13.165 -0.6898 -1.8893  0.9557
18205TIP3    H276031   4.902   2.377  13.209  1.3751 -0.7199  1.3998
18206TIP3   OH276032   5.929   6.301   4.831  0.9689  0.6668  0.1481
18206TIP3    H176033   6.015   6.296   4.789  1.3473 -0.1105  0.9817
18206TIP3    H276034   5.925   6.224   4.887 -0.5290  0.3641 -0.3306
18207TIP3   OH276035   3.296   2.365  16.335  0.0345  0.7009  0.6102
18207TIP3    H176036   3.321   2.322  16.416 -0.6394 -1.1759 -0.1259
18207TIP3    H276037   3.202   2.352  16.328  0.1763  0.2241 -0.7926
18208TIP3   OH276038   2.075   4.520  12.197 -0.1387 -0.0613 -0.1618
18208TIP3    H176039   2.132   4.593  12.221  0.7350 -0.3756 -1.1691
18208TIP3    H276040   2.132   4.461  12.148 -1.0737 -0.9382 -0.2223
18209TIP3   OH276041   1.801   2.694   4.045  0.2122 -0.2148 -0.2596
18209TIP3    H176042   1.862   2.768   4.045  0.3921 -0.3426 -1.6471
18209TIP3    H276043   1.855   2.617   4.029 -0.3390 -0.2900 -1.8727
18210TIP3   OH276044   1.415   3.666   2.170 -0.4138  0.1091  0.3544
18210TIP3    H176045   1.421   3.672   2.074  0.7743  1.3615  0.4833
18210TIP3    H276046   1.503   3.640   2.197 -0.6234  0.2209  1.1426
18211TIP3   OH276047   4.740   5.016   0.290  0.2433  0.5384 -0.1402
18211TIP3    H176048   4.651   5.051   0.277 -0.5045 -0.5288  1.6196
18211TIP3    H276049   4.790   5.049   0.216 -1.7159  0.8720 -1.3947
18212TIP3   OH276050   0.757   6.732   1.358  0.4931  0.4738  0.3792
18212TIP3    H176051   0.742   6.827   1.359  0.9130  0.5615  2.0728
18212TIP3    H276052   0.840   6.720   1.404  1.0391 -0.6580 -0.8420
18213TIP3   OH276053   4.692   4.228  16.167 -0.1623  0.1931  0.3177
18213TIP3    H176054   4.695   4.196  16.257 -1.4552 -1.5932 -0.2135
18213TIP3    H276055   4.609   4.275  16.162 -2.0337 -2.9409 -0.8318
18214TIP3   OH276056   0.028   0.104   1.350  0.1339  0.2324  0.2402
18214TIP3    H176057  -0.029   0.161   1.402 -2.5399 -1.6163 -0.4725
18214TIP3    H276058   0.030   0.144   1.264 -1.1331 -0.3073 -0.0578
18215TIP3   OH276059   1.723   3.926   1.062  0.1695  0.4757 -0.4723
18215TIP3    H176060   1.709   4.014   1.097  0.0813 -0.0603  0.9230
18215TIP3    H276061   1.639   3.881   1.076  1.0299 -0.6663  1.5248
18216TIP3   OH276062   1.173   2.988  12.259  0.6603  0.0744 -0.0920
18216TIP3    H176063   1.122   2.918  12.218  0.0008 -0.1948  1.1455
18216TIP3    H276064   1.241   2.942  12.309  0.6899  0.3538  0.1275
18217TIP3   OH276065   1.560   6.707  14.775  0.1507 -0.1121  0.4302
18217TIP3    H176066   1.596   6.734  14.690 -0.7372  0.6786  0.2825
18217TIP3    H276067   1.624   6.739  14.839  0.1742  0.4603  0.1274
18218TIP3   OH276068   5.757   4.146   0.473  0.0803  0.1192  0.6840
18218TIP3    H176069   5.722   4.210   0.411  1.7804  1.2216  0.8223
18218TIP3    H276070   5.686   4.133   0.536 -0.4443  1.5599  0.4195
18219TIP3   OH276071   4.025   6.081  14.089  0.2343 -0.0917 -0.1440
18219TIP3    H176072   4.049   6.040  14.172 -1.6147  0.4526  0.7068
18219TIP3    H276073   3.931   6.068  14.082  0.0524  1.5093 -1.2326
18220TIP3   OH276074   4.537   4.857  15.473  0.5555 -0.8480  0.1894
18220TIP3    H176075   4.471   4.809  15.524 -0.9324 -0.8473 -1.6486
18220TIP3    H276076   4.489   4.896  15.400  2.5213 -0.4877 -1.0069
18221TIP3   OH276077   1.800   5.006   5.623 -0.1869 -0.5588  0.2052
18221TIP3    H176078   1.891   4.978   5.615 -0.0817  0.1225 -1.3000
18221TIP3    H276079   1.762   4.945   5.686  0.9806 -1.6767 -0.1240
18222TIP3   OH276080   0.259   1.014   0.488  0.1928 -0.2755 -1.0015
18222TIP3    H176081   0.230   1.028   0.398  0.8817  0.9915 -1.0572
18222TIP3    H276082   0.235   0.924   0.508  1.3106 -1.0467 -2.9323
18223TIP3   OH276083   4.695   1.422   1.099  0.3444  0.3886  0.2446
18223TIP3    H176084   4.728   1.506   1.132  1.3313  0.3530 -0.5713
18223TIP3    H276085   4.754   1.402   1.026  1.4653 -2.0353  1.7005
18224TIP3   OH276086   6.789   4.035   2.258 -0.5487 -0.6417 -0.3250
18224TIP3    H176087   6.706   3.988   2.260 -0.5820 -0.6195  2.1563
18224TIP3    H276088   6.847   3.983   2.313 -0.0251  1.1912  0.9619
18225TIP3   OH276089   2.607   0.356  13.066 -0.0693  0.2900  0.7362
18225TIP3    H176090   2.638   0.432  13.115 -2.0202  2.4010 -1.0758
18225TIP3    H276091   2.536   0.390  13.011  0.5035 -2.3451 -1.9137
18226TIP3   OH276092   5.261   3.131  13.000 -0.2069  0.0893 -0.2173
18226TIP3    H176093   5.300   3.215  13.027 -0.7344  0.4973 -0.7076
18226TIP3    H276094   5.306   3.066  13.054 -1.4575  0.9046  1.9530
18227TIP3   OH276095   4.743   5.437   4.220 -0.1394 -0.6522 -0.4160
18227TIP3    H176096   4.736   5.342   4.211 -0.7463 -0.6674  0.1385
18227TIP3    H276097   4.759   5.451   4.313  3.3221 -0.3716 -0.9273
18228TIP3   OH276098   6.616   2.631   2.356 -0.7024  0.2689 -0.2571
18228TIP3    H176099   6.685   2.573   2.386 -1.1323 -1.4095 -2.2530
18228TIP3    H276100   6.535   2.591   2.388 -0.8678  1.1898  0.5006
18229TIP3   OH276101   3.321   5.941  11.287 -0.4579  0.3651  0.4474
18229TIP3    H176102   3.225   5.940  11.285 -0.4609  1.4402 -1.0640
18229TIP3    H276103   3.342   5.979  11.373 -1.4125  1.5557  0.1740
18230TIP3   OH276104   0.067   3.757   5.877 -0.1223  0.0263  0.4187
18230TIP3    H176105   0.130   3.804   5.932  0.5486  0.0171 -0.3154
18230TIP3    H276106  -0.013   3.753   5.929  0.7814 -0.8457  1.7995
18231TIP3   OH276107   6.522   5.263   3.214 -0.2238 -0.0436 -0.3217
18231TIP3    H176108   6.584   5.237   3.147  0.0164 -0.3032  0.0019
18231TIP3    H276109   6.554   5.348   3.246 -1.5002  1.1342 -2.0054
18232TIP3   OH276110   1.969   3.431  16.960  0.7443 -0.0068  0.1178
18232TIP3    H176111   2.009   3.459  16.877 -0.8374  0.7881 -0.4033
18232TIP3    H276112   1.895   3.376  16.934  0.2967  0.1508  1.0064
18233TIP3   OH276113   6.483   3.372  16.045  0.0502  0.6311 -0.4756
18233TIP3    H176114   6.545   3.421  16.098  0.8407  1.7173 -2.2868
18233TIP3    H276115   6.486   3.283  16.080  2.2723  0.7733 -0.1548
18234TIP3   OH276116   0.837   2.457   1.705 -0.2723 -0.5520 -0.2009
18234TIP3    H176117   0.926   2.456   1.741  0.0899  0.8239 -0.9899
18234TIP3    H276118   0.795   2.530   1.751 -1.6383 -2.3412  1.5586
18235TIP3   OH276119   3.533   5.201   0.957 -0.1279  0.1058  0.2517
18235TIP3    H176120   3.609   5.259   0.949 -0.5670  0.6283 -0.3408
18235TIP3    H276121   3.569   5.115   0.974  0.6311  0.2441 -0.5831
18236TIP3   OH276122   4.771   2.851   2.561  0.3259 -0.0713  0.4105
18236TIP3    H176123   4.850   2.899   2.538  0.7424 -0.1536  1.6248
18236TIP3    H276124   4.707   2.919   2.582  0.1949 -0.0112 -0.1787
18237TIP3   OH276125   1.138   1.288  10.634 -0.5062 -0.3907 -0.4844
18237TIP3    H176126   1.215   1.307  10.688  0.5943 -4.1565 -0.4049
18237TIP3    H276127   1.167   1.305  10.545  0.6654 -2.1005 -0.4885
18238TIP3   OH276128   3.529   6.093  14.634 -0.1049 -0.1155 -0.1038
18238TIP3    H176129   3.547   6.041  14.713  0.6366 -3.0498 -2.0168
18238TIP3    H276130   3.573   6.176  14.650 -0.2035 -0.4774  2.6401
18239TIP3   OH276131   3.758   3.130  14.450  0.6057 -0.3515  0.7083
18239TIP3    H176132   3.726   3.176  14.528  0.8085  0.0034  0.5845
18239TIP3    H276133   3.853   3.134  14.457  0.6260 -0.1330  0.3371
18240TIP3   OH276134   4.936   2.141   4.568  0.2557 -0.1713 -0.3896
18240TIP3    H176135   4.874   2.105   4.505 -0.8674  1.0143  0.0133
18240TIP3    H276136   4.882   2.188   4.632  1.5476  0.8236  0.0200
18241TIP3   OH276137   5.184   6.392   5.709 -0.1027  0.4378  0.0801
18241TIP3    H176138   5.213   6.483   5.718 -1.5727  0.8594  0.8251
18241TIP3    H276139   5.142   6.388   5.624 -1.8956  1.0401  0.8839
18242TIP3   OH276140   3.412   4.024   3.281 -0.3070  0.4482  0.2899
18242TIP3    H176141   3.346   4.052   3.345  1.1656  0.9553  1.6504
18242TIP3    H276142   3.417   4.096   3.219 -1.0164  0.4011  0.1634
18243TIP3   OH276143   4.292   6.515   4.284 -0.4138 -0.5598  0.2827
18243TIP3    H176144   4.265   6.535   4.194 -0.3768 -1.1204  0.1442
18243TIP3    H276145   4.233   6.568   4.338 -1.5326 -1.4474 -0.0331
18244TIP3   OH276146   0.143   5.234   5.726 -0.4142  0.0950  0.3388
18244TIP3    H176147   0.173   5.196   5.809  0.5020  0.0273 -0.0148
18244TIP3    H276148   0.069   5.289   5.751 -1.8969 -2.0100  0.8535
18245TIP3   OH276149   4.351   0.358   5.743  0.3664 -0.9485  0.4326
18245TIP3    H176150   4.343   0.293   5.674  2.8532 -0.4758 -0.3871
18245TIP3    H276151   4.335   0.442   5.699  0.0150 -0.7800  0.8691
18246TIP3   OH276152   5.654   2.263  16.376  0.1868 -0.1479  0.4250
18246TIP3    H176153   5.633   2.212  16.454  1.7697 -0.6297  0.5773
18246TIP3    H276154   5.616   2.214  16.303  1.0664 -1.1832  0.6445
18247TIP3   OH276155   0.860   1.071   2.176 -0.3191 -0.2268 -0.7773
18247TIP3    H176156   0.815   1.028   2.248  0.0366 -1.4112 -1.2370
18247TIP3    H276157   0.953   1.060   2.197 -0.2205 -0.2217 -1.2086
18248TIP3   OH276158   4.703   2.041  11.768  0.0001 -0.8240  0.1962
18248TIP3    H176159   4.638   2.083  11.824 -0.1404  0.3098 -0.7821
18248TIP3    H276160   4.785   2.049  11.817  0.2032  1.6495 -0.4098
18249TIP3   OH276161   5.566   6.570   6.006 -0.2621  0.0589  0.2731
18249TIP3    H176162   5.523   6.534   6.084  1.3161  0.2844  1.2956
18249TIP3    H276163   5.561   6.665   6.017 -0.0845  0.0922  0.0699
18250TIP3   OH276164   1.392   2.322   1.564  0.8102 -0.2016  0.0557
18250TIP3    H176165   1.346   2.314   1.480 -1.0534 -1.4398  1.1010
18250TIP3    H276166   1.456   2.391   1.550 -0.9875  1.2217 -1.7266
18251TIP3   OH276167   2.863   5.996   0.035  0.2259 -0.2799  0.3735
18251TIP3    H176168   2.917   5.922   0.006  0.0079  0.3007 -1.6962
18251TIP3    H276169   2.912   6.074   0.008 -0.2599  0.3203  1.1651
18252TIP3   OH276170   6.179   3.533  13.911 -0.3309 -0.0536 -0.1233
18252TIP3    H176171   6.271   3.531  13.938  0.2718 -0.2834 -2.0453
18252TIP3    H276172   6.140   3.457  13.955  0.7663 -0.8434 -0.4508
18253TIP3   OH276173   5.406   2.063  11.284 -0.1132  0.3017  0.1104
18253TIP3    H176174   5.474   2.120  11.248  0.8539  0.4872  2.0560
18253TIP3    H276175   5.329   2.119  11.294  0.6932  1.2235  1.5923
18254TIP3   OH276176   2.417   2.935   0.331  0.0224 -0.2137  0.3249
18254TIP3    H176177   2.377   2.874   0.394 -0.8633 -0.6896 -0.6632
18254TIP3    H276178   2.342   2.978   0.289  0.6277  0.7656  0.2371
18255TIP3   OH276179   3.325   5.258  12.612  0.5754  0.2593 -0.8524
18255TIP3    H176180   3.362   5.273  12.699  1.8908 -2.3008 -0.8799
18255TIP3    H276181   3.236   5.228  12.629  0.7940 -0.1446 -0.3984
18256TIP3   OH276182   4.678   2.684  14.895 -0.1556 -0.4160 -0.1395
18256TIP3    H176183   4.731   2.762  14.879 -1.4577  0.6262  0.4890
18256TIP3    H276184   4.741   2.617  14.922  0.9166  0.5778 -0.1124
18257TIP3   OH276185   1.551   3.176   1.768  0.2425  0.1017  0.2294
18257TIP3    H176186   1.589   3.133   1.844  0.8318  0.0755 -0.0785
18257TIP3    H276187   1.462   3.199   1.795  0.3292 -0.2345  0.7976
18258TIP3   OH276188   0.016   6.029   4.938 -0.1078  0.1216  0.1297
18258TIP3    H176189   0.070   6.025   4.859  0.2096  0.6235  0.3150
18258TIP3    H276190  -0.039   6.107   4.926  0.3160  0.5090  0.6304
18259TIP3   OH276191   0.409   0.741   5.101  0.3037 -0.2363  0.2053
18259TIP3    H176192   0.461   0.764   5.024  0.7651  1.5931  1.0021
18259TIP3    H276193   0.320   0.732   5.068  0.4847  0.5902 -0.5358
18260TIP3   OH276194   5.394   2.598  16.366  0.1268 -0.5768 -0.1485
18260TIP3    H176195   5.454   2.552  16.425  2.6393  2.4256 -0.1195
18260TIP3    H276196   5.444   2.610  16.286 -0.1596  2.4332  0.0233
18261TIP3   OH276197   2.086   4.802   1.688 -0.2705 -0.5296  0.3256
18261TIP3    H176198   2.173   4.781   1.722  0.7294  0.9108 -1.1698
18261TIP3    H276199   2.036   4.722   1.699  1.3655 -1.5259  0.8781
18262TIP3   OH276200   0.502   0.417   5.775  0.0486 -0.7796 -0.1331
18262TIP3    H176201   0.585   0.369   5.771  0.8495  0.6046 -0.7517
18262TIP3    H276202   0.522   0.495   5.826 -1.2895 -1.1500  1.0441
18263TIP3   OH276203   6.508   5.447   2.796 -0.1411  0.0626 -0.2273
18263TIP3    H176204   6.443   5.512   2.771  1.3227  2.3607  1.5549
18263TIP3    H276205   6.463   5.394   2.863 -0.0159  2.2545  1.7374
18264TIP3   OH276206   1.123   3.114  14.607  0.0065  0.4865 -0.3632
18264TIP3    H176207   1.191   3.121  14.541 -0.9583 -2.7332 -1.8864
18264TIP3    H276208   1.130   3.195  14.657  0.9587  3.0361 -4.2010
18265TIP3   OH276209   5.285   1.302  11.439 -0.4167  0.2328  0.0353
18265TIP3    H176210   5.275   1.245  11.515 -0.5319 -0.9689 -0.8482
18265TIP3    H276211   5.282   1.391  11.474  0.1705 -0.3057  1.5032
18266TIP3   OH276212   5.866   6.589  14.574  0.3614 -0.1848  0.0457
18266TIP3    H176213   5.845   6.571  14.482 -0.9306 -0.4456  0.3722
18266TIP3    H276214   5.859   6.505  14.618  0.1656  0.0777  0.5269
18267TIP3   OH276215   3.499   2.187   5.210 -0.7622 -0.3359  0.0697
18267TIP3    H176216   3.541   2.235   5.282 -0.4473  0.5700 -0.7040
18267TIP3    H276217   3.405   2.205   5.222 -1.1799 -3.4020  2.5594
18268TIP3   OH276218   1.568   1.330  14.280  0.4019  0.4117 -0.2669
18268TIP3    H176219   1.485   1.326  14.232 -0.4369  1.4194  1.0558
18268TIP3    H276220   1.589   1.423  14.285  0.0097  0.4202  2.0376
18269TIP3   OH276221   3.353   0.414   2.945  0.4227  0.4897 -0.6574
18269TIP3    H176222   3.295   0.377   2.878 -0.1025 -4.0478  1.9120
18269TIP3    H276223   3.440   0.414   2.905 -0.3990  1.7016 -2.5670
18270TIP3   OH276224   2.953   4.259  14.950  0.1655 -0.2178 -0.2997
18270TIP3    H176225   2.923   4.169  14.953  0.3226 -0.3064 -1.1335
18270TIP3    H276226   2.874   4.312  14.964 -0.0637 -0.4691 -0.6650
18271TIP3   OH276227   5.821   1.257  11.789 -0.3959 -0.3253 -0.7264
18271TIP3    H176228   5.779   1.173  11.808 -0.3961 -0.3786 -0.9522
18271TIP3    H276229   5.890   1.235  11.727 -0.6134 -0.1123 -1.0497
18272TIP3   OH276230   4.152   4.024  15.941 -0.2104  0.3261  0.0968
18272TIP3    H176231   4.141   4.076  16.021 -0.4401  0.8477 -0.2658
18272TIP3    H276232   4.109   3.940  15.961 -0.6732  0.6182  0.3601
18273TIP3   OH276233   1.389   5.268  14.150 -0.1776 -0.6035  0.1180
18273TIP3    H176234   1.451   5.339  14.132  0.7907 -2.1546 -3.4953
18273TIP3    H276235   1.410   5.240  14.239  1.4725  1.6022  0.5118
18274TIP3   OH276236   0.693   0.467   5.456  1.0271 -0.2346  0.3377
18274TIP3    H176237   0.770   0.520   5.475  1.2964 -0.1507 -0.8858
18274TIP3    H276238   0.726   0.378   5.448  1.5650  0.1364 -2.9775
18275TIP3   OH276239   1.984   2.807  11.924 -0.0131  0.3619 -0.1150
18275TIP3    H176240   2.062   2.802  11.868 -0.8990  2.1491 -1.6157
18275TIP3    H276241   1.914   2.769  11.871 -0.6877  1.2593  0.1035
18276TIP3   OH276242   0.511   6.640   1.499 -0.1080  0.4796  0.2664
18276TIP3    H176243   0.578   6.641   1.431 -1.5575 -0.1405 -1.2342
18276TIP3    H276244   0.443   6.699   1.466  0.0470  1.8428  2.1866
18277TIP3   OH276245   3.724   1.176   0.166  0.2165 -0.8002  0.4452
18277TIP3    H176246   3.739   1.263   0.204 -2.2086 -0.5331  0.9869
18277TIP3    H276247   3.795   1.164   0.103  1.9254  0.5711  2.0169
18278TIP3   OH276248   1.686   6.412   1.890  0.3634  0.0830  0.3869
18278TIP3    H176249   1.711   6.320   1.887  0.1112  0.0072  0.5085
18278TIP3    H276250   1.627   6.424   1.815  1.8604  0.6054 -0.7381
18279TIP3   OH276251   3.906   1.011  10.932 -0.1537 -0.3398 -0.1709
18279TIP3    H176252   3.929   0.977  10.845  0.0120  0.1289 -0.3144
18279TIP3    H276253   3.976   0.980  10.989  0.3458  0.2887 -0.4250
18280TIP3   OH276254   5.614   4.608  15.750  0.0126  0.1748 -0.6007
18280TIP3    H176255   5.611   4.549  15.675 -0.2296 -0.3490 -0.1821
18280TIP3    H276256   5.683   4.671  15.729  0.6701 -0.6015 -0.7920
18281TIP3   OH276257   2.173   4.469  16.201 -0.0637  0.1734 -0.6897
18281TIP3    H176258   2.160   4.557  16.235 -0.8016 -0.9079  2.1012
18281TIP3    H276259   2.148   4.411  16.273 -0.3545 -2.3560 -2.6735
18282TIP3   OH276260   0.543   5.054  14.096 -0.5430 -0.0586  0.0332
18282TIP3    H176261   0.518   5.143  14.073 -1.8693 -0.9103 -2.0852
18282TIP3    H276262   0.520   5.046  14.189 -0.5821  1.7093  0.2101
18283TIP3   OH276263   3.843   2.389   1.979 -0.4369 -0.1996 -0.0296
18283TIP3    H176264   3.797   2.396   1.896  2.4498  0.7538 -1.6814
18283TIP3    H276265   3.858   2.295   1.991 -2.3681 -0.4921  0.3573
18284TIP3   OH276266   6.678   4.346   3.001  0.1057  0.6777 -0.3833
18284TIP3    H176267   6.648   4.256   3.005  1.1985  0.2676 -1.1397
18284TIP3    H276268   6.627   4.386   2.930  0.8870  0.1484 -1.2612
18285TIP3   OH276269   1.515   1.565  14.988 -0.5725  0.2060  0.1192
18285TIP3    H176270   1.452   1.493  14.991 -0.3029 -0.0146  0.6769
18285TIP3    H276271   1.507   1.608  15.073  0.5304 -0.2696  0.4813
18286TIP3   OH276272   3.372   0.117   4.979  0.3695 -0.0638  0.5615
18286TIP3    H176273   3.295   0.069   4.948 -1.2571  0.7932  2.9060
18286TIP3    H276274   3.375   0.195   4.924  0.4703 -0.7840 -0.4911
18287TIP3   OH276275   2.583   2.442   0.666 -0.0403 -0.3956 -0.1324
18287TIP3    H176276   2.567   2.383   0.739  3.3400 -0.1621  0.9754
18287TIP3    H276277   2.591   2.529   0.706 -0.8402  0.1840 -1.1780
18288TIP3   OH276278   3.054   1.150   3.999 -0.6965 -0.4642  0.3661
18288TIP3    H176279   3.107   1.228   3.982 -3.2902  1.5502  0.9099
18288TIP3    H276280   3.084   1.086   3.934  3.2612 -0.0149  1.4923
18289TIP3   OH276281   1.729   1.022  11.136  0.4701 -0.0718  0.4258
18289TIP3    H176282   1.721   0.938  11.182  0.0666  0.5659  1.5630
18289TIP3    H276283   1.812   1.017  11.090  0.3721 -1.1620  0.3490
18290TIP3   OH276284   5.987   3.929   2.557  0.1629  0.3152  0.1137
18290TIP3    H176285   5.959   4.017   2.585  1.8462  0.5214  1.3488
18290TIP3    H276286   6.061   3.909   2.615 -0.2439 -1.9713 -0.0811
18291TIP3   OH276287   4.340   2.802  13.349  0.0586 -0.5034  0.3037
18291TIP3    H176288   4.281   2.741  13.306 -0.6016  0.1473  0.2767
18291TIP3    H276289   4.371   2.755  13.427 -0.5463 -0.8246  0.3531
18292TIP3   OH276290   4.136   0.046   4.605  0.3808 -0.5597 -0.1803
18292TIP3    H176291   4.053   0.073   4.645 -0.1809 -0.0562 -1.6201
18292TIP3    H276292   4.195   0.033   4.679 -0.4332  0.9137  0.7755
18293TIP3   OH276293   4.412   4.106  15.256 -0.1159  0.5150  0.6526
18293TIP3    H176294   4.382   4.178  15.310  0.3106  0.5650  0.8267
18293TIP3    H276295   4.333   4.072  15.214 -0.4129  0.6381  1.1106
18294TIP3   OH276296   0.555   2.761  14.753  0.0192 -0.0111 -0.0009
18294TIP3    H176297   0.617   2.688  14.756 -0.3174 -0.2780  0.9727
18294TIP3    H276298   0.539   2.782  14.845 -0.3410  0.9094 -0.2668
18295TIP3   OH276299   0.260   2.241  11.405  0.4906  0.1662  0.4467
18295TIP3    H176300   0.251   2.334  11.425  2.4520  0.8646 -1.4418
18295TIP3    H276301   0.205   2.228  11.327  1.5882  0.1976 -0.3511
18296TIP3   OH276302   2.238   0.174  16.725 -0.0909  0.5589 -0.0209
18296TIP3    H176303   2.291   0.162  16.804  0.1273  0.5825 -0.1648
18296TIP3    H276304   2.262   0.100  16.669 -1.2599 -0.2591  0.4967
18297TIP3   OH276305   6.312   6.774   3.521 -0.1808  0.1788 -0.3066
18297TIP3    H176306   6.294   6.725   3.441  0.1511  1.1539 -1.0007
18297TIP3    H276307   6.399   6.744   3.549 -0.0758  0.2017 -0.6037
18298TIP3   OH276308   2.255   1.295  16.189  0.6203  0.3239  0.3180
18298TIP3    H176309   2.284   1.357  16.256  0.1662  1.3119 -0.3826
18298TIP3    H276310   2.335   1.250  16.162  1.1606  1.4633 -0.0258
18299TIP3   OH276311   4.190   6.676   0.205  0.7970 -0.1652  0.1740
18299TIP3    H176312   4.253   6.704   0.271  0.8985  0.3677 -0.1450
18299TIP3    H276313   4.105   6.683   0.248  0.9352 -0.7039  0.5446
18300TIP3   OH276314   3.186   2.553  12.655 -0.1417 -0.3673  0.5620
18300TIP3    H176315   3.245   2.601  12.596  0.3757 -0.9786  0.5778
18300TIP3    H276316   3.099   2.578  12.626  0.1170  0.5271  0.5188
18301TIP3   OH276317   4.624   2.834  11.899  0.2703  0.0621  0.5937
18301TIP3    H176318   4.707   2.863  11.936 -0.2237 -0.0421  1.8461
18301TIP3    H276319   4.558   2.884  11.948 -0.4944 -1.5158  1.2261
18302TIP3   OH276320   0.023   3.387  15.581  0.0475  0.3301  0.0741
18302TIP3    H176321   0.029   3.463  15.639 -1.0232  1.0660 -0.7428
18302TIP3    H276322  -0.042   3.412  15.515 -0.8463 -1.5454  0.1820
18303TIP3   OH276323   1.231   1.062  11.016 -0.3085  0.0437 -0.1709
18303TIP3    H176324   1.141   1.033  10.999  0.1675 -0.4965 -1.8996
18303TIP3    H276325   1.221   1.149  11.055 -1.6565 -1.0385  2.1251
18304TIP3   OH276326   3.300   1.986  15.686  0.3715  0.0720 -0.6501
18304TIP3    H176327   3.328   1.897  15.665  3.7482  0.5431  1.0504
18304TIP3    H276328   3.206   1.979  15.704  0.8502 -3.5491  1.2914
18305TIP3   OH276329   1.897   2.261  13.453  0.3330 -0.4321  0.2684
18305TIP3    H176330   1.965   2.320  13.420 -1.0310 -0.2754 -2.5398
18305TIP3    H276331   1.865   2.304  13.532  1.5094  0.9849  0.0240
18306TIP3   OH276332   2.148   2.059  14.071  0.2406  0.3951 -0.0896
18306TIP3    H176333   2.176   2.042  14.160 -0.8987  0.0833  0.2172
18306TIP3    H276334   2.165   2.153  14.058 -0.1467  0.5688  0.6537
18307TIP3   OH276335   5.269   2.266   3.400  0.1260 -0.5888  1.0809
18307TIP3    H176336   5.300   2.288   3.488  1.0116 -1.9613  1.1489
18307TIP3    H276337   5.333   2.307   3.341  0.3564 -0.8785  1.1276
18308TIP3   OH276338   3.353   3.922  11.849 -0.0011 -0.2644  0.2021
18308TIP3    H176339   3.435   3.965  11.827 -0.9841  1.0037 -1.2040
18308TIP3    H276340   3.306   3.985  11.904 -1.0435  0.1200 -1.0644
18309TIP3   OH276341   6.455   5.680   2.544 -0.1536  0.1747 -0.2875
18309TIP3    H176342   6.432   5.731   2.622 -1.2832 -0.3566 -0.2561
18309TIP3    H276343   6.543   5.711   2.520 -0.7795  2.1176 -0.2650
18310TIP3   OH276344   6.783   1.632  15.903 -0.5100 -0.4852 -0.4557
18310TIP3    H176345   6.832   1.697  15.851 -1.3719 -0.4337 -1.2276
18310TIP3    H276346   6.744   1.683  15.974  0.3539 -0.4904  0.0413
18311TIP3   OH276347   3.190   5.450  11.911 -0.1218  0.2162  0.7755
18311TIP3    H176348   3.143   5.510  11.854 -0.0505 -0.1926  0.2769
18311TIP3    H276349   3.277   5.443  11.872 -0.2154 -0.4241  0.6735
18312TIP3   OH276350   3.253   0.877   6.200  0.5236  0.1353 -0.0794
18312TIP3    H176351   3.207   0.949   6.244 -0.3417 -1.0842  1.1154
18312TIP3    H276352   3.185   0.830   6.153  1.1224  0.2278 -1.0586
18313TIP3   OH276353   4.748   2.785  16.373 -0.3044 -0.0960 -0.9844
18313TIP3    H176354   4.793   2.867  16.396 -1.8967  1.1161 -1.9618
18313TIP3    H276355   4.728   2.744  16.457 -1.0111  1.4159 -0.3769
18314TIP3   OH276356   4.848   5.236   4.849  0.1966 -0.1257  0.2913
18314TIP3    H176357   4.759   5.263   4.825 -0.0160 -0.8378  0.2487
18314TIP3    H276358   4.844   5.140   4.850  1.0579 -0.1702 -0.0559
18315TIP3   OH276359   5.618   4.942   4.905 -0.2366  0.5375 -0.1290
18315TIP3    H176360   5.612   4.872   4.970 -0.8943  0.1400 -0.6052
18315TIP3    H276361   5.535   4.989   4.912  0.2838  1.4114  0.3314
18316TIP3   OH276362   0.245   4.039  14.834  0.2656 -0.3086  0.1297
18316TIP3    H176363   0.326   4.062  14.880  0.4256 -0.4096 -0.1023
18316TIP3    H276364   0.226   3.950  14.863  0.0068 -0.1323  0.5109
18317TIP3   OH276365   0.258   1.684  17.061 -0.4031 -0.0602 -0.0420
18317TIP3    H176366   0.225   1.773  17.053  0.6122  0.2997 -0.3253
18317TIP3    H276367   0.189   1.637  17.108 -1.7021  0.4481 -1.3681
18318TIP3   OH276368   2.662   6.677  16.671 -0.6821 -0.1112 -0.2573
18318TIP3    H176369   2.597   6.747  16.669  0.4917  1.0177 -0.2809
18318TIP3    H276370   2.687   6.671  16.763 -0.4410 -0.1781 -0.3273
18319TIP3   OH276371   0.247   1.362  15.822 -0.1568  0.0421 -0.1102
18319TIP3    H176372   0.190   1.363  15.899  0.1135  0.5079  0.0907
18319TIP3    H276373   0.284   1.274  15.820  0.4500  0.2600  0.7621
18320TIP3   OH276374   3.089   2.735  15.765  0.3680  0.2961 -0.1505
18320TIP3    H176375   3.178   2.702  15.773 -0.0297 -0.8231 -0.2407
18320TIP3    H276376   3.073   2.737  15.671  0.1875  0.2203 -0.1207
18321TIP3   OH276377   4.636   6.321  11.891  0.1220  0.3300  0.3004
18321TIP3    H176378   4.706   6.260  11.865 -1.6051 -0.2271 -3.8399
18321TIP3    H276379   4.674   6.407  11.876  0.0331  0.0363 -2.0833
18322TIP3   OH276380   2.152   6.324  14.771  0.4761  0.2510 -0.3896
18322TIP3    H176381   2.063   6.360  14.765 -0.2408 -1.4786 -0.6422
18322TIP3    H276382   2.208   6.394  14.739 -0.8336  1.2005 -0.7085
18323TIP3   OH276383   2.623   0.947  15.536 -0.1019  0.4785 -0.0519
18323TIP3    H176384   2.714   0.952  15.566 -0.5545  0.9960  1.3241
18323TIP3    H276385   2.585   1.032  15.560 -1.5787 -0.5819  1.6929
18324TIP3   OH276386   6.357   5.716   3.778  0.0854 -0.3688 -0.4712
18324TIP3    H176387   6.433   5.741   3.726 -0.6809  0.2760 -1.3220
18324TIP3    H276388   6.317   5.644   3.728  1.0351 -1.8711  0.8218
18325TIP3   OH276389   3.352   4.532  15.777 -0.0164  0.3287  0.0765
18325TIP3    H176390   3.379   4.443  15.753 -0.8359  0.3432 -0.9606
18325TIP3    H276391   3.415   4.558  15.845  0.4908 -0.8780  0.1020
18326TIP3   OH276392   3.945   4.751   0.212 -0.3313 -0.2169  0.4299
18326TIP3    H176393   4.018   4.810   0.191  0.3885 -0.5936  1.7502
18326TIP3    H276394   3.898   4.796   0.283  0.3310 -1.2630  1.5743
18327TIP3   OH276395   5.004   3.309   0.171  0.0935 -0.0600 -0.5466
18327TIP3    H176396   5.042   3.298   0.259  1.3187  1.4353 -0.8337
18327TIP3    H276397   4.945   3.384   0.180 -0.0823 -0.1573 -0.9030
18328TIP3   OH276398   5.676   5.394   0.724  0.4356 -0.1357 -0.7668
18328TIP3    H176399   5.661   5.489   0.724 -0.6889 -0.2568 -2.6751
18328TIP3    H276400   5.590   5.357   0.702  1.5304 -1.3919 -3.2238
18329TIP3   OH276401   3.324   6.201  14.159 -0.0274 -0.3662 -0.5023
18329TIP3    H176402   3.243   6.208  14.210  0.1634 -0.3021 -0.2054
18329TIP3    H276403   3.363   6.119  14.188  0.0429 -0.3671 -0.6030
18330TIP3   OH276404   2.293   4.699  13.442  0.1805 -0.3594  0.3646
18330TIP3    H176405   2.385   4.706  13.416 -0.0723  0.6283 -0.3223
18330TIP3    H276406   2.245   4.700  13.359 -0.4421 -1.1047  0.7111
18331TIP3   OH276407   2.261   6.625  16.025  0.3553 -0.9920  0.5669
18331TIP3    H176408   2.263   6.601  15.932  1.4998  1.6431 -0.2004
18331TIP3    H276409   2.353   6.625  16.052  0.0922 -0.9944  1.4852
18332TIP3   OH276410   2.503   6.116  13.649  0.1034  0.3719 -0.0573
18332TIP3    H176411   2.503   6.211  13.639 -1.0078  0.4850  0.8469
18332TIP3    H276412   2.516   6.101  13.742 -0.8706 -0.3189 -0.0152
18333TIP3   OH276413   1.659   0.305   0.287 -0.2866  0.0849 -0.4491
18333TIP3    H176414   1.585   0.281   0.232 -1.4248 -0.5746  1.2924
18333TIP3    H276415   1.659   0.240   0.358  2.1624 -0.1484 -0.5516
18334TIP3   OH276416   6.266   1.038   2.173 -0.3572 -0.0920  0.6997
18334TIP3    H176417   6.246   1.127   2.203 -0.8855  0.0900 -0.1736
18334TIP3    H276418   6.285   1.047   2.080 -1.1770 -0.9990  0.4240
18335TIP3   OH276419   2.942   3.420   0.639 -0.2108 -0.1754  0.0609
18335TIP3    H176420   3.007   3.465   0.693  0.1327 -0.3794 -0.1797
18335TIP3    H276421   2.876   3.390   0.701  0.9697 -1.8239  0.6066
18336TIP3   OH276422   0.307   3.328   5.603 -1.0777 -0.5858  0.6012
18336TIP3    H176423   0.396   3.325   5.637 -0.9749 -0.7758  0.3126
18336TIP3    H276424   0.279   3.419   5.618 -0.1206  0.0473 -1.1142
18337TIP3   OH276425   0.657   5.302   0.205  0.3998  0.5501 -0.3728
18337TIP3    H176426   0.736   5.296   0.258 -0.6863 -3.0292  1.1721
18337TIP3    H276427   0.687   5.294   0.114  1.8874  0.5403  0.1022
18338TIP3   OH276428   1.289   4.801  11.518 -0.2683 -0.4721 -0.3034
18338TIP3    H176429   1.377   4.838  11.521 -0.9898  1.2561  1.0206
18338TIP3    H276430   1.291   4.728  11.581  0.5661 -1.3626 -1.3231
18339TIP3   OH276431   4.904   1.179   1.513 -0.0128 -0.1920  0.1962
18339TIP3    H176432   4.936   1.113   1.451 -1.1589  0.0608 -0.7107
18339TIP3    H276433   4.891   1.257   1.459  0.4840  0.5115  1.0867
18340TIP3   OH276434   4.056   1.467  11.328 -0.5244 -0.6353 -0.2291
18340TIP3    H176435   3.975   1.429  11.361 -0.6450 -0.3160 -0.1550
18340TIP3    H276436   4.061   1.439  11.236 -1.2252  0.1622 -0.5225
18341TIP3   OH276437   6.066   2.447   6.370  0.4517 -0.2960  0.4326
18341TIP3    H176438   6.159   2.453   6.346  0.0328  2.5692 -0.8014
18341TIP3    H276439   6.052   2.519   6.431 -0.9299 -0.8989  0.8741
18342TIP3   OH276440   1.771   1.577   3.557 -0.2045  0.1803 -0.2816
18342TIP3    H176441   1.701   1.605   3.616 -0.5936 -0.2700 -0.5157
18342TIP3    H276442   1.821   1.513   3.608  0.8601  1.4768  0.3545
18343TIP3   OH276443   2.205   1.163  11.996 -0.2829  0.4320  0.6198
18343TIP3    H176444   2.112   1.155  12.018 -0.4209  0.1871 -0.0586
18343TIP3    H276445   2.216   1.255  11.972 -0.2821  0.5326  0.9960
18344TIP3   OH276446   5.005   2.235   4.116  0.5012  0.0429  0.3073
18344TIP3    H176447   5.027   2.328   4.117 -0.0947  0.2087 -0.6234
18344TIP3    H276448   5.089   2.191   4.102  0.9280  0.3710  1.6984
18345TIP3   OH276449   4.399   1.202   5.088  0.9337 -0.0339  0.1492
18345TIP3    H176450   4.493   1.217   5.097  0.8560  0.0661  0.8863
18345TIP3    H276451   4.359   1.284   5.118  0.5960 -0.3360  0.5447
18346TIP3   OH276452   6.300   6.142  12.722  0.3194 -0.5015  0.1329
18346TIP3    H176453   6.316   6.207  12.654 -0.9918  1.2089  1.3581
18346TIP3    H276454   6.309   6.057  12.678  1.5032  0.5000 -1.6525
18347TIP3   OH276455   0.689   1.735   2.411  0.1782 -0.0287 -0.6244
18347TIP3    H176456   0.741   1.727   2.491  0.9174  0.7517 -1.0047
18347TIP3    H276457   0.623   1.802   2.432  0.2573  0.0434 -0.6059
18348TIP3   OH276458   3.236   6.650   3.634 -0.2202  0.0720  0.3796
18348TIP3    H176459   3.166   6.713   3.622  0.1992  0.6570  0.9560
18348TIP3    H276460   3.291   6.660   3.556 -0.6041 -0.1779  0.0716
18349TIP3   OH276461   5.999   4.580  16.756 -0.1905  0.2490  0.4979
18349TIP3    H176462   6.041   4.629  16.827 -1.7735  2.9378 -0.2386
18349TIP3    H276463   6.045   4.497  16.753 -0.2140 -0.1412  4.8296
18350TIP3   OH276464   0.988   5.624   2.872  0.0532 -0.2529  0.1442
18350TIP3    H176465   1.034   5.645   2.953 -0.2602 -1.1280  0.5590
18350TIP3    H276466   0.938   5.545   2.892 -0.5458 -0.1054 -0.7104
18351TIP3   OH276467   4.123   5.533  15.515 -0.7749  0.0705  0.8089
18351TIP3    H176468   4.057   5.536  15.445  1.1770  2.0554 -1.0975
18351TIP3    H276469   4.176   5.456  15.494  2.1069  2.6266 -2.3742
18352TIP3   OH276470   6.749   5.248  15.827  0.0139  0.0043  0.0663
18352TIP3    H176471   6.777   5.336  15.853  2.2077 -0.6903  0.2022
18352TIP3    H276472   6.754   5.249  15.731 -0.7315  0.2417  0.0206
18353TIP3   OH276473   1.148   0.270   2.786  0.0251  0.7262  0.1654
18353TIP3    H176474   1.148   0.306   2.697  1.2220  0.7999  0.1776
18353TIP3    H276475   1.226   0.214   2.788 -1.2013 -1.0788  0.4658
18354TIP3   OH276476   0.811   6.284   3.125  0.1733  0.4331 -0.0041
18354TIP3    H176477   0.724   6.246   3.140  0.7199 -0.4878  0.8931
18354TIP3    H276478   0.864   6.253   3.198  1.1646  1.3226 -0.3245
18355TIP3   OH276479   5.881   1.349  15.263  0.6959  0.1489 -0.0537
18355TIP3    H176480   5.975   1.369  15.268  0.2324  2.1808  2.8925
18355TIP3    H276481   5.859   1.316  15.350 -1.2724 -0.7495 -0.8491
18356TIP3   OH276482   5.691   6.730  16.315  0.2753 -0.1019  0.5079
18356TIP3    H176483   5.632   6.750  16.243  0.6110 -0.0375  0.2495
18356TIP3    H276484   5.758   6.674  16.277  0.6543  0.2270  0.6858
18357TIP3   OH276485   5.322   4.035   0.493 -0.3777 -0.0127 -0.4347
18357TIP3    H176486   5.376   4.005   0.420 -0.4198  0.5891 -0.7186
18357TIP3    H276487   5.378   4.023   0.570  0.4392  1.2596 -0.8094
18358TIP3   OH276488   4.676   1.347   2.995  0.3676 -0.2371  0.1708
18358TIP3    H176489   4.751   1.400   2.969 -0.1221  0.0755 -0.6131
18358TIP3    H276490   4.715   1.264   3.024  1.2313  0.8419  2.3908
18359TIP3   OH276491   3.045   3.374   2.813  0.0105 -0.1058 -0.2784
18359TIP3    H176492   3.130   3.373   2.769  0.2096 -1.6917  0.0886
18359TIP3    H276493   2.982   3.385   2.741  0.4867  0.6519 -0.5956
18360TIP3   OH276494   0.803   1.973  13.349 -0.5564 -0.6406 -0.3018
18360TIP3    H176495   0.785   2.066  13.334 -0.6381 -0.4159  1.0960
18360TIP3    H276496   0.717   1.931  13.344 -0.5827 -0.5696 -0.4527
18361TIP3   OH276497   4.188   4.209   2.125  0.1842 -0.2648  0.5687
18361TIP3    H176498   4.188   4.294   2.171  0.9682 -0.0108  0.1140
18361TIP3    H276499   4.097   4.196   2.099 -0.3072 -0.4425  2.2338
18362TIP3   OH276500   6.437   3.020   0.400 -0.0922 -0.2739  0.0917
18362TIP3    H176501   6.424   3.030   0.494 -0.0572  0.0446  0.0618
18362TIP3    H276502   6.532   3.016   0.389 -0.1055 -2.3984  0.2891
18363TIP3   OH276503   1.414   0.456  10.627  0.4912 -0.0811 -0.2350
18363TIP3    H176504   1.471   0.492  10.560  2.2980 -1.5778  0.3955
18363TIP3    H276505   1.416   0.521  10.697  3.0481 -0.8727  0.5549
18364TIP3   OH276506   0.212   5.719   2.095 -0.0727  0.0856 -0.0259
18364TIP3    H176507   0.198   5.716   2.190  0.7822  0.2141  0.1159
18364TIP3    H276508   0.306   5.736   2.086 -0.0893 -0.2751 -0.9030
18365TIP3   OH276509   4.458   2.652  15.039  0.7994  1.1143 -0.1198
18365TIP3    H176510   4.469   2.704  15.119 -3.5708  3.1466 -0.5480
18365TIP3    H276511   4.545   2.652  14.999  2.6802  1.8890  3.4699
18366TIP3   OH276512   1.307   3.856  15.834 -0.0278 -0.2286  0.4664
18366TIP3    H176513   1.300   3.812  15.750 -1.2454 -0.1247  0.4938
18366TIP3    H276514   1.340   3.944  15.813  1.4584 -0.7886  0.3149
18367TIP3   OH276515   4.943   6.154   2.417  0.4922 -0.4550 -0.6448
18367TIP3    H176516   4.913   6.229   2.365  0.2460 -0.7181 -0.8862
18367TIP3    H276517   4.990   6.193   2.490 -0.8176 -0.0030 -0.0116
18368TIP3   OH276518   2.700   5.593   4.637 -0.3073 -1.3685 -0.3141
18368TIP3    H176519   2.705   5.501   4.609  0.1331 -1.4120 -0.1056
18368TIP3    H276520   2.739   5.593   4.725 -1.8909 -1.2813  0.4117
18369TIP3   OH276521   5.800   2.220   4.505  0.1269  0.0856 -0.0755
18369TIP3    H176522   5.770   2.300   4.461 -1.0825 -0.2708  0.0712
18369TIP3    H276523   5.849   2.251   4.580  1.2317  0.6969 -1.0135
18370TIP3   OH276524   2.026   0.628  15.048 -0.0430  0.1851  0.1233
18370TIP3    H176525   2.047   0.718  15.073  0.2549  0.6239 -1.5977
18370TIP3    H276526   2.109   0.592  15.015 -0.5091 -0.1768 -0.6866
18371TIP3   OH276527   6.503   4.791   1.124 -0.1834 -0.3541 -0.4553
18371TIP3    H176528   6.411   4.812   1.109  0.1847  0.8426 -1.2233
18371TIP3    H276529   6.550   4.870   1.098  1.0030 -0.5341  0.9958
18372TIP3   OH276530   4.151   4.943   1.655 -0.1712 -0.2440  0.0095
18372TIP3    H176531   4.102   4.953   1.736 -0.1339  0.7139 -0.0729
18372TIP3    H276532   4.093   4.976   1.587 -0.0592 -0.6989 -0.3146
18373TIP3   OH276533   0.411   5.901   4.701  0.2288 -0.0018 -0.1039
18373TIP3    H176534   0.497   5.867   4.675  0.7331  0.9839  0.2391
18373TIP3    H276535   0.392   5.857   4.784  0.3486 -0.3144 -0.2399
18374TIP3   OH276536   5.101   0.624   1.413  0.0887 -0.0199 -0.0502
18374TIP3    H176537   5.076   0.666   1.496  1.2212 -0.3809  0.4923
18374TIP3    H276538   5.185   0.663   1.391  0.0029 -0.2529 -0.8136
18375TIP3   OH276539   1.689   4.397  11.975  0.3152  0.3783  0.0697
18375TIP3    H176540   1.755   4.466  11.967 -1.6140  2.4868  1.2682
18375TIP3    H276541   1.698   4.365  12.065  0.8716 -0.6526 -0.3310
18376TIP3   OH276542   6.408   2.715   0.089 -0.2590  0.1244 -0.7877
18376TIP3    H176543   6.481   2.740   0.032  0.2007  0.3854 -0.0972
18376TIP3    H276544   6.353   2.793   0.093  1.1251  1.0957  1.2889
18377TIP3   OH276545   1.904   0.247  11.660 -0.6364  0.1740  0.2843
18377TIP3    H176546   1.992   0.230  11.695 -0.5445  1.2630  0.6268
18377TIP3    H276547   1.848   0.252  11.738 -1.1551 -1.2606  0.0276
18378TIP3   OH276548   3.222   0.756   1.937 -0.2281 -0.1291  0.5903
18378TIP3    H176549   3.254   0.794   2.019  0.3725 -1.1455  0.8579
18378TIP3    H276550   3.215   0.662   1.956 -0.6811 -0.2928 -0.3344
18379TIP3   OH276551   4.308   2.937   4.860 -0.1963  0.1443 -0.2484
18379TIP3    H176552   4.217   2.913   4.881  0.4002 -1.0647  1.1793
18379TIP3    H276553   4.309   2.943   4.765 -1.2229 -2.4427 -0.5351
18380TIP3   OH276554   2.044   2.943   5.743  0.4449 -0.0545 -0.2500
18380TIP3    H176555   2.000   2.897   5.671  1.2415 -1.2667  0.0035
18380TIP3    H276556   2.112   2.882   5.772  0.9947  0.9644  0.6651
18381TIP3   OH276557   5.118   4.327  15.491  0.0178 -0.2155  0.4625
18381TIP3    H176558   5.203   4.335  15.533 -0.2958  0.0592  1.0670
18381TIP3    H276559   5.076   4.254  15.536  0.0972 -0.6280 -0.1264
18382TIP3   OH276560   2.481   1.341   4.852  0.0810  0.8396  0.3917
18382TIP3    H176561   2.391   1.310   4.859  0.4728 -0.6157 -0.5232
18382TIP3    H276562   2.484   1.419   4.907 -1.3214  0.0288  1.6911
18383TIP3   OH276563   4.686   6.609  15.994  0.3204 -1.0432 -0.4407
18383TIP3    H176564   4.737   6.531  15.971  0.4637 -0.5582 -1.8173
18383TIP3    H276565   4.728   6.680  15.947  1.8676  0.4308  2.8480
18384TIP3   OH276566   6.318   6.381   0.913  0.3255  0.2390 -0.0150
18384TIP3    H176567   6.254   6.371   0.842  0.1024  2.9517 -0.3039
18384TIP3    H276568   6.274   6.343   0.989 -0.6339 -0.1088 -0.7150
18385TIP3   OH276569   2.325   0.530   6.267  0.4812  0.8223  0.2999
18385TIP3    H176570   2.250   0.555   6.213  1.1265 -0.4432 -1.2981
18385TIP3    H276571   2.287   0.505   6.351 -0.8006  1.0639 -0.1817
18386TIP3   OH276572   1.631   0.493  15.420 -0.3401 -0.3420  0.2777
18386TIP3    H176573   1.690   0.560  15.455 -0.1937 -1.1912  1.7494
18386TIP3    H276574   1.628   0.511  15.326  0.8678  0.8039  0.4191
18387TIP3   OH276575   3.661   1.822   4.506  0.6600  0.3828  0.5255
18387TIP3    H176576   3.619   1.778   4.580  1.1261 -0.2850  0.4071
18387TIP3    H276577   3.681   1.751   4.445  2.9068  0.4839  1.0379
18388TIP3   OH276578   5.919   6.686   2.530 -0.0474 -0.0983  0.5784
18388TIP3    H176579   5.990   6.623   2.545 -0.7850 -0.6577  1.8884
18388TIP3    H276580   5.872   6.689   2.613 -2.7771 -1.2350 -0.8286
18389TIP3   OH276581   5.906   3.741   3.182  0.6047 -0.3496 -0.2031
18389TIP3    H176582   5.858   3.809   3.229 -0.5040 -1.1239 -0.1711
18389TIP3    H276583   5.850   3.663   3.189  2.8337 -1.9133  1.6865
18390TIP3   OH276584   4.036   5.498  15.769 -0.1109  0.0790 -0.4144
18390TIP3    H176585   3.942   5.512  15.758  0.2599  1.6823 -2.0240
18390TIP3    H276586   4.069   5.491  15.680  1.4606  0.8814  0.0770
18391TIP3   OH276587   6.350   2.646   3.298 -0.0742 -0.0954 -0.2929
18391TIP3    H176588   6.420   2.691   3.250 -0.5884  0.9042 -0.1344
18391TIP3    H276589   6.269   2.674   3.254 -0.3900 -1.1778 -0.4335
18392TIP3   OH276590   2.789   5.887   1.859 -0.3555  0.1189 -0.2452
18392TIP3    H176591   2.860   5.837   1.900 -2.3446 -1.4121  1.5588
18392TIP3    H276592   2.829   5.929   1.783  2.7649  0.3958  1.4046
18393TIP3   OH276593   5.930   6.190   3.232 -0.2649 -0.3727  0.1546
18393TIP3    H176594   5.947   6.271   3.280  0.5227 -0.3127 -0.1996
18393TIP3    H276595   5.917   6.218   3.141 -0.8308 -0.5657  0.1761
18394TIP3   OH276596   6.626   3.992   0.792 -0.2314 -0.1505 -0.0808
18394TIP3    H176597   6.675   3.960   0.868 -0.8168  2.2321  1.4283
18394TIP3    H276598   6.643   4.086   0.791 -2.0016  0.2126 -1.5772
18395TIP3   OH276599   3.635   3.863  13.001 -0.1334  0.2346  0.2293
18395TIP3    H176600   3.571   3.804  12.960 -0.6217 -0.5210  2.0114
18395TIP3    H276601   3.583   3.937  13.032  0.1420  0.5104  0.0403
18396TIP3   OH276602   5.612   6.443   2.857 -0.2115  0.3706  0.0880
18396TIP3    H176603   5.635   6.534   2.838 -1.2927  0.7049  0.3122
18396TIP3    H276604   5.638   6.395   2.778 -0.6818  1.0612 -0.4982
18397TIP3   OH276605   5.880   4.272  13.122  0.8818  0.6009 -0.6897
18397TIP3    H176606   5.867   4.179  13.102  0.4523  0.6300 -0.5482
18397TIP3    H276607   5.959   4.273  13.177  0.3747  0.2131  0.0756
18398TIP3   OH276608   1.645   0.958  11.788 -0.4510 -0.3212  0.0551
18398TIP3    H176609   1.573   0.965  11.850 -0.5727 -1.4006  0.0548
18398TIP3    H276610   1.710   1.021  11.818 -1.6224  1.0872 -0.2776
18399TIP3   OH276611   0.850   3.475  14.333 -0.0339  0.0708 -0.6300
18399TIP3    H176612   0.775   3.502  14.386  1.1956  0.8983  0.7721
18399TIP3    H276613   0.878   3.392  14.372 -0.5433 -0.5429 -1.5263
18400TIP3   OH276614   0.118   1.709   4.733 -0.4003  0.0072  0.2268
18400TIP3    H176615   0.159   1.627   4.707 -0.4776 -0.5890  1.9182
18400TIP3    H276616   0.053   1.685   4.799 -0.6389  1.3872  0.5388
18401TIP3   OH276617   6.353   2.479  13.144 -0.3326 -0.1625  0.4267
18401TIP3    H176618   6.392   2.528  13.216  0.7931  1.1268 -1.0117
18401TIP3    H276619   6.426   2.430  13.106 -0.0441  1.9280 -2.0089
18402TIP3   OH276620   0.765   0.849   3.053  0.6685 -0.5917 -0.1043
18402TIP3    H176621   0.779   0.919   3.117  3.5566 -1.3861  0.3032
18402TIP3    H276622   0.713   0.784   3.100 -0.9944  0.6753 -0.0918
18403TIP3   OH276623   3.970   4.826   4.267  0.2263  0.5388 -0.2714
18403TIP3    H176624   3.970   4.916   4.234 -0.5458  0.6082 -0.0969
18403TIP3    H276625   3.911   4.779   4.208  1.4851 -0.1219 -1.0462
18404TIP3   OH276626   4.097   5.807  15.541 -0.4094 -0.4233  0.3974
18404TIP3    H176627   4.065   5.801  15.451 -2.1046 -0.7144  0.9720
18404TIP3    H276628   4.125   5.718  15.563 -0.1488 -0.3873  0.2172
18405TIP3   OH276629   2.435   4.657  15.623  0.6138 -0.5946  0.4568
18405TIP3    H176630   2.459   4.664  15.530 -0.4821 -2.3406 -0.0023
18405TIP3    H276631   2.518   4.643  15.668  1.1104 -0.2375 -0.3154
18406TIP3   OH276632   3.502   0.438   4.350 -0.4290 -0.1302  0.0846
18406TIP3    H176633   3.472   0.400   4.267  0.8839 -0.6886 -0.1543
18406TIP3    H276634   3.496   0.533   4.336  0.0439 -0.2133 -0.7634
18407TIP3   OH276635   4.406   4.718   2.096  1.1860 -0.0575  0.4267
18407TIP3    H176636   4.487   4.688   2.056  1.1063 -0.5765  0.6502
18407TIP3    H276637   4.342   4.651   2.073  0.9359  0.1019  0.6610
18408TIP3   OH276638   4.468   4.345   1.365 -0.0126  0.0948  0.2904
18408TIP3    H176639   4.410   4.314   1.295  2.5346 -2.5324 -0.8834
18408TIP3    H276640   4.450   4.287   1.439  0.5818 -0.2449  0.1721
18409TIP3   OH276641   6.163   0.455  14.024 -0.1295 -0.6027 -0.0098
18409TIP3    H176642   6.139   0.363  14.034 -2.0779 -0.0546  0.9524
18409TIP3    H276643   6.164   0.489  14.114  0.3019  0.3697 -0.3725
18410TIP3   OH276644   6.501   6.296   6.256  0.0540  0.1012  0.5001
18410TIP3    H176645   6.427   6.309   6.315 -0.8208 -2.2975  0.0433
18410TIP3    H276646   6.523   6.203   6.266 -0.0647 -0.3903 -2.8040
18411TIP3   OH276647   3.798   1.055   3.902  0.0382 -0.0817 -0.1855
18411TIP3    H176648   3.759   1.040   3.815 -1.9232 -0.8973  0.7698
18411TIP3    H276649   3.756   0.990   3.958  3.0013 -1.1967  0.9548
18412TIP3   OH276650   5.542   0.104   1.319  0.9772 -0.1277 -0.0363
18412TIP3    H176651   5.453   0.113   1.286  1.3176  0.9177 -0.7225
18412TIP3    H276652   5.583   0.188   1.300  1.5079  0.1580  2.1975
18413TIP3   OH276653   6.784   2.357   2.845 -0.1307  0.2371 -0.2802
18413TIP3    H176654   6.749   2.271   2.824  1.0697 -0.6885  1.3132
18413TIP3    H276655   6.845   2.376   2.774  1.0289 -1.1193  0.3090
18414TIP3   OH276656   6.063   1.571  13.768  0.6915 -0.1055  0.3158
18414TIP3    H176657   6.115   1.627  13.826  0.7457  1.0849 -0.8506
18414TIP3    H276658   5.992   1.539  13.824  0.7761  0.9653  1.0715
18415TIP3   OH276659   0.022   2.960   4.795  0.1948  0.2570 -0.4071
18415TIP3    H176660   0.083   2.936   4.864 -0.0336 -0.7400 -0.5330
18415TIP3    H276661   0.040   3.052   4.777  0.5813  0.3940  0.6397
18416TIP3   OH276662   6.434   5.342  11.975 -0.2641  0.1467 -0.1938
18416TIP3    H176663   6.477   5.343  11.890 -0.0456  2.0741 -0.0957
18416TIP3    H276664   6.359   5.401  11.965 -1.1231 -0.7947  0.5177
18417TIP3   OH276665   6.134   4.235  12.741 -0.8973 -0.2277 -0.5161
18417TIP3    H176666   6.176   4.321  12.748 -2.1359  0.2710  1.9895
18417TIP3    H276667   6.044   4.255  12.716 -1.6720 -0.5839  1.7804
18418TIP3   OH276668   4.778   4.831   1.999 -0.1961 -0.0840  0.1877
18418TIP3    H176669   4.797   4.788   1.916 -1.5344 -0.6680  0.1539
18418TIP3    H276670   4.693   4.874   1.985  0.5770  1.6568  0.5788
18419TIP3   OH276671   2.052   0.771  15.967 -0.0056  0.0813  0.2829
18419TIP3    H176672   1.999   0.736  15.895  1.2051 -2.0809  0.3606
18419TIP3    H276673   2.141   0.774  15.932  0.5876 -0.9065  1.5976
18420TIP3   OH276674   0.007   6.712  15.610  0.2516 -0.9317 -0.1739
18420TIP3    H176675  -0.000   6.805  15.633 -1.6669 -0.7741 -1.1785
18420TIP3    H276676  -0.048   6.668  15.675 -1.0624 -1.0184 -1.2814
18421TIP3   OH276677   4.443   3.950  13.386 -0.1390  0.1068 -0.3817
18421TIP3    H176678   4.534   3.975  13.370 -0.3022  0.1144 -1.3843
18421TIP3    H276679   4.427   3.878  13.325 -1.0180  0.5912 -0.7436
18422TIP3   OH276680   6.615   3.583   0.268  0.3127 -0.0073  0.1104
18422TIP3    H176681   6.582   3.671   0.286  0.1108 -0.4964  2.4127
18422TIP3    H276682   6.680   3.595   0.199 -0.4406  1.7879 -0.3286
18423TIP3   OH276683   5.154   1.782   4.390  0.0385  0.3037  0.8957
18423TIP3    H176684   5.087   1.807   4.453 -1.1612  0.7710 -0.5241
18423TIP3    H276685   5.180   1.694   4.417 -1.0720  0.1526  1.5344
18424TIP3   OH276686   0.391   1.998   0.573  0.1245  0.3373 -0.3150
18424TIP3    H176687   0.351   2.023   0.490 -0.7231  0.8330  0.2286
18424TIP3    H276688   0.419   1.907   0.560 -1.0930  0.0152 -0.7509
18425TIP3   OH276689   1.065   0.844   0.058 -0.4117  0.5031 -0.2553
18425TIP3    H176690   1.014   0.781   0.006  0.2841 -1.4483  1.2969
18425TIP3    H276691   1.001   0.907   0.090 -1.2918  0.0494 -1.0894
18426TIP3   OH276692   6.474   3.713   0.743  0.0949  0.4522 -0.0130
18426TIP3    H176693   6.515   3.739   0.661 -2.3408  2.2187 -0.7937
18426TIP3    H276694   6.419   3.788   0.767 -1.8039 -1.2992  1.4712
18427TIP3   OH276695   4.034   0.696  13.590  0.3437  0.0195  0.0666
18427TIP3    H176696   4.018   0.786  13.619 -0.4777  0.5637 -1.9073
18427TIP3    H276697   4.003   0.694  13.499 -3.5506 -3.2586  1.1481
18428TIP3   OH276698   5.046   0.512  14.641 -0.0022  0.6365 -0.5588
18428TIP3    H176699   5.028   0.445  14.707 -1.3137  1.2821 -0.2271
18428TIP3    H276700   5.131   0.548  14.666  1.7782 -2.2080 -1.9061
18429TIP3   OH276701   5.911   0.511  12.217 -0.3224 -0.3475  0.0785
18429TIP3    H176702   5.984   0.512  12.155  0.4690  2.4169  0.9183
18429TIP3    H276703   5.835   0.489  12.163  0.6766 -0.3444 -1.4100
18430TIP3   OH276704   5.683   5.503  10.871 -0.0250 -0.4575 -0.2192
18430TIP3    H176705   5.668   5.554  10.950  0.6988 -1.8422  0.8556
18430TIP3    H276706   5.680   5.567  10.800 -0.6186  0.8251  0.9217
18431TIP3   OH276707   0.701   0.890   4.678 -0.0154 -0.2385 -0.4236
18431TIP3    H176708   0.758   0.967   4.676  0.6115 -0.5460  2.2369
18431TIP3    H276709   0.730   0.837   4.604  2.1123  0.3325 -0.0630
18432TIP3   OH276710   3.366   4.261   2.593  0.6187 -0.2296  0.2923
18432TIP3    H176711   3.396   4.352   2.594 -1.9070  0.8258 -2.4728
18432TIP3    H276712   3.431   4.215   2.540 -0.3587  1.0831 -2.1988
18433TIP3   OH276713   6.389   0.572   3.094 -0.2270  0.0876  0.2365
18433TIP3    H176714   6.477   0.555   3.127  0.1363  0.2172 -0.6399
18433TIP3    H276715   6.350   0.630   3.159  0.4243  0.2244  0.5116
18434TIP3   OH276716   4.473   4.323   4.591  0.3706 -0.5519 -0.1956
18434TIP3    H176717   4.551   4.272   4.614  1.4720  0.6588 -1.0582
18434TIP3    H276718   4.507   4.395   4.537 -1.4159 -0.2627 -1.0094
18435TIP3   OH276719   5.645   3.054  15.393 -0.1013  0.4280 -0.2382
18435TIP3    H176720   5.727   3.004  15.384  0.3817  1.0306  0.6643
18435TIP3    H276721   5.589   2.998  15.446  0.0437  0.3715 -0.1422
18436TIP3   OH276722   1.085   1.721  12.664  0.2920  0.1258  0.2139
18436TIP3    H176723   1.177   1.695  12.670  0.9572  1.6924 -1.9448
18436TIP3    H276724   1.056   1.691  12.578 -0.8513  0.7241  0.3587
18437TIP3   OH276725   3.925   1.378  12.604  0.3779 -0.5380 -0.4390
18437TIP3    H176726   3.887   1.291  12.592  0.9132 -1.0521  1.2863
18437TIP3    H276727   4.003   1.377  12.548  0.0398 -0.9228 -0.9169
18438TIP3   OH276728   2.939   1.152  12.542  0.0487  0.8964  0.2625
18438TIP3    H176729   2.886   1.100  12.481  0.2891  2.1325 -1.0466
18438TIP3    H276730   2.908   1.242  12.531  3.1985  1.9293 -1.5463
18439TIP3   OH276731   0.677   2.065   0.570  0.1487  0.3124  0.0766
18439TIP3    H176732   0.693   1.993   0.510 -1.5414  0.1828 -0.2843
18439TIP3    H276733   0.727   2.139   0.534  0.1173 -0.0887 -0.8128
18440TIP3   OH276734   0.833   4.008  10.833  0.1942 -0.1730  0.4476
18440TIP3    H176735   0.767   4.041  10.772  0.9725 -0.0221 -0.3404
18440TIP3    H276736   0.785   3.988  10.913 -0.9915 -1.1393 -0.4790
18441TIP3   OH276737   4.827   4.823   5.235 -0.4322 -0.0981 -0.7902
18441TIP3    H176738   4.747   4.777   5.262 -0.6218  0.5526 -0.1929
18441TIP3    H276739   4.881   4.824   5.314 -1.0853  2.0438 -0.2918
18442TIP3   OH276740   4.072   4.401  15.746  0.4637 -0.8038  0.0907
18442TIP3    H176741   4.054   4.385  15.653  3.1012 -2.3864 -0.2629
18442TIP3    H276742   4.025   4.332  15.792 -2.6513  1.2513  0.2512
18443TIP3   OH276743   6.235   5.090   0.969  0.2316 -0.5202 -0.1436
18443TIP3    H176744   6.294   5.164   0.986  2.4217 -2.4087  1.0996
18443TIP3    H276745   6.205   5.064   1.056  0.1261 -1.5616 -0.4859
18444TIP3   OH276746   0.519   2.703   1.282 -0.0429  0.3371 -0.5749
18444TIP3    H176747   0.448   2.713   1.346  0.3419  0.0628 -0.0919
18444TIP3    H276748   0.552   2.614   1.296  1.0873  0.8099 -0.0475
18445TIP3   OH276749   4.866   4.018  15.020  0.1311 -0.2768  0.3377
18445TIP3    H176750   4.915   3.986  14.945  0.1731 -0.1965  0.3312
18445TIP3    H276751   4.925   4.005  15.095 -0.5938 -2.1086  0.6556
18446TIP3   OH276752   0.701   1.119  14.472  0.2904 -0.2337  0.3996
18446TIP3    H176753   0.665   1.189  14.419  1.7074  1.3330  1.3747
18446TIP3    H276754   0.649   1.120  14.553  2.0933  1.7776  1.6506
18447TIP3   OH276755   1.397   6.633  13.603 -0.3728 -0.4385 -0.9254
18447TIP3    H176756   1.331   6.698  13.578 -0.4929 -0.6938 -1.2850
18447TIP3    H276757   1.474   6.657  13.552  0.4221  0.9513  0.8217
18448TIP3   OH276758   2.837   2.128  15.863  0.0454 -0.6413  0.3004
18448TIP3    H176759   2.905   2.062  15.856 -0.3205 -0.9817 -0.0840
18448TIP3    H276760   2.766   2.096  15.807 -1.2510 -1.3062  2.2235
18449TIP3   OH276761   6.108   6.518  12.385 -0.0958  0.5849  0.1586
18449TIP3    H176762   6.188   6.540  12.432 -0.8395  2.5508  0.6016
18449TIP3    H276763   6.050   6.592  12.401 -1.1563  0.3262 -2.0973
18450TIP3   OH276764   5.797   6.263  14.837  0.7502 -0.8526 -0.0045
18450TIP3    H176765   5.748   6.187  14.868  2.0418 -2.0710 -0.8627
18450TIP3    H276766   5.865   6.277  14.903  0.8375 -0.7721 -0.1100
18451TIP3   OH276767   6.626   2.014   3.607  0.1185 -0.3029  0.1554
18451TIP3    H176768   6.633   2.025   3.513  1.9435 -1.7581  0.0542
18451TIP3    H276769   6.714   2.035   3.640 -0.2185 -0.7655  1.4068
18452TIP3   OH276770   5.577   6.272  10.794  0.4290  0.2450  0.1206
18452TIP3    H176771   5.524   6.282  10.873 -0.7645 -1.1244 -0.4547
18452TIP3    H276772   5.518   6.299  10.723  0.4757 -1.3288 -0.5367
18453TIP3   OH276773   4.629   2.644   0.529 -0.3735  0.1276  0.1903
18453TIP3    H176774   4.604   2.724   0.575 -0.9735 -0.5128  1.0050
18453TIP3    H276775   4.580   2.575   0.573  1.0431 -0.8550  0.2879
18454TIP3   OH276776   3.614   3.930  12.093  0.0011 -0.2980 -0.2777
18454TIP3    H176777   3.608   4.015  12.049  0.3022 -0.4087 -0.5283
18454TIP3    H276778   3.662   3.948  12.174  2.0729 -0.6333 -1.3744
18455TIP3   OH276779   4.995   6.136  13.897  0.0379  0.6943 -0.3178
18455TIP3    H176780   4.970   6.078  13.969 -0.7401  0.5675 -0.6827
18455TIP3    H276781   5.081   6.104  13.870 -0.8760 -1.0676 -1.2886
18456TIP3   OH276782   1.255   2.616  12.004  0.1162 -0.3227  0.0758
18456TIP3    H176783   1.248   2.589  12.095  0.2518 -0.5073  0.0307
18456TIP3    H276784   1.323   2.560  11.967 -0.8246 -1.1358 -0.4662
18457TIP3   OH276785   1.089   4.558  16.309  0.2818 -0.2757  0.1981
18457TIP3    H176786   1.072   4.467  16.333  0.3982  0.0910  1.7931
18457TIP3    H276787   1.083   4.559  16.214 -0.4279 -1.8039  0.1952
18458TIP3   OH276788   6.218   1.324   4.454  0.0374 -0.8256  0.1695
18458TIP3    H176789   6.235   1.326   4.548 -1.7049 -0.9527  0.5238
18458TIP3    H276790   6.148   1.259   4.443  0.3473 -0.9680 -1.2468
18459TIP3   OH276791   4.221   6.322   1.357 -0.5488  0.2117  0.5284
18459TIP3    H176792   4.311   6.292   1.369 -0.2376  1.3338  1.1872
18459TIP3    H276793   4.228   6.416   1.345 -1.5934  0.2349 -0.0673
18460TIP3   OH276794   0.560   1.006   5.909 -0.1711  0.0420 -0.6466
18460TIP3    H176795   0.466   1.004   5.894 -0.2078 -0.3164 -0.3700
18460TIP3    H276796   0.569   1.015   6.004  0.0774 -0.7144 -0.5938
18461TIP3   OH276797   0.041   3.934  13.124 -0.0972  0.1022  0.0467
18461TIP3    H176798   0.080   3.857  13.164  0.1636  0.2877  0.1461
18461TIP3    H276799   0.110   4.000  13.125  0.1824 -0.1190 -1.4119
18462TIP3   OH276800   1.381   3.404  15.606 -0.4435  0.1023  0.7017
18462TIP3    H176801   1.464   3.357  15.596 -0.3970  0.3633 -0.1889
18462TIP3    H276802   1.330   3.350  15.667 -0.3842 -1.1052 -0.2732
18463TIP3   OH276803   2.850   4.210  16.534  0.5232 -0.1457  0.2513
18463TIP3    H176804   2.811   4.171  16.456  0.1122 -1.4131  1.0669
18463TIP3    H276805   2.778   4.218  16.596  1.0118  0.0720  0.8038
18464TIP3   OH276806   4.878   6.049   2.981 -0.1562  0.6460 -0.3627
18464TIP3    H176807   4.804   6.019   2.928  0.8376 -1.5079 -0.6137
18464TIP3    H276808   4.852   6.032   3.072 -0.8475  2.0118 -0.2825
18465TIP3   OH276809   1.439   4.914   5.837 -0.0007  0.5565  0.1844
18465TIP3    H176810   1.356   4.961   5.825 -0.1092  0.0429 -1.2998
18465TIP3    H276811   1.490   4.970   5.896 -1.2731  1.0363  0.8655
18466TIP3   OH276812   1.109   3.735  13.632 -0.0517 -0.1192 -0.1044
18466TIP3    H176813   1.064   3.712  13.713 -1.3999 -1.3830 -1.1533
18466TIP3    H276814   1.193   3.690  13.638 -0.5538 -1.0546  0.1739
18467TIP3   OH276815   0.125   1.519   2.040 -0.0140 -0.1612 -0.5460
18467TIP3    H176816   0.219   1.521   2.022  0.0156 -0.7690 -0.4801
18467TIP3    H276817   0.096   1.610   2.028  0.9550  0.4541  1.4634
18468TIP3   OH276818   0.023   3.264  13.019  0.5953  0.3082 -0.2651
18468TIP3    H176819  -0.032   3.251  12.941  2.0550 -1.2276 -1.1264
18468TIP3    H276820   0.061   3.351  13.007 -0.1907  0.6155 -0.6058
18469TIP3   OH276821   1.967   5.079   6.427 -0.1660 -0.0662  0.9023
18469TIP3    H176822   1.938   4.998   6.470 -0.0941 -0.6141 -0.0487
18469TIP3    H276823   2.052   5.056   6.390 -0.8612 -0.0572 -0.7575
18470TIP3   OH276824   2.984   6.365   0.957 -0.4449 -0.2094 -0.1161
18470TIP3    H176825   3.051   6.407   1.011 -0.4823  0.0098 -0.2388
18470TIP3    H276826   2.930   6.317   1.020 -1.4537  1.3279  0.2611
18471TIP3   OH276827   3.838   5.060   4.424 -0.3695 -0.1391 -0.0888
18471TIP3    H176828   3.765   5.063   4.485  1.3569  0.0298  2.1151
18471TIP3    H276829   3.900   4.999   4.464  0.5511 -0.5864 -2.0681
18472TIP3   OH276830   2.610   3.448  11.302  0.1356 -0.5976 -0.0186
18472TIP3    H176831   2.654   3.471  11.384  0.1839  1.4398 -0.5628
18472TIP3    H276832   2.680   3.411  11.247  0.5143 -0.2726  0.2318
18473TIP3   OH276833   6.425   0.501  11.892  1.0803 -0.2529 -0.3815
18473TIP3    H176834   6.393   0.443  11.822 -2.8677 -0.5630  1.4249
18473TIP3    H276835   6.447   0.442  11.964 -0.8554  0.2329  0.6932
18474TIP3   OH276836   1.471   1.075  12.427 -0.4614 -0.0355 -0.7541
18474TIP3    H176837   1.472   1.171  12.427 -0.0856 -0.0386 -0.1335
18474TIP3    H276838   1.449   1.051  12.517  1.2542 -0.5440 -0.4330
18475TIP3   OH276839   5.070   1.372  15.620 -0.4284 -0.0192  0.3479
18475TIP3    H176840   5.019   1.310  15.569  2.6817 -0.6130 -2.4352
18475TIP3    H276841   5.105   1.320  15.693 -1.4473 -0.3066  0.6468
18476TIP3   OH276842   2.846   2.327   2.077 -0.4881 -0.1219  0.3671
18476TIP3    H176843   2.880   2.407   2.116  0.0389 -0.1586  0.0018
18476TIP3    H276844   2.803   2.281   2.149 -0.3996  0.2763  0.6783
18477TIP3   OH276845   6.391   1.026  14.505  0.0743 -0.1920  0.5587
18477TIP3    H176846   6.460   1.064  14.451  0.0258 -1.5238 -0.4839
18477TIP3    H276847   6.437   0.977  14.572  0.2223 -2.1205 -0.8698
18478TIP3   OH276848   1.683   1.730   2.761 -0.2910  1.3396 -0.0217
18478TIP3    H176849   1.758   1.709   2.816 -1.5648  0.5857  1.5094
18478TIP3    H276850   1.607   1.718   2.818 -1.6024  1.7657 -1.5975
18479TIP3   OH276851   1.809   6.643  11.813 -0.8733 -0.1847 -0.0196
18479TIP3    H176852   1.832   6.689  11.732  1.1129  0.5244  0.8747
18479TIP3    H276853   1.737   6.694  11.850 -1.9106 -0.6133 -1.3859
18480TIP3   OH276854   6.293   5.643  11.329 -0.6233  0.1998  0.2156
18480TIP3    H176855   6.381   5.611  11.305 -0.7757  0.0717 -0.1876
18480TIP3    H276856   6.272   5.707  11.261 -0.8038  0.2935  0.3608
18481TIP3   OH276857   5.539   2.529  14.180  0.5172 -0.3929 -0.0350
18481TIP3    H176858   5.552   2.489  14.266  1.2243  0.2926  0.1767
18481TIP3    H276859   5.514   2.455  14.124 -1.0560 -0.6888  0.9734
18482TIP3   OH276860   2.089   3.447   2.800  0.0521  0.3438  0.3662
18482TIP3    H176861   2.063   3.427   2.710  2.2619 -1.4747  0.0165
18482TIP3    H276862   2.180   3.476   2.792  0.0964  0.7192  1.9684
18483TIP3   OH276863   0.515   2.496   3.446  0.3180 -0.2246  0.1467
18483TIP3    H176864   0.472   2.417   3.481 -1.5468  0.3910 -0.6833
18483TIP3    H276865   0.512   2.558   3.518  0.2428 -0.3391  0.2437
18484TIP3   OH276866   0.058   2.141   1.916 -0.5796 -0.3965 -0.4891
18484TIP3    H176867   0.066   2.066   1.857  0.4425 -0.6404 -0.0642
18484TIP3    H276868   0.125   2.203   1.886 -1.8170  0.6381 -1.2185
18485TIP3   OH276869   2.461   6.178   5.371  0.2785 -0.4088 -0.5032
18485TIP3    H176870   2.426   6.238   5.437  0.8199 -0.1058 -0.4856
18485TIP3    H276871   2.458   6.092   5.412  1.2193 -0.1369  0.1837
18486TIP3   OH276872   2.468   1.727  14.281  0.1793 -0.1950 -0.0594
18486TIP3    H176873   2.410   1.661  14.319  0.0227  1.0651  2.0663
18486TIP3    H276874   2.488   1.786  14.354  0.9038  1.6766 -1.6823
18487TIP3   OH276875   1.183   3.894   3.479 -0.3576  0.9548  0.0339
18487TIP3    H176876   1.232   3.823   3.436 -1.5652  0.1808 -0.1306
18487TIP3    H276877   1.239   3.921   3.552  0.7720  0.8287 -0.7518
18488TIP3   OH276878   5.969   3.250  16.306  0.3025 -0.4359  0.1087
18488TIP3    H176879   5.952   3.177  16.365 -0.6956  1.1971  1.9828
18488TIP3    H276880   6.063   3.267  16.316  0.1062 -0.0278  1.4907
18489TIP3   OH276881   4.949   6.196  14.857 -0.3693  0.0090 -0.2662
18489TIP3    H176882   4.947   6.187  14.762 -3.1520  0.5620 -0.3536
18489TIP3    H276883   4.912   6.115  14.890  1.6557 -0.6671  0.4588
18490TIP3   OH276884   3.503   6.622  16.506  0.4890  0.4061  0.9368
18490TIP3    H176885   3.538   6.537  16.479  1.0301  1.2634 -1.3151
18490TIP3    H276886   3.417   6.602  16.542  0.7478 -1.1234  0.7985
18491TIP3   OH276887   4.719   0.388   5.562 -0.0480  0.1161 -0.3625
18491TIP3    H176888   4.806   0.354   5.542  0.0026 -0.5231  0.8358
18491TIP3    H276889   4.669   0.376   5.482  0.6544 -0.5637 -0.7129
18492TIP3   OH276890   1.106   0.259   6.067  0.0865  0.3629  0.7177
18492TIP3    H176891   1.180   0.238   6.125  0.9432  0.9860 -0.1206
18492TIP3    H276892   1.095   0.182   6.012  0.5958  0.5537  0.3486
18493TIP3   OH276893   6.687   3.064   3.570  0.1301  0.0530  0.8671
18493TIP3    H176894   6.709   3.141   3.622  0.6777  0.1169  0.5474
18493TIP3    H276895   6.602   3.035   3.604 -0.6092  1.4093  0.2962
18494TIP3   OH276896   0.053   6.043   0.913  0.2822  0.1088 -0.0853
18494TIP3    H176897   0.118   6.068   0.847  0.3513 -2.3750 -1.0692
18494TIP3    H276898   0.104   5.995   0.979 -0.4144 -1.1891 -0.4710
18495TIP3   OH276899   6.319   4.109   1.037 -0.3123 -0.2477  0.1291
18495TIP3    H176900   6.352   4.089   1.125 -0.9851 -0.9952  0.2206
18495TIP3    H276901   6.376   4.179   1.006  0.4962 -0.5809  0.8125
18496TIP3   OH276902   5.171   5.452  14.837  0.1362  0.0710 -0.1146
18496TIP3    H176903   5.116   5.426  14.764 -0.2990  1.8912 -0.4726
18496TIP3    H276904   5.116   5.440  14.915 -0.0313 -0.1273 -0.2639
18497TIP3   OH276905   5.537   4.974  15.612 -0.6651  0.3746 -0.2579
18497TIP3    H176906   5.450   5.006  15.639 -0.3541  2.1884 -1.2589
18497TIP3    H276907   5.579   5.050  15.573  0.9998 -0.7556 -0.7472
18498TIP3   OH276908   1.214   5.483   0.512 -0.0653 -0.3200 -0.0729
18498TIP3    H176909   1.254   5.430   0.581  0.3852 -0.1618 -0.2121
18498TIP3    H276910   1.288   5.513   0.459 -0.2885  0.6570  0.1488
18499TIP3   OH276911   3.483   1.970  11.167 -0.6796  0.0694  0.4160
18499TIP3    H176912   3.498   1.876  11.181  0.2962  0.2338  0.5614
18499TIP3    H276913   3.516   2.011  11.247  0.1009  0.6275 -0.1724
18500TIP3   OH276914   4.331   2.201   2.140 -0.3202  0.2982 -0.9146
18500TIP3    H176915   4.414   2.176   2.181 -1.3338 -0.5258  0.7379
18500TIP3    H276916   4.354   2.272   2.080  1.2902  1.4440  0.9508
18501TIP3   OH276917   6.204   2.007   1.871  0.1665  0.8167 -0.2871
18501TIP3    H176918   6.286   2.055   1.883  0.2128  0.3349  1.5832
18501TIP3    H276919   6.231   1.920   1.842  0.4650  0.2157  1.6355
18502TIP3   OH276920   6.065   1.408  16.505 -0.4915  0.2341 -0.2216
18502TIP3    H176921   6.032   1.439  16.420  0.6235  0.2357 -0.6747
18502TIP3    H276922   5.986   1.395  16.558 -1.3242 -0.9126 -1.6367
18503TIP3   OH276923   1.380   0.949   1.795  0.3890 -0.0365  0.4987
18503TIP3    H176924   1.454   1.004   1.768  0.4130 -0.9287 -1.3829
18503TIP3    H276925   1.421   0.870   1.830  0.3864 -0.8895 -1.3128
18504TIP3   OH276926   1.409   6.511  15.300 -0.7421 -0.3213 -0.3487
18504TIP3    H176927   1.390   6.472  15.386 -1.3906  3.6685  1.5403
18504TIP3    H276928   1.341   6.476  15.243 -0.1460 -3.3131  0.5477
18505TIP3   OH276929   5.848   4.384  11.120  0.2562  0.4656  0.1093
18505TIP3    H176930   5.897   4.375  11.038  3.3457 -1.4587  1.9791
18505TIP3    H276931   5.866   4.474  11.149 -0.7285  1.1057 -1.1639
18506TIP3   OH276932   3.468   4.677   1.883  0.1741  0.1868 -0.2682
18506TIP3    H176933   3.408   4.718   1.821 -0.2037 -0.6104 -0.4386
18506TIP3    H276934   3.537   4.743   1.896 -1.0847  1.4027  0.4906
18507TIP3   OH276935   3.148   6.546   0.014 -0.0204 -0.0760  0.5188
18507TIP3    H176936   3.116   6.610  -0.050  3.1243  1.4905  0.3546
18507TIP3    H276937   3.106   6.464  -0.012 -1.6982  1.2353 -1.2402
18508TIP3   OH276938   3.004   0.298  14.280  0.2498  0.1655 -0.0033
18508TIP3    H176939   3.100   0.304  14.277  0.1366  2.3853 -0.9324
18508TIP3    H276940   2.976   0.314  14.190 -1.0240  0.2593  0.3849
18509TIP3   OH276941   1.378   3.342   1.482 -0.5849 -0.3229  0.1925
18509TIP3    H176942   1.469   3.369   1.492 -0.6038 -0.5068  0.8455
18509TIP3    H276943   1.332   3.383   1.555 -1.4622  1.6566 -1.3638
18510TIP3   OH276944   4.925   1.138  12.768 -0.4532  0.1367  0.0042
18510TIP3    H176945   5.009   1.139  12.813  0.0429  2.0481 -0.8923
18510TIP3    H276946   4.869   1.084  12.824  0.5137  1.2564  2.1794
18511TIP3   OH276947   1.009   2.662  15.605 -0.2299  0.2486 -0.2838
18511TIP3    H176948   1.066   2.608  15.550 -0.8738  0.6814 -1.3955
18511TIP3    H276949   1.063   2.684  15.681 -0.1746 -2.5733  0.6088
18512TIP3   OH276950   3.982   2.716  17.010  0.0755  0.0168  0.0111
18512TIP3    H176951   3.959   2.788  17.070 -0.5534 -1.4430  1.5926
18512TIP3    H276952   4.062   2.746  16.966 -1.7603  2.9761 -1.6787
18513TIP3   OH276953   3.469   0.756  15.901  0.5784  0.1337  0.3554
18513TIP3    H176954   3.490   0.692  15.969  0.7585 -0.2151 -0.0264
18513TIP3    H276955   3.393   0.803  15.935 -0.0863 -0.8511  0.2566
18514TIP3   OH276956   5.897   3.273   4.185 -0.2465  0.5920 -0.2268
18514TIP3    H176957   5.917   3.366   4.184  2.3134  0.1080 -1.8118
18514TIP3    H276958   5.835   3.260   4.113  1.4716  0.7296 -1.7824
18515TIP3   OH276959   3.109   2.450   1.948 -0.1408  0.3430 -0.2391
18515TIP3    H176960   3.087   2.489   1.864  1.9330  1.4508 -0.3439
18515TIP3    H276961   3.025   2.442   1.993 -0.9281  3.7914 -0.7482
18516TIP3   OH276962   4.035   0.187   5.484 -0.6275 -0.1163 -0.1366
18516TIP3    H176963   4.033   0.224   5.396 -1.7156  0.5439  0.1587
18516TIP3    H276964   3.954   0.136   5.491 -0.6061 -0.0674  0.5259
18517TIP3   OH276965   6.143   2.059   2.634  0.3541  0.0537 -0.5659
18517TIP3    H176966   6.163   2.142   2.591 -0.6571 -0.0300 -1.2328
18517TIP3    H276967   6.155   2.077   2.727 -1.9162  1.6048 -0.4860
18518TIP3   OH276968   2.402   2.394   3.226 -0.6522 -0.4211 -0.2930
18518TIP3    H176969   2.312   2.363   3.236 -0.6402 -0.0416  1.2486
18518TIP3    H276970   2.455   2.330   3.273 -0.2341 -0.0360 -0.2351
18519TIP3   OH276971   0.758   5.413   4.800  0.3013  0.0000 -0.2297
18519TIP3    H176972   0.720   5.355   4.734 -0.0722 -0.7766  0.6510
18519TIP3    H276973   0.774   5.357   4.876  0.8265  0.8512  0.3101
18520TIP3   OH276974   5.545   0.970   0.557 -0.0219  0.3742  0.1454
18520TIP3    H176975   5.502   0.994   0.475  0.0913 -1.4147 -0.4763
18520TIP3    H276976   5.486   1.003   0.625 -1.5897 -0.6163 -0.6758
18521TIP3   OH276977   6.572   0.457   2.024  0.4896  0.5543 -0.3207
18521TIP3    H176978   6.499   0.504   1.983  0.4242  0.3986 -0.3817
18521TIP3    H276979   6.564   0.477   2.117 -0.4037 -0.5113 -0.1468
18522TIP3   OH276980   5.691   5.537   0.998  0.3229  0.1012 -0.4122
18522TIP3    H176981   5.632   5.610   0.978  0.4872 -0.4149 -3.1861
18522TIP3    H276982   5.762   5.576   1.050 -1.9217  0.8879  2.3417
18523TIP3   OH276983   6.051   3.530  11.245  0.4288 -0.5056 -0.5488
18523TIP3    H176984   6.136   3.572  11.259 -0.1763  0.0251  2.2457
18523TIP3    H276985   6.068   3.436  11.252  1.0507 -0.5139 -1.9670
18524TIP3   OH276986   3.275   4.573   0.385  0.7458 -0.7515  0.2327
18524TIP3    H176987   3.365   4.606   0.380  0.0799  0.9679 -2.5289
18524TIP3    H276988   3.222   4.651   0.399 -0.3400 -1.7920  2.2048
18525TIP3   OH276989   3.297   1.253  14.143 -0.2887  0.4417 -0.0964
18525TIP3    H176990   3.373   1.283  14.093 -1.0142  1.5551 -0.5591
18525TIP3    H276991   3.331   1.235  14.231  0.5063  0.9181 -0.3008
18526TIP3   OH276992   6.644   3.945  14.017 -0.1287  0.4846 -0.2228
18526TIP3    H176993   6.609   4.014  13.960  0.6878  0.6100 -0.6011
18526TIP3    H276994   6.726   3.982  14.050 -0.2554  0.1328  0.4801
18527TIP3   OH276995   1.103   4.996   0.554 -0.7576  0.2022 -0.3406
18527TIP3    H176996   1.015   5.019   0.585 -0.0618 -0.0793  2.0326
18527TIP3    H276997   1.162   5.034   0.619  1.0623  2.0552 -2.8778
18528TIP3   OH276998   0.730   1.654   1.729 -0.2955 -0.3133  0.4349
18528TIP3    H176999   0.801   1.690   1.782 -0.4110  0.3364  0.1678
18528TIP3    H277000   0.759   1.567   1.704  1.4862  0.8090 -1.6803
18529TIP3   OH277001   1.913   6.629  15.698 -0.0124  0.1040 -0.1580
18529TIP3    H177002   1.848   6.574  15.655  0.1766  0.4306 -0.8891
18529TIP3    H277003   1.982   6.641  15.633  0.5437  0.1778  0.4278
18530TIP3   OH277004   2.245   1.252   0.641 -0.1122 -0.3220  0.6662
18530TIP3    H177005   2.281   1.168   0.611 -0.1350  0.4953 -1.8112
18530TIP3    H277006   2.312   1.316   0.618 -0.8665  0.5786  0.9264
18531TIP3   OH277007   2.743   0.610   1.306  0.7232  0.4542  0.7790
18531TIP3    H177008   2.791   0.675   1.256  0.9003  0.4660  0.9615
18531TIP3    H277009   2.778   0.617   1.395 -0.2692  1.1220  1.1445
18532TIP3   OH277010   5.872   4.678  16.375 -0.4455 -0.2297  0.2585
18532TIP3    H177011   5.803   4.741  16.395  0.0054  0.0365  1.0158
18532TIP3    H277012   5.845   4.639  16.292 -0.1857  1.7291 -0.7871
18533TIP3   OH277013   2.737   4.646   4.151 -0.5604 -0.0314 -0.1097
18533TIP3    H177014   2.775   4.642   4.238  0.5885  0.2840 -0.5733
18533TIP3    H277015   2.782   4.719   4.108 -0.0689 -1.0473 -1.4205
18534TIP3   OH277016   1.705   5.171   1.585  0.1317  0.0334  0.1346
18534TIP3    H177017   1.696   5.234   1.656 -0.9520 -1.8597  1.7786
18534TIP3    H277018   1.661   5.092   1.617  0.9383 -1.3960 -2.0438
18535TIP3   OH277019   5.992   0.202  13.292 -0.4182 -0.4064  0.5952
18535TIP3    H177020   6.053   0.139  13.332 -1.7954 -0.6998  2.3563
18535TIP3    H277021   5.981   0.270  13.358 -1.5188 -0.0401  0.0580
18536TIP3   OH277022   6.543   5.101   4.226  0.3384 -0.1078  0.4646
18536TIP3    H177023   6.467   5.047   4.206 -0.8622  2.6767 -3.9664
18536TIP3    H277024   6.607   5.079   4.158  0.7637  2.1422  0.0481
18537TIP3   OH277025   5.736   2.554  12.872  0.1385 -0.3363  0.2529
18537TIP3    H177026   5.790   2.574  12.949 -0.7441  0.0980  0.7698
18537TIP3    H277027   5.650   2.532  12.908 -0.1491 -0.6100 -0.5853
18538TIP3   OH277028   5.989   6.417   3.354  0.2083  0.0909  0.1863
18538TIP3    H177029   5.936   6.478   3.404 -1.7698 -0.7958 -0.7485
18538TIP3    H277030   6.006   6.345   3.415 -0.5157 -0.0750  0.1979
18539TIP3   OH277031   1.003   5.108  15.839 -0.0846  0.1528  0.0024
18539TIP3    H177032   1.025   5.098  15.932  1.8965  0.0153 -0.4309
18539TIP3    H277033   1.057   5.043  15.795 -3.2442 -1.9314 -1.0488
18540TIP3   OH277034   6.232   1.536   2.172  0.2439 -0.2729  0.1005
18540TIP3    H177035   6.181   1.559   2.250 -0.4318  1.4891 -0.7903
18540TIP3    H277036   6.267   1.620   2.141  0.9200 -1.0045 -1.2175
18541TIP3   OH277037   2.409   5.935  16.482 -0.3060 -0.1372  0.1115
18541TIP3    H177038   2.446   6.016  16.447 -0.3954 -0.8125 -1.6429
18541TIP3    H277039   2.338   5.913  16.422 -0.1069 -1.6741  0.3975
18542TIP3   OH277040   0.104   4.742  12.161 -0.2684  0.2655 -0.2942
18542TIP3    H177041   0.089   4.682  12.087  0.7288 -2.1125  1.3062
18542TIP3    H277042   0.197   4.765  12.155 -0.0712 -0.3068  0.4436
18543TIP3   OH277043   2.789   4.508   3.134  0.1221 -0.2362  0.1404
18543TIP3    H177044   2.884   4.506   3.135  0.1593  1.0544 -0.0384
18543TIP3    H277045   2.766   4.543   3.048 -0.4178  2.1456  1.1894
18544TIP3   OH277046   2.668   5.936   1.268 -0.2621 -0.0531 -0.2974
18544TIP3    H177047   2.639   5.953   1.178  1.4737  1.0884 -0.6766
18544TIP3    H277048   2.588   5.944   1.320 -1.0252  0.8585 -1.5462
18545TIP3   OH277049   2.584   2.522  12.265 -0.1005 -0.3463 -0.5354
18545TIP3    H177050   2.541   2.446  12.302 -0.7117 -0.0220 -0.5630
18545TIP3    H277051   2.580   2.589  12.334  1.8037 -0.7961  0.0777
18546TIP3   OH277052   6.008   3.008  14.803  0.0452 -0.4288  0.0106
18546TIP3    H177053   6.004   3.023  14.898  1.0082 -2.2554  0.3835
18546TIP3    H277054   6.084   3.060  14.775  1.0199 -1.4777  0.6182
18547TIP3   OH277055   3.492   1.202  14.708  0.1532 -0.2082 -0.1556
18547TIP3    H177056   3.585   1.183  14.695  0.2797 -0.4611  0.9750
18547TIP3    H277057   3.449   1.118  14.696  0.2809 -0.4633  0.9942
18548TIP3   OH277058   0.044   6.027  13.825 -0.0329 -0.1808  0.1863
18548TIP3    H177059   0.029   5.972  13.748  0.5119 -0.7285  0.4643
18548TIP3    H277060   0.132   6.004  13.855 -0.1699  0.1468  0.8744
18549TIP3   OH277061   1.747   5.262  13.422  0.2765  0.4952  0.2325
18549TIP3    H177062   1.813   5.195  13.406  0.0785 -0.1940  2.0823
18549TIP3    H277063   1.781   5.313  13.496 -0.2986  1.4547 -0.1398
18550TIP3   OH277064   6.323   4.546   4.219 -0.0526  0.5385 -0.0864
18550TIP3    H177065   6.338   4.590   4.135 -1.7508  0.9572 -0.2062
18550TIP3    H277066   6.328   4.453   4.199 -0.6900  0.6329 -0.7117
18551TIP3   OH277067   1.279   0.760   2.734 -0.1515 -0.2636 -0.2173
18551TIP3    H177068   1.303   0.667   2.729 -1.4398 -0.6359  0.2017
18551TIP3    H277069   1.277   0.789   2.643 -0.9048 -0.9714 -0.4443
18552TIP3   OH277070   2.758   6.258  11.735  0.4305 -0.0902  0.3844
18552TIP3    H177071   2.676   6.297  11.763 -0.3566 -1.0753 -0.4915
18552TIP3    H277072   2.819   6.277  11.807 -0.7989 -0.1841  1.4914
18553TIP3   OH277073   5.378   2.630  11.211  0.4235  0.2440 -0.2349
18553TIP3    H177074   5.468   2.662  11.200 -0.4808  3.4725  0.5766
18553TIP3    H277075   5.332   2.703  11.251 -2.4009 -1.6462  0.2327
18554TIP3   OH277076   6.696   3.029  11.838 -0.0902  0.3381 -0.1099
18554TIP3    H177077   6.637   2.965  11.798 -0.0846  0.1160  0.2331
18554TIP3    H277078   6.736   3.074  11.764  0.1165 -0.2488 -0.3599
18555TIP3   OH277079   4.615   2.502  15.387  0.0961 -0.0312 -0.6227
18555TIP3    H177080   4.657   2.530  15.468 -0.9256  1.8713 -0.6795
18555TIP3    H277081   4.585   2.413  15.404  1.8904 -0.5141  0.2652
18556TIP3   OH277082   3.452   2.272  15.187  0.2487  0.1624  0.6373
18556TIP3    H177083   3.476   2.219  15.111 -2.0986 -0.5489  0.3252
18556TIP3    H277084   3.465   2.362  15.158 -1.2085 -0.0598 -0.9005
18557TIP3   OH277085   3.766   1.320  11.617  0.5387  0.3862  0.5796
18557TIP3    H177086   3.783   1.414  11.603 -0.4630  0.7595  1.7241
18557TIP3    H277087   3.696   1.300  11.555  1.0882  0.2555 -0.0155
18558TIP3   OH277088   6.761   3.604   1.480 -0.7946 -0.1813  0.0680
18558TIP3    H177089   6.777   3.518   1.442 -0.5303  0.0645 -0.3886
18558TIP3    H277090   6.838   3.655   1.457 -1.3125  0.4180 -0.3596
18559TIP3   OH277091   2.883   3.675  13.952 -0.2876  0.5263 -0.3992
18559TIP3    H177092   2.904   3.749  14.009 -1.5652 -0.2432  1.1623
18559TIP3    H277093   2.847   3.715  13.873  0.9451  1.6120 -0.4526
18560TIP3   OH277094   0.524   3.623  12.081 -0.1399 -0.2346  0.0879
18560TIP3    H177095   0.478   3.651  12.160  1.1646 -0.7551  1.0622
18560TIP3    H277096   0.586   3.556  12.111  2.2847  1.4324 -0.8794
18561TIP3   OH277097   5.551   4.567  11.191  0.4050  0.1017  0.2226
18561TIP3    H177098   5.549   4.648  11.140  1.9373 -0.4121 -0.7361
18561TIP3    H277099   5.540   4.595  11.282 -2.1965  1.0710 -0.2867
18562TIP3   OH277100   3.189   5.430  15.447 -0.3876 -0.5965  0.0438
18562TIP3    H177101   3.195   5.431  15.351 -2.4010 -0.2961 -0.1297
18562TIP3    H277102   3.240   5.353  15.473  2.1216  0.5781 -1.0400
18563TIP3   OH277103   3.656   2.272   0.051 -0.1792 -0.2318 -0.4082
18563TIP3    H177104   3.665   2.253  -0.042  0.5627 -2.0480 -0.0084
18563TIP3    H277105   3.569   2.312   0.059  0.1083  0.7820 -1.9710
18564TIP3   OH277106   2.882   3.407   1.093 -0.4231  0.1950 -0.5085
18564TIP3    H177107   2.868   3.329   1.146  0.4898 -0.3197 -0.9977
18564TIP3    H277108   2.976   3.408   1.075 -0.5821  0.8234 -1.4053
18565TIP3   OH277109   0.376   4.423   4.849 -0.6192  0.6845  0.0294
18565TIP3    H177110   0.445   4.413   4.784 -1.7265  1.0008 -1.2323
18565TIP3    H277111   0.421   4.412   4.933  0.4844 -1.9377 -0.7995
18566TIP3   OH277112   1.414   4.020   1.086 -0.5349  0.2899  0.2421
18566TIP3    H177113   1.432   4.103   1.130 -2.0997  0.9542 -0.3176
18566TIP3    H277114   1.443   4.034   0.996  2.2986 -0.9367  0.8541
18567TIP3   OH277115   4.938   1.861  15.436  0.0319 -0.5889 -0.1636
18567TIP3    H177116   4.941   1.776  15.392 -1.8770 -1.2440  0.8696
18567TIP3    H277117   4.988   1.849  15.516 -0.4875 -0.8357  0.1254
18568TIP3   OH277118   4.630   4.480   1.558  0.6832  0.6369  0.0045
18568TIP3    H177119   4.717   4.463   1.592  0.0414  1.2200  2.1042
18568TIP3    H277120   4.617   4.414   1.490  2.1494 -0.4699  0.7453
18569TIP3   OH277121   3.776   5.539  15.734 -0.4086 -0.6796  1.0454
18569TIP3    H177122   3.701   5.504  15.686  0.0394 -1.1980  0.6974
18569TIP3    H277123   3.754   5.631  15.751  0.0492 -0.0166 -1.5267
18570TIP3   OH277124   5.944   6.008  12.452 -0.1972  0.7811 -0.1810
18570TIP3    H177125   5.939   5.986  12.359  1.6789  0.5676 -0.2651
18570TIP3    H277126   6.026   5.970  12.482  0.5019  3.0102  0.9632
18571TIP3   OH277127   3.927   0.756  13.288  0.0464 -0.2710  0.1346
18571TIP3    H177128   3.869   0.788  13.218 -0.4979 -1.8886 -0.2214
18571TIP3    H277129   4.003   0.813  13.284 -0.9866  1.1513 -0.2118
18572TIP3   OH277130   4.646   5.941   2.289  0.0855  0.7966 -0.0840
18572TIP3    H177131   4.619   5.902   2.206  2.6193 -1.1256 -0.1369
18572TIP3    H277132   4.660   6.034   2.269  0.6830  0.3620 -1.8499
18573TIP3   OH277133   3.316   2.473   0.086  0.1121 -0.2535 -0.1634
18573TIP3    H177134   3.408   2.490   0.107  0.1124 -1.0625  0.5494
18573TIP3    H277135   3.277   2.443   0.168 -0.4594 -1.2052 -0.7560
18574TIP3   OH277136   4.615   6.641   4.394  0.1939 -0.2968 -0.0439
18574TIP3    H177137   4.582   6.712   4.449  0.5782 -0.5027  0.4512
18574TIP3    H277138   4.570   6.563   4.426 -0.1201 -0.3038 -0.4938
18575TIP3   OH277139   0.403   5.731  16.024  0.1677  0.4248  0.0670
18575TIP3    H177140   0.468   5.729  15.953 -1.1450 -0.5091 -1.1521
18575TIP3    H277141   0.379   5.640  16.037 -0.7484  0.7420  0.6442
18576TIP3   OH277142   1.652   5.908   4.177 -0.0584 -0.2228 -0.0163
18576TIP3    H177143   1.708   5.905   4.099 -2.3728  0.9036 -1.8414
18576TIP3    H277144   1.586   5.841   4.161  0.8698 -1.7938  2.2856
18577TIP3   OH277145   0.192   1.266   4.175  0.2901  0.0594  0.0258
18577TIP3    H177146   0.234   1.345   4.210 -0.6239  0.6156 -0.0807
18577TIP3    H277147   0.262   1.201   4.172  1.7553  1.6017 -2.4220
18578TIP3   OH277148   6.130   1.110  10.149 -0.3875 -0.2997 -0.4529
18578TIP3    H177149   6.038   1.088  10.138 -1.1816  2.5012 -0.1064
18578TIP3    H277150   6.147   1.097  10.243 -0.2494 -1.2722 -0.5975
18579TIP3   OH277151   0.037   0.932  15.942 -0.6899 -0.0711 -0.4704
18579TIP3    H177152  -0.033   0.891  15.993  0.4108 -0.0962  1.1192
18579TIP3    H277153   0.108   0.868  15.945  0.1084  0.8103 -0.2944
18580TIP3   OH277154   5.665   0.462   0.095  0.2869  0.4683  0.6369
18580TIP3    H177155   5.639   0.389   0.152 -0.0813 -0.1243 -0.2819
18580TIP3    H277156   5.688   0.532   0.156 -2.1244  0.5634  1.5230
18581TIP3   OH277157   4.090   3.019  15.518 -0.0815 -0.3521  0.8584
18581TIP3    H177158   4.028   3.091  15.509 -0.1742 -0.5072  0.2338
18581TIP3    H277159   4.135   3.014  15.434  0.7630 -0.2591  1.2875
18582TIP3   OH277160   1.277   5.101   4.885 -0.4670 -0.0292 -0.5904
18582TIP3    H177161   1.187   5.119   4.859 -1.0346 -1.6799  0.0691
18582TIP3    H277162   1.269   5.061   4.972  0.9410  0.2215 -0.3211
18583TIP3   OH277163   0.209   0.152  13.852 -0.0700 -0.1213 -0.4723
18583TIP3    H177164   0.300   0.158  13.881 -0.2212 -0.8217  0.1772
18583TIP3    H277165   0.161   0.126  13.931 -0.9441  0.9929 -0.6294
18584TIP3   OH277166   5.592   2.379  16.743  0.0195 -0.4367 -0.3829
18584TIP3    H177167   5.532   2.371  16.816  0.8596 -0.9447  0.2731
18584TIP3    H277168   5.565   2.311  16.681 -1.3512  0.6722 -1.0582
18585TIP3   OH277169   2.497   3.309   6.027  0.0412  0.1701  0.4972
18585TIP3    H177170   2.572   3.266   5.985 -1.0082 -1.6456  0.3928
18585TIP3    H277171   2.535   3.386   6.069  1.8456 -0.2851 -0.1865
18586TIP3   OH277172   5.278   1.070  13.944 -0.4726  0.6087 -0.2277
18586TIP3    H177173   5.339   1.038  13.878  1.1671 -0.6358  1.7461
18586TIP3    H277174   5.271   1.164  13.926  1.6637  0.7105 -0.8681
18587TIP3   OH277175   2.891   1.564  16.579 -0.1765  0.6008  0.3871
18587TIP3    H177176   2.822   1.617  16.538 -0.6375  0.3881  0.8681
18587TIP3    H277177   2.958   1.628  16.604 -0.6555  0.9508  0.8139
18588TIP3   OH277178   2.413   5.011   1.612  0.3922 -0.0139 -0.0200
18588TIP3    H177179   2.322   4.998   1.583 -0.3585  1.2383  1.6017
18588TIP3    H277180   2.463   5.012   1.531 -1.2914  0.9328 -1.1311
18589TIP3   OH277181   3.769   5.623  14.260  0.4749  0.3913 -0.2042
18589TIP3    H177182   3.790   5.541  14.305  1.4394  1.1388  0.7336
18589TIP3    H277183   3.770   5.689  14.329 -0.7873  1.1394 -0.8626
18590TIP3   OH277184   2.190   6.497   4.479 -0.5952  0.6875 -0.2380
18590TIP3    H177185   2.179   6.415   4.431  0.7471  0.6953 -0.5855
18590TIP3    H277186   2.112   6.549   4.456 -0.4882  0.2868 -1.5923
18591TIP3   OH277187   3.924   4.490   2.355 -0.5536 -0.0357 -0.1280
18591TIP3    H177188   3.865   4.459   2.287  0.4544 -1.3639 -0.4491
18591TIP3    H277189   3.898   4.581   2.371 -1.7572 -0.1699 -1.2248
18592TIP3   OH277190   5.820   1.205  11.199  0.0151  0.3082 -0.4223
18592TIP3    H177191   5.839   1.119  11.161 -2.0950 -1.2946  1.8232
18592TIP3    H277192   5.902   1.233  11.239  0.9366 -0.2309 -1.8294
18593TIP3   OH277193   6.542   3.919  15.369  0.1808  0.0349 -0.1614
18593TIP3    H177194   6.508   3.914  15.459 -2.9408 -2.1299 -1.2787
18593TIP3    H277195   6.517   4.007  15.340  0.5312  0.4754  0.8270
18594TIP3   OH277196   6.762   2.144  12.020 -0.3403  0.2695 -0.4154
18594TIP3    H177197   6.729   2.193  12.095  3.2255  2.6397 -0.1355
18594TIP3    H277198   6.765   2.208  11.949  0.5129 -0.7025 -1.3017
18595TIP3   OH277199   2.399   5.443  13.732  0.3365 -0.5030  0.4153
18595TIP3    H177200   2.431   5.366  13.685  3.1541 -0.9287  2.7609
18595TIP3    H277201   2.462   5.512  13.711 -1.0093  0.6476 -0.0394
18596TIP3   OH277202   2.431   5.993  14.191  0.4565 -0.2295 -0.0689
18596TIP3    H177203   2.350   6.008  14.143 -0.0509 -0.6441  0.6448
18596TIP3    H277204   2.459   6.080  14.218  0.3747 -0.0640 -0.5060
18597TIP3   OH277205   6.075   3.287   5.761  0.3369 -0.2299  0.2958
18597TIP3    H177206   6.156   3.238   5.776  1.2701  1.7457  2.3435
18597TIP3    H277207   6.105   3.373   5.731 -1.1214  0.0409 -0.5010
18598TIP3   OH277208   1.697   3.567  13.552 -0.1529  0.0689  0.0876
18598TIP3    H177209   1.685   3.653  13.591 -0.2715  0.9238 -1.7013
18598TIP3    H277210   1.769   3.579  13.489  0.1939 -1.2784  0.1909
18599TIP3   OH277211   1.525   3.054  16.678 -0.8239  0.4828 -0.2971
18599TIP3    H177212   1.501   3.032  16.588  0.5164  0.9728 -0.7922
18599TIP3    H277213   1.612   3.017  16.690 -0.7831  0.8463  0.6451
18600TIP3   OH277214   3.609   0.176   2.239  0.6599 -0.9575 -0.1055
18600TIP3    H177215   3.522   0.199   2.273  1.1003 -2.3666  2.1359
18600TIP3    H277216   3.660   0.256   2.248  0.1443 -0.6801  0.4123
18601TIP3   OH277217   4.976   0.274   1.910  0.4086  0.1304 -0.2423
18601TIP3    H177218   5.042   0.230   1.856 -0.0229  1.3592 -1.8637
18601TIP3    H277219   5.023   0.346   1.952  0.5204 -0.2019  0.2071
18602TIP3   OH277220   4.158   2.897   6.578  0.1094  0.5316  0.9276
18602TIP3    H177221   4.157   2.846   6.659  0.7199 -1.3009 -0.1641
18602TIP3    H277222   4.251   2.908   6.558 -0.0250  1.6414  0.8575
18603TIP3   OH277223   3.657   5.157  13.315 -0.3505 -0.0954 -0.3067
18603TIP3    H177224   3.644   5.168  13.409 -1.4799  0.5264 -0.5176
18603TIP3    H277225   3.647   5.245  13.279 -2.3412 -0.6466 -1.2548
18604TIP3   OH277226   6.647   5.626   0.611  0.2229 -0.2603  0.0277
18604TIP3    H177227   6.617   5.538   0.589  0.9920 -0.4237 -0.3873
18604TIP3    H277228   6.686   5.659   0.530  0.0338  0.4305  0.2072
18605TIP3   OH277229   2.266   6.381  13.929 -0.0278 -0.2319  0.1171
18605TIP3    H177230   2.273   6.359  14.022  2.7667 -0.2010  0.0097
18605TIP3    H277231   2.347   6.429  13.910 -1.2045  1.0286 -2.0197
18606TIP3   OH277232   2.000   6.635  10.748  0.3728  0.3088  0.5681
18606TIP3    H177233   1.949   6.700  10.797  1.6481  1.1760  0.7840
18606TIP3    H277234   2.007   6.561  10.807 -1.5401 -0.2768  0.1264
18607TIP3   OH277235   5.145   3.383   1.017  0.0989  0.4748 -0.4196
18607TIP3    H177236   5.100   3.320   0.959 -2.3848 -0.6139  2.4228
18607TIP3    H277237   5.115   3.360   1.105  4.4580  1.3487  1.5458
18608TIP3   OH277238   0.029   5.624  11.663  0.3129  0.2182  0.5925
18608TIP3    H177239   0.024   5.719  11.668 -0.1530  0.2149  0.2750
18608TIP3    H277240  -0.012   5.602  11.579  2.0420 -0.1361 -0.1893
18609TIP3   OH277241   2.909   4.665  12.334  0.2802  0.4568  0.9195
18609TIP3    H177242   2.989   4.650  12.283 -0.6109 -0.0430 -0.4016
18609TIP3    H277243   2.841   4.676  12.268 -1.0563 -0.9026  1.9859
18610TIP3   OH277244   0.826   5.026   0.561  0.3327 -0.3764 -0.0282
18610TIP3    H177245   0.827   4.938   0.600  2.2201 -1.4199 -2.1875
18610TIP3    H277246   0.736   5.036   0.528  0.2973 -1.8809 -0.4702
18611TIP3   OH277247   3.950   2.502  12.439 -0.4788 -0.2103  0.3122
18611TIP3    H177248   4.020   2.466  12.495  1.0192 -0.8651 -1.8552
18611TIP3    H277249   3.873   2.451  12.462  0.0291 -0.3269  1.8941
18612TIP3   OH277250   2.606   0.900   2.480  0.1799 -0.6706  0.4750
18612TIP3    H177251   2.653   0.890   2.563  0.2374 -0.8890  0.4166
18612TIP3    H277252   2.654   0.844   2.418 -0.8324 -1.7978  0.6843
18613TIP3   OH277253   1.856   3.250  16.544 -0.2065 -0.4490  0.2359
18613TIP3    H177254   1.926   3.190  16.569  0.9047  1.1871  1.2991
18613TIP3    H277255   1.902   3.322  16.500 -1.4533 -0.2295 -0.7492
18614TIP3   OH277256   4.943   3.843   0.695 -0.2382  0.1061  0.1888
18614TIP3    H177257   4.937   3.835   0.790 -1.1995 -2.0009  0.0128
18614TIP3    H277258   4.999   3.770   0.668  0.0436  0.6931 -0.8710
18615TIP3   OH277259   2.154   5.296   3.339  0.2675 -0.0098 -0.0506
18615TIP3    H177260   2.066   5.279   3.370  0.4354 -0.0043  0.4408
18615TIP3    H277261   2.187   5.366   3.397  0.7970 -0.4205  0.1536
18616TIP3   OH277262   5.661   0.107   6.408 -0.1559  0.1895 -0.9040
18616TIP3    H177263   5.598   0.060   6.354 -1.8089 -0.1167  1.1449
18616TIP3    H277264   5.733   0.044   6.422 -1.3338 -1.0186  0.0343
18617TIP3   OH277265   6.485   6.161   0.863  0.3503  1.0094 -0.5673
18617TIP3    H177266   6.570   6.176   0.904  0.1320  0.3090  0.1674
18617TIP3    H277267   6.443   6.247   0.861  0.5680  1.1400  0.2375
18618TIP3   OH277268   4.602   2.387   3.131 -0.4796  1.0790 -0.1855
18618TIP3    H177269   4.650   2.363   3.052 -1.5271  0.5307 -0.6795
18618TIP3    H277270   4.651   2.461   3.168  1.4061 -0.2165  0.0151
18619TIP3   OH277271   5.565   3.560   1.157 -0.1097 -0.1523  0.3775
18619TIP3    H177272   5.611   3.623   1.211  0.0670 -0.1813  0.2632
18619TIP3    H277273   5.473   3.578   1.171 -0.0880  1.5721 -1.3033
18620TIP3   OH277274   2.271   2.069   1.994  0.0188 -0.0132  0.2907
18620TIP3    H177275   2.295   2.132   1.926 -1.5062 -0.9643 -1.1980
18620TIP3    H277276   2.215   2.119   2.054  1.2220  0.7796  0.8001
18621TIP3   OH277277   0.239   6.722  12.458 -0.5773 -0.1641 -0.1049
18621TIP3    H177278   0.231   6.746  12.366 -2.4811 -0.0244  0.0538
18621TIP3    H277279   0.235   6.806  12.504 -1.0310 -0.3225  0.1530
18622TIP3   OH277280   4.698   1.605  14.571  0.1254  0.4403  0.0127
18622TIP3    H177281   4.658   1.519  14.559  1.5218 -0.2656  0.1037
18622TIP3    H277282   4.735   1.626  14.486 -2.3926  2.1828 -0.7364
18623TIP3   OH277283   4.210   4.737  10.931 -0.4820  0.0653 -0.2363
18623TIP3    H177284   4.259   4.759  10.852 -1.6252 -0.2088 -1.0574
18623TIP3    H277285   4.230   4.807  10.992 -2.5173  2.4782 -2.0973
18624TIP3   OH277286   0.020   6.579  12.524 -0.0232 -0.0398 -0.1610
18624TIP3    H177287   0.098   6.628  12.497 -1.4548  1.0871 -2.6250
18624TIP3    H277288  -0.045   6.646  12.543 -0.2096 -0.9365  2.7763
18625TIP3   OH277289   3.503   1.077   0.340 -0.1152 -0.2979 -0.0797
18625TIP3    H177290   3.574   1.114   0.288  0.9270 -3.3943 -1.0181
18625TIP3    H277291   3.516   1.114   0.427  2.1961 -0.1756 -0.4145
18626TIP3   OH277292   2.150   0.648   1.133 -0.1183 -0.7913 -0.1385
18626TIP3    H177293   2.234   0.672   1.095 -1.1566  1.4521 -1.2084
18626TIP3    H277294   2.114   0.730   1.167 -1.4825 -1.8480  1.1478
18627TIP3   OH277295   4.750   0.778  12.247  0.1951  0.4987 -0.4240
18627TIP3    H177296   4.830   0.760  12.199 -0.1039 -0.6854 -0.5123
18627TIP3    H277297   4.757   0.726  12.327  0.2891  1.7606  0.4251
18628TIP3   OH277298   4.463   3.203  16.811  0.1139  0.2837  0.0279
18628TIP3    H177299   4.406   3.196  16.888  0.3410 -3.3067  0.0127
18628TIP3    H277300   4.551   3.211  16.847  0.0839  0.2490  0.1092
18629TIP3   OH277301   3.039   0.620  14.194 -0.3851  0.2698  0.1344
18629TIP3    H177302   3.022   0.560  14.122  2.4643 -0.0483 -0.3905
18629TIP3    H277303   3.122   0.662  14.172 -0.0096  1.0410  2.6576
18630TIP3   OH277304   2.450   4.416   4.455  0.4003  0.3173  0.0642
18630TIP3    H177305   2.486   4.377   4.535 -2.2339 -0.0398  1.1805
18630TIP3    H277306   2.460   4.347   4.389  2.0582  0.3942  0.1921
18631TIP3   OH277307   0.708   4.650  13.620  0.6350 -0.0112  0.2267
18631TIP3    H177308   0.749   4.574  13.660  0.4382  0.0734  0.5988
18631TIP3    H277309   0.615   4.627  13.616  0.1966  1.0441  2.3798
18632TIP3   OH277310   2.275   4.099  11.634  0.2678  0.0680 -0.1157
18632TIP3    H177311   2.249   4.155  11.708  0.5328  1.9518 -1.3751
18632TIP3    H277312   2.344   4.043  11.669 -0.8790 -0.3944  1.5297
18633TIP3   OH277313   6.231   0.555   2.369 -0.3860 -0.1100  0.2971
18633TIP3    H177314   6.322   0.577   2.390  0.1130 -0.5918 -1.2409
18633TIP3    H277315   6.183   0.637   2.382  0.1454 -0.0054  1.7207
18634TIP3   OH277316   2.242   1.706  13.778  0.4915 -1.0566  0.0270
18634TIP3    H177317   2.279   1.714  13.866 -1.6641 -0.5584  0.9608
18634TIP3    H277318   2.198   1.790  13.763 -1.6086 -2.1516 -0.2962
18635TIP3   OH277319   0.106   6.545  14.978 -0.1605  0.1398 -0.5990
18635TIP3    H177320   0.188   6.497  14.989  0.1473 -0.1256 -3.2911
18635TIP3    H277321   0.108   6.613  15.045  0.8637 -1.6141  1.2701
18636TIP3   OH277322   5.831   0.553  13.849  0.0984 -0.1557 -0.1186
18636TIP3    H177323   5.914   0.596  13.827 -0.5058  0.9092 -0.3874
18636TIP3    H277324   5.786   0.544  13.766 -0.8587  1.0290  0.2331
18637TIP3   OH277325   5.585   2.649   3.212  0.3589 -0.7535 -0.2210
18637TIP3    H177326   5.617   2.660   3.123  0.2909  0.8913 -0.0792
18637TIP3    H277327   5.500   2.695   3.213 -0.7776 -2.7666  0.0944
18638TIP3   OH277328   2.460   2.057  14.233 -0.3368  0.1389 -0.1260
18638TIP3    H177329   2.445   1.967  14.262 -1.9725  0.3133 -0.3180
18638TIP3    H277330   2.422   2.060  14.145  1.7551  0.4327 -1.0760
18639TIP3   OH277331   4.647   1.595   4.050 -0.0593  0.7133  0.1111
18639TIP3    H177332   4.686   1.568   4.132  0.1172  0.8875  0.0864
18639TIP3    H277333   4.657   1.520   3.992 -2.0222 -0.1807  0.8537
18640TIP3   OH277334   0.621   0.203  11.265  0.2063  0.0080 -0.1406
18640TIP3    H177335   0.681   0.145  11.311  0.8228  0.3482 -0.5013
18640TIP3    H277336   0.661   0.215  11.179  0.0425  0.8939 -0.0997
18641TIP3   OH277337   4.703   1.998   3.941  0.0676 -0.0119 -0.1262
18641TIP3    H177338   4.634   1.939   3.973 -0.2237  0.4281  0.0591
18641TIP3    H277339   4.724   2.054   4.015 -0.1326  0.5673 -0.5037
18642TIP3   OH277340   1.459   6.439   0.533  0.1289 -0.3004 -0.6206
18642TIP3    H177341   1.453   6.503   0.603 -0.2159 -1.5841  0.5771
18642TIP3    H277342   1.508   6.483   0.463  1.8944  0.4818  1.0440
18643TIP3   OH277343   4.842   2.562  12.583 -0.2654 -0.3578 -0.1061
18643TIP3    H177344   4.916   2.623  12.576  0.0627 -0.9008 -1.8822
18643TIP3    H277345   4.807   2.577  12.671  2.7125 -0.9301  1.3049
18644TIP3   OH277346   1.440   0.481   1.256  0.6432 -0.1467 -0.1707
18644TIP3    H177347   1.487   0.561   1.280 -1.7491  1.3551 -0.1530
18644TIP3    H277348   1.482   0.453   1.174  0.7444  1.9023 -0.8901
18645TIP3   OH277349   4.386   5.440   5.660 -0.7840  0.2072  0.2545
18645TIP3    H177350   4.443   5.448   5.736  0.6718  2.5899 -0.9743
18645TIP3    H277351   4.422   5.501   5.596 -3.0095 -0.3735 -1.7063
18646TIP3   OH277352   6.229   4.597   3.330 -0.1764  0.1666  0.3668
18646TIP3    H177353   6.154   4.570   3.277  1.4165 -0.7981 -1.5577
18646TIP3    H277354   6.226   4.540   3.407 -1.3095  0.0428  0.2463
18647TIP3   OH277355   5.459   0.679  12.675 -0.1677  0.0335  0.1946
18647TIP3    H177356   5.378   0.653  12.632 -0.5581  1.5838 -0.0848
18647TIP3    H277357   5.523   0.612  12.649 -0.9085 -0.2016 -1.0921
18648TIP3   OH277358   2.661   2.147   6.003 -0.3324  0.7529  0.3827
18648TIP3    H177359   2.709   2.092   6.065 -0.9536 -1.9115 -1.3219
18648TIP3    H277360   2.574   2.158   6.042 -0.2100  0.5073  0.7258
18649TIP3   OH277361   3.252   1.743  11.573 -0.0398 -0.1198  0.3861
18649TIP3    H177362   3.279   1.741  11.664 -1.1558 -0.0042  0.7296
18649TIP3    H277363   3.177   1.802  11.571  1.5008  1.9943 -1.0326
18650TIP3   OH277364   5.654   5.995  12.473 -0.3184 -0.8121  0.0066
18650TIP3    H177365   5.742   5.984  12.438 -0.6460  0.4521 -1.3251
18650TIP3    H277366   5.665   5.995  12.568  1.3495  0.8931 -0.1366
18651TIP3   OH277367   3.542   0.814   1.591 -0.8067  0.4426 -0.3785
18651TIP3    H177368   3.478   0.743   1.590 -2.5028  1.8616  0.7777
18651TIP3    H277369   3.508   0.876   1.656  2.2182  0.8681  0.9668
18652TIP3   OH277370   0.490   6.423  13.719  0.1437  0.5427  0.2191
18652TIP3    H177371   0.476   6.335  13.683 -0.6882  0.1982  1.3195
18652TIP3    H277372   0.401   6.460  13.727  0.2746  0.5652  1.9506
18653TIP3   OH277373   6.017   3.288  16.879  0.0513 -0.5227  0.2329
18653TIP3    H177374   5.996   3.340  16.801  0.1215 -0.0624  0.5164
18653TIP3    H277375   6.055   3.207  16.844 -1.5975 -1.1298 -0.2903
18654TIP3   OH277376   4.786   2.323  13.642  0.0466  0.3652 -0.2086
18654TIP3    H177377   4.823   2.344  13.556 -0.4205  0.7403 -0.3244
18654TIP3    H277378   4.692   2.338  13.631 -0.0320  0.2724  0.3274
18655TIP3   OH277379   0.862   3.018  12.143 -0.0357  0.2859  0.2140
18655TIP3    H177380   0.828   3.034  12.231  0.5813 -1.1364  0.7339
18655TIP3    H277381   0.915   2.939  12.152 -0.3993 -0.1921 -1.5546
18656TIP3   OH277382   3.546   4.158  16.786  0.3721  0.7257 -0.3068
18656TIP3    H177383   3.562   4.091  16.719 -1.1255  1.0633 -1.0454
18656TIP3    H277384   3.632   4.173  16.825  0.6711 -2.2157  0.4628
18657TIP3   OH277385   5.801   4.987   2.749  0.0731 -0.0635 -0.5738
18657TIP3    H177386   5.799   5.063   2.691 -2.6209 -0.7072 -1.4308
18657TIP3    H277387   5.794   5.024   2.837  0.0090  0.7359 -0.9057
18658TIP3   OH277388   2.531   4.253  15.772  0.4398  0.1390  0.2563
18658TIP3    H177389   2.458   4.309  15.746 -0.2734 -0.6552  0.5223
18658TIP3    H277390   2.556   4.285  15.859  0.5429  0.5397  0.0795
18659TIP3   OH277391   5.467   0.242  12.000  0.1690 -0.1994  0.4857
18659TIP3    H177392   5.459   0.152  11.970  0.8258 -0.5278  1.2842
18659TIP3    H277393   5.440   0.295  11.924  0.0964 -1.0462 -0.0879
18660TIP3   OH277394   1.967   0.710   2.157 -0.2527  0.3218 -0.3842
18660TIP3    H177395   1.872   0.702   2.164 -0.5642  2.1537 -1.8594
18660TIP3    H277396   1.984   0.804   2.156  1.1262  0.2190 -4.2254
18661TIP3   OH277397   5.166   5.376  12.768  0.4347  0.8019 -0.2296
18661TIP3    H177398   5.119   5.295  12.790 -1.2798  1.9714  0.6664
18661TIP3    H277399   5.105   5.425  12.713  1.7285  1.2126 -1.3459
18662TIP3   OH277400   5.773   3.187   4.456 -0.3098 -0.0883 -0.4331
18662TIP3    H177401   5.847   3.209   4.400 -0.0416 -0.3394 -0.1783
18662TIP3    H277402   5.809   3.129   4.522 -0.6794 -0.0038 -0.1521
18663TIP3   OH277403   6.713   5.904   6.024  0.1827  0.3018 -0.3874
18663TIP3    H177404   6.673   5.928   5.941  0.8182  0.1797 -0.7279
18663TIP3    H277405   6.718   5.808   6.021 -2.7813 -0.0253  1.1527
18664TIP3   OH277406   2.672   5.412  16.717  0.3698  0.2513 -0.0561
18664TIP3    H177407   2.627   5.402  16.801  2.3511 -0.3510  1.0023
18664TIP3    H277408   2.644   5.498  16.685 -0.8098  0.2855  0.9575
18665TIP3   OH277409   0.953   6.754   3.589  0.4249  0.2999 -0.4634
18665TIP3    H177410   0.875   6.810   3.588  1.1240  1.2783 -0.5610
18665TIP3    H277411   0.938   6.696   3.664 -0.5840  0.2047 -0.7202
18666TIP3   OH277412   5.425   6.288   5.795  0.0243 -0.2792  0.4220
18666TIP3    H177413   5.392   6.272   5.883 -0.1705 -1.1663  0.1909
18666TIP3    H277414   5.351   6.326   5.748 -0.1469 -0.6650  0.3811
18667TIP3   OH277415   5.072   2.308   0.248  0.0352  0.4244  0.0360
18667TIP3    H177416   5.162   2.334   0.270 -0.0552 -1.7212  4.0200
18667TIP3    H277417   5.068   2.314   0.153  4.7196 -0.1965 -0.4761
18668TIP3   OH277418   6.314   4.085  14.571 -0.5667 -0.1452  0.3758
18668TIP3    H177419   6.239   4.036  14.605 -0.7233  0.5899  1.1559
18668TIP3    H277420   6.318   4.163  14.627 -0.5547  0.9188 -1.0467
18669TIP3   OH277421   3.016   5.624  13.397 -0.4165 -0.3011 -0.2412
18669TIP3    H177422   2.967   5.643  13.476 -0.5919 -0.7294 -0.2436
18669TIP3    H277423   3.004   5.702  13.342 -1.0991 -0.4042 -0.2459
18670TIP3   OH277424   1.762   4.631  14.455  0.2939 -0.4785  0.0363
18670TIP3    H177425   1.752   4.591  14.542  0.0328  1.3425  0.9036
18670TIP3    H277426   1.777   4.558  14.396 -1.2413 -1.9407  1.3429
18671TIP3   OH277427   4.724   5.341   2.870 -0.3750 -0.2101  0.5852
18671TIP3    H177428   4.664   5.314   2.800  0.6722 -0.6657 -0.1667
18671TIP3    H277429   4.683   5.309   2.950 -1.8470  0.7431  0.2675
18672TIP3   OH277430   2.149   3.940   0.088  0.1207  0.2169  0.6871
18672TIP3    H177431   2.084   3.977   0.028 -1.4926  0.0757  2.2689
18672TIP3    H277432   2.231   3.984   0.065 -0.2217 -0.4119 -2.1242
18673TIP3   OH277433   5.934   1.170  13.346 -0.4424 -0.3085 -0.3199
18673TIP3    H177434   5.861   1.110  13.359  1.2812 -2.3988  0.2333
18673TIP3    H277435   6.011   1.122  13.376  1.2375  1.6810 -1.1558
18674TIP3   OH277436   4.910   6.370  12.087  0.4398  0.0087 -0.0865
18674TIP3    H177437   4.931   6.415  12.169  1.8516  0.0992 -0.4618
18674TIP3    H277438   4.912   6.277  12.110 -0.3649  0.0684  0.2360
18675TIP3   OH277439   1.652   5.830  16.482 -0.3276 -0.2731 -0.6136
18675TIP3    H177440   1.689   5.864  16.401 -1.4601 -0.0471 -1.0628
18675TIP3    H277441   1.664   5.900  16.546 -0.0343 -0.1881 -0.7615
18676TIP3   OH277442   1.969   1.643  15.907  0.0736 -0.2022 -0.1206
18676TIP3    H177443   2.024   1.703  15.958  0.6308 -0.9101  0.1274
18676TIP3    H277444   2.001   1.556  15.929 -0.3606 -0.5726 -0.8983
18677TIP3   OH277445   3.300   3.062   5.156  0.0077  0.1343 -0.6795
18677TIP3    H177446   3.292   3.139   5.099 -1.8051  2.4304  2.3834
18677TIP3    H277447   3.218   3.060   5.205  0.7044 -2.8161  0.5574
18678TIP3   OH277448   6.780   2.302   0.551  0.2763 -0.0531 -0.3494
18678TIP3    H177449   6.837   2.289   0.476  1.6868 -1.6397  0.9165
18678TIP3    H277450   6.782   2.218   0.598 -1.5726  0.4774  0.7790
18679TIP3   OH277451   1.416   2.078  14.846 -0.2528  0.5534  0.1454
18679TIP3    H177452   1.452   2.053  14.931  0.8455 -0.4411 -0.5833
18679TIP3    H277453   1.472   2.033  14.782 -0.5378  1.9482 -1.1326
18680TIP3   OH277454   2.138   0.329  16.978  0.5288 -0.3395 -0.1581
18680TIP3    H177455   2.111   0.270  17.049 -0.1697  0.4765  0.2662
18680TIP3    H277456   2.207   0.280  16.932  0.7985 -1.0037  0.9017
18681TIP3   OH277457   6.724   2.517   4.294 -0.2534 -0.5077 -0.1953
18681TIP3    H177458   6.722   2.431   4.251  0.8074 -0.2021 -0.8884
18681TIP3    H277459   6.790   2.567   4.246  1.2578 -0.2529  1.9718
18682TIP3   OH277460   2.133   2.232   3.869  0.3581 -0.1957  0.8918
18682TIP3    H177461   2.146   2.249   3.776 -0.6941  0.7175  0.8842
18682TIP3    H277462   2.039   2.246   3.883  0.8459  1.9708  2.5243
18683TIP3   OH277463   3.835   5.687   0.746  0.7298  0.3587 -0.2751
18683TIP3    H177464   3.925   5.695   0.778  0.8481  0.1555 -0.5557
18683TIP3    H277465   3.802   5.777   0.746  0.8128  0.3930  0.1692
18684TIP3   OH277466   0.348   3.094   0.265  0.0369 -0.3983  0.0762
18684TIP3    H177467   0.373   3.117   0.355 -0.1062  2.4123 -0.5171
18684TIP3    H277468   0.430   3.097   0.216 -0.3329  1.4862 -0.4861
18685TIP3   OH277469   1.013   6.766   1.104  0.2353 -0.1355 -0.8021
18685TIP3    H177470   0.935   6.781   1.051 -0.2968 -2.0741 -0.6511
18685TIP3    H277471   1.066   6.705   1.052  1.4644  0.8430 -0.7195
18686TIP3   OH277472   5.597   5.747   4.446  0.3670  0.0840  0.1184
18686TIP3    H177473   5.607   5.658   4.410  0.0966  0.0841  0.0431
18686TIP3    H277474   5.673   5.757   4.504  0.0618 -0.4415  0.6285
18687TIP3   OH277475   3.591   1.593   2.007  0.1065 -0.4250  0.2640
18687TIP3    H177476   3.628   1.650   1.940 -0.6988 -0.8049 -0.5206
18687TIP3    H277477   3.531   1.649   2.056  1.2096  0.0355  1.1529
18688TIP3   OH277478   4.903   5.482   4.944  0.1733  0.0833 -0.0916
18688TIP3    H177479   4.996   5.468   4.962 -0.3162 -0.7589  2.1401
18688TIP3    H277480   4.876   5.403   4.897  0.6321  0.4904 -1.0680
18689TIP3   OH277481   5.888   3.577   0.963 -0.3968 -0.3014 -0.2256
18689TIP3    H177482   5.918   3.535   0.883  0.0720  0.9560 -0.7356
18689TIP3    H277483   5.828   3.645   0.934 -0.2624  0.1379  0.4831
18690TIP3   OH277484   6.314   4.266  10.925 -0.1796 -0.2393 -0.2139
18690TIP3    H177485   6.409   4.273  10.921 -0.0155 -0.0577  2.4608
18690TIP3    H277486   6.283   4.357  10.919 -0.2542 -0.3204 -1.4110
18691TIP3   OH277487   6.779   5.399  12.130 -0.4968 -0.3691  0.0292
18691TIP3    H177488   6.764   5.415  12.036 -3.6299  1.8158  0.7363
18691TIP3    H277489   6.746   5.311  12.145  0.8357 -1.0818 -1.0136
18692TIP3   OH277490   1.818   1.059  14.252 -0.0472 -0.4032 -0.1250
18692TIP3    H177491   1.827   0.981  14.198 -2.3909 -0.0189 -1.2258
18692TIP3    H277492   1.731   1.050  14.292  0.5022  0.6490  1.3958
18693TIP3   OH277493   1.199   2.500   2.411 -0.1624  0.3027  0.7023
18693TIP3    H177494   1.196   2.549   2.494  3.3810  2.2185 -0.0976
18693TIP3    H277495   1.273   2.440   2.421  0.5490  0.8169 -1.1279
18694TIP3   OH277496   1.749   4.559   2.294 -0.3158 -0.3718 -0.1637
18694TIP3    H177497   1.747   4.651   2.319 -1.1903 -0.2899 -0.5013
18694TIP3    H277498   1.796   4.516   2.365 -0.1866  0.2794  0.1575
18695TIP3   OH277499   2.274   1.249   5.053  0.1807 -0.2059 -0.4461
18695TIP3    H177500   2.306   1.228   5.141  1.0301  1.3172 -0.3613
18695TIP3    H277501   2.214   1.323   5.066 -2.4014 -2.0771 -0.7841
18696TIP3   OH277502   0.033   3.698  13.279 -0.0428  0.5488 -0.0214
18696TIP3    H177503   0.041   3.625  13.341 -1.3633  1.2527  1.0179
18696TIP3    H277504  -0.050   3.683  13.235 -0.9240  1.9984  1.0411
18697TIP3   OH277505   0.286   6.089  15.806 -0.1198  0.2454 -0.4006
18697TIP3    H177506   0.279   6.152  15.878  1.4847  0.3527 -0.3044
18697TIP3    H277507   0.377   6.058  15.810 -0.3276 -0.5973 -1.6809
18698TIP3   OH277508   2.719   3.008   4.286  0.1747  0.3755  0.3057
18698TIP3    H177509   2.659   2.971   4.221  0.7200 -3.8813  1.8709
18698TIP3    H277510   2.795   3.037   4.236 -0.9325  0.7774 -1.2121
18699TIP3   OH277511   6.382   3.277   2.999 -0.0207  0.6636 -0.1792
18699TIP3    H177512   6.291   3.259   3.019  0.0467  1.4851  0.9649
18699TIP3    H277513   6.429   3.258   3.080  0.8447  0.1453 -0.7879
18700TIP3   OH277514   1.556   2.684   3.906  0.2879 -0.4203 -0.6710
18700TIP3    H177515   1.633   2.695   3.961 -0.0414 -2.2409  0.2136
18700TIP3    H277516   1.483   2.716   3.960  0.1551 -0.7873 -0.6299
18701TIP3   OH277517   3.695   3.182   5.136 -0.0074 -0.3693  0.0144
18701TIP3    H177518   3.636   3.168   5.210 -0.6862 -1.2711 -0.6822
18701TIP3    H277519   3.709   3.276   5.134 -0.1967 -0.3050  1.1204
18702TIP3   OH277520   5.052   6.554  12.322  0.1633  0.2369  0.0818
18702TIP3    H177521   5.133   6.525  12.280  0.8186  0.4332  1.1648
18702TIP3    H277522   5.075   6.561  12.415 -0.7083  1.6387  0.2114
18703TIP3   OH277523   5.556   2.554   0.575 -0.1877 -0.3778 -0.1376
18703TIP3    H177524   5.588   2.541   0.485  0.1913  0.7014 -0.1776
18703TIP3    H277525   5.514   2.640   0.573 -0.2336 -0.3738  0.7120
18704TIP3   OH277526   6.377   6.475  15.360 -0.7543  0.4982 -0.0759
18704TIP3    H177527   6.361   6.510  15.448  1.1208 -1.0849  0.9829
18704TIP3    H277528   6.413   6.388  15.376 -1.1696 -0.1721 -2.4790
18705TIP3   OH277529   4.160   6.431  13.757 -0.7617 -0.0441 -0.6647
18705TIP3    H177530   4.164   6.336  13.770 -1.3545 -0.2992 -2.1578
18705TIP3    H277531   4.208   6.467  13.831  1.2177 -1.5891 -1.1234
18706TIP3   OH277532   3.701   5.634   2.897 -0.2077  0.3577 -0.5943
18706TIP3    H177533   3.626   5.575   2.904 -1.3659  1.5938 -1.9963
18706TIP3    H277534   3.663   5.722   2.900  1.3544  1.0417  0.2216
18707TIP3   OH277535   2.410   0.939   4.680  0.4649  0.3204  0.2328
18707TIP3    H177536   2.364   0.855   4.674  0.7704  0.2558 -1.7545
18707TIP3    H277537   2.433   0.947   4.773  0.1677 -1.6424  0.5132
18708TIP3   OH277538   1.325   6.528  13.852  0.1833  0.1152  0.2581
18708TIP3    H177539   1.284   6.443  13.835  1.1333 -0.4738  0.7587
18708TIP3    H277540   1.335   6.568  13.766 -0.5007 -0.1700  0.0419
18709TIP3   OH277541   0.247   4.125  12.600 -0.2653 -0.2781  0.6535
18709TIP3    H177542   0.246   4.173  12.517 -1.8939 -0.0153  0.7983
18709TIP3    H277543   0.266   4.192  12.666 -1.1451 -0.0680  0.7071
18710TIP3   OH277544   4.029   4.375   4.320  0.0913 -0.1162  0.5067
18710TIP3    H177545   4.120   4.393   4.297  0.5906 -0.4710  2.0892
18710TIP3    H277546   4.022   4.279   4.317 -0.4391 -0.0673 -0.2696
18711TIP3   OH277547   5.592   3.528   5.701  0.0642  0.3700 -0.0991
18711TIP3    H177548   5.565   3.577   5.624 -0.1828 -0.7625 -0.7548
18711TIP3    H277549   5.681   3.500   5.683 -0.3322 -0.7470 -0.4405
18712TIP3   OH277550   3.091   0.611   0.859 -0.7699 -0.0222  0.3944
18712TIP3    H177551   3.127   0.583   0.775 -2.0222 -2.5525  0.6112
18712TIP3    H277552   3.143   0.564   0.924 -2.2262 -1.1418  0.8189
18713TIP3   OH277553   0.803   3.240   2.663  0.1265 -0.1979 -0.1559
18713TIP3    H177554   0.756   3.158   2.681 -0.5455 -0.1645 -1.5663
18713TIP3    H277555   0.881   3.212   2.615  0.8516 -0.1333  0.9450
18714TIP3   OH277556   5.828   0.467   5.113  0.1323 -0.3381 -0.0589
18714TIP3    H177557   5.756   0.530   5.111  2.0883  2.0285 -1.9113
18714TIP3    H277558   5.871   0.484   5.197  0.7779  1.0944 -0.6296
18715TIP3   OH277559   1.318   1.649  15.507 -0.0231 -0.4535  0.0844
18715TIP3    H177560   1.378   1.586  15.547  0.8401 -0.0641 -0.5634
18715TIP3    H277561   1.368   1.686  15.434 -0.3859  1.2316  0.6589
18716TIP3   OH277562   5.393   1.622   4.803 -0.2588 -0.0103 -0.2823
18716TIP3    H177563   5.394   1.543   4.748 -2.0917 -0.1173 -0.2331
18716TIP3    H277564   5.381   1.694   4.741  0.0198  0.0870 -0.2203
18717TIP3   OH277565   6.232   4.374  11.795  0.0685  0.2352 -0.3470
18717TIP3    H177566   6.187   4.449  11.756  0.6116  1.2589  0.8965
18717TIP3    H277567   6.300   4.351  11.732  2.2530  3.1380  0.7402
18718TIP3   OH277568   1.588   0.848   1.203 -0.0477  0.1527  0.1718
18718TIP3    H177569   1.521   0.913   1.179 -1.4698 -1.0988  0.5643
18718TIP3    H277570   1.622   0.817   1.119 -1.3365 -0.5240 -0.1363
18719TIP3   OH277571   1.542   3.603  16.754 -0.7670  0.0269  0.4402
18719TIP3    H177572   1.538   3.514  16.719 -1.6722 -0.3722  1.4955
18719TIP3    H277573   1.476   3.605  16.824 -0.4284  1.3857  0.7625
18720TIP3   OH277574   4.874   1.841  16.502 -0.2907  0.2288 -0.0465
18720TIP3    H177575   4.787   1.802  16.486 -0.1857  0.2694 -0.7232
18720TIP3    H277576   4.898   1.808  16.589 -0.1143 -1.4306 -0.6767
18721TIP3   OH277577   0.003   1.506   4.410  0.1624  0.3940 -0.6004
18721TIP3    H177578   0.079   1.469   4.455  0.9002 -0.0857 -2.2033
18721TIP3    H277579  -0.064   1.438   4.419  0.4585  0.0914 -0.6701
18722TIP3   OH277580   4.095   5.716  14.610 -0.3287 -0.1839 -0.4752
18722TIP3    H177581   4.079   5.626  14.582  0.4489 -0.4206 -0.1878
18722TIP3    H277582   4.026   5.734  14.674 -1.3109 -0.0975 -1.5363
18723TIP3   OH277583   0.002   2.456   5.632  0.1454 -0.2370  0.2753
18723TIP3    H177584  -0.013   2.425   5.543 -0.8483 -0.5693  0.5520
18723TIP3    H277585  -0.029   2.547   5.632 -0.0365 -0.3003  0.3404
18724TIP3   OH277586   1.510   6.613  12.122 -1.1163  0.5881  0.4526
18724TIP3    H177587   1.439   6.550  12.133  0.8324 -1.6255  1.2832
18724TIP3    H277588   1.492   6.682  12.187 -1.6935 -0.7666  1.7751
18725TIP3   OH277589   0.581   3.810   0.612 -0.4060 -0.1122  0.1199
18725TIP3    H177590   0.640   3.844   0.679 -0.5410 -0.0387  0.2022
18725TIP3    H277591   0.496   3.803   0.656 -0.2780 -1.0233  0.2446
18726TIP3   OH277592   0.802   1.351  13.030 -0.2825 -0.1239  0.4240
18726TIP3    H177593   0.871   1.397  12.983 -0.8069  0.5331  0.2740
18726TIP3    H277594   0.837   1.337  13.118  0.1318 -0.0142  0.2756
18727TIP3   OH277595   2.110   2.261   4.930  0.0139 -0.6300 -0.0467
18727TIP3    H177596   2.048   2.327   4.900  0.0531  0.2396  1.6562
18727TIP3    H277597   2.162   2.305   4.996  2.7011 -1.2506 -1.5948
18728TIP3   OH277598   3.458   5.234  11.804 -0.2158  0.1416 -0.0698
18728TIP3    H177599   3.412   5.297  11.749 -1.6182 -0.8734 -0.1075
18728TIP3    H277600   3.544   5.225  11.763 -0.6699  0.6110 -1.1558
18729TIP3   OH277601   5.763   5.829   6.043  0.2811  0.3459  0.0015
18729TIP3    H177602   5.745   5.919   6.070 -0.9249  0.2117 -0.2786
18729TIP3    H277603   5.766   5.832   5.948  3.3570  0.6096  0.0246
18730TIP3   OH277604   6.047   3.891  17.170  0.0015  0.0143  0.1414
18730TIP3    H177605   6.039   3.976  17.214 -0.9418 -0.1954  0.3916
18730TIP3    H277606   6.129   3.898  17.120 -0.4388  1.3576 -0.4454
18731TIP3   OH277607   4.017   4.079   0.733  0.6372  0.1352  0.4423
18731TIP3    H177608   4.096   4.126   0.760  1.0514 -0.3108  0.0351
18731TIP3    H277609   4.038   4.044   0.646 -1.0947  2.6017 -1.0950
18732TIP3   OH277610   5.881   6.420  16.523 -0.4321 -0.5581  0.3562
18732TIP3    H177611   5.880   6.512  16.549 -0.9545 -0.6446  0.6415
18732TIP3    H277612   5.816   6.414  16.453  0.1696 -0.5536 -0.2136
18733TIP3   OH277613   0.113   3.089  16.260  0.8256 -0.0337 -1.1195
18733TIP3    H177614   0.058   3.113  16.186 -0.0421  0.6042 -0.2963
18733TIP3    H277615   0.193   3.140  16.248  1.2861 -0.9990 -2.3444
18734TIP3   OH277616   3.899   2.049   4.023  0.1399  0.1922 -0.4978
18734TIP3    H177617   3.904   2.023   3.932 -1.6242 -1.3227 -0.2077
18734TIP3    H277618   3.836   2.121   4.025 -1.2037 -0.9566 -0.2833
18735TIP3   OH277619   0.722   3.825  16.613  0.1444 -0.1533 -0.4275
18735TIP3    H177620   0.749   3.915  16.594 -2.5331  0.4823 -1.7154
18735TIP3    H277621   0.729   3.818  16.708  0.2663  1.4676 -0.2836
18736TIP3   OH277622   6.519   4.287   3.513  0.2926 -0.6247  0.0871
18736TIP3    H177623   6.460   4.285   3.438  1.5390  1.4558 -1.0688
18736TIP3    H277624   6.606   4.302   3.475  0.8639  1.4033  1.9318
18737TIP3   OH277625   6.690   3.834  16.837 -0.4938 -1.0038 -0.2367
18737TIP3    H177626   6.673   3.862  16.927  0.7629 -2.0224  0.3537
18737TIP3    H277627   6.780   3.864  16.820 -1.3103  0.7901 -1.8424
18738TIP3   OH277628   6.143   3.952   2.781 -0.0563  0.3862  0.0355
18738TIP3    H177629   6.067   3.972   2.837 -0.2022  0.5436 -0.2181
18738TIP3    H277630   6.195   3.892   2.833 -1.8790 -2.2303 -0.9675
18739TIP3   OH277631   4.829   2.916  14.899  0.4867  0.2694  0.4022
18739TIP3    H177632   4.798   2.951  14.982 -0.3650  1.3279 -0.3249
18739TIP3    H277633   4.851   2.994  14.847  1.9390 -0.3867 -0.0309
18740TIP3   OH277634   2.872   1.849   2.687  0.4353 -0.2040  0.4015
18740TIP3    H177635   2.901   1.940   2.691  1.4893 -0.5112  0.1528
18740TIP3    H277636   2.949   1.798   2.713 -0.1948 -1.0187  0.7151
18741TIP3   OH277637   3.031   3.477  14.636  0.3282  0.4504  0.1840
18741TIP3    H177638   2.959   3.417  14.653  0.2161  0.4227 -0.3823
18741TIP3    H277639   3.052   3.464  14.543  0.2878  1.2893  0.0503
18742TIP3   OH277640   0.250   2.357   5.337  0.2214 -0.1820  0.0333
18742TIP3    H177641   0.268   2.355   5.243  0.9568 -0.8340  0.1724
18742TIP3    H277642   0.157   2.378   5.344  0.3165  0.5891 -0.8161
18743TIP3   OH277643   6.517   6.094   2.656 -0.2384  0.2041 -0.1174
18743TIP3    H177644   6.498   6.060   2.568 -2.8242  0.5195  0.2606
18743TIP3    H277645   6.579   6.165   2.641 -0.1777 -0.1339 -1.6234
18744TIP3   OH277646   0.882   2.363  14.389 -0.3594  0.3522 -0.2324
18744TIP3    H177647   0.962   2.322  14.357  0.1692  0.0421  1.3987
18744TIP3    H277648   0.899   2.457  14.383 -0.0075  0.2910 -0.2013
18745TIP3   OH277649   3.379   5.247  16.514 -0.7253  0.0648  0.6435
18745TIP3    H177650   3.469   5.267  16.487 -0.4739 -1.9492 -0.1506
18745TIP3    H277651   3.387   5.167  16.567 -2.1713 -0.9770 -0.6344
18746TIP3   OH277652   6.450   5.747  14.436  0.4985  0.1640  0.2516
18746TIP3    H177653   6.521   5.684  14.424  1.1876  1.0079 -0.2852
18746TIP3    H277654   6.471   5.818  14.375  0.9177  1.8908  2.2874
18747TIP3   OH277655   2.298   3.004   0.901 -0.1212 -0.8715  0.3103
18747TIP3    H177656   2.241   2.946   0.851  0.0148  0.4735 -1.4887
18747TIP3    H277657   2.239   3.071   0.937  0.2011  0.1965 -1.0790
18748TIP3   OH277658   1.362   6.358  12.355  0.2045 -0.2703  0.1240
18748TIP3    H177659   1.333   6.406  12.278  0.2948 -0.3540  0.0368
18748TIP3    H277660   1.287   6.305  12.381  0.6560 -1.4438 -0.8517
18749TIP3   OH277661   5.811   2.920  13.073 -0.0473 -0.5279 -0.3913
18749TIP3    H177662   5.850   2.863  13.006  0.4862  1.4018 -1.8254
18749TIP3    H277663   5.849   2.890  13.155  2.1004 -0.7315 -1.3834
18750TIP3   OH277664   6.740   3.618   3.617 -0.3301  0.0650  0.1556
18750TIP3    H177665   6.822   3.667   3.622 -0.2343 -0.1515  0.8037
18750TIP3    H277666   6.683   3.661   3.680 -0.8135  0.3888 -0.4982
18751TIP3   OH277667   1.788   2.897   5.210 -0.5733 -0.3258 -0.0327
18751TIP3    H177668   1.874   2.872   5.175  0.9916  2.9000  1.0491
18751TIP3    H277669   1.737   2.922   5.133 -0.3859 -1.7379 -0.6442
18752TIP3   OH277670   3.066   6.240  15.036  0.1532  0.5935 -0.6030
18752TIP3    H177671   3.084   6.187  15.114  1.2203  2.3904  0.4259
18752TIP3    H277672   3.150   6.281  15.015 -0.5468  1.5679 -1.5911
18753TIP3   OH277673   1.960   5.033   2.342 -0.0576 -0.0926 -0.0440
18753TIP3    H177674   2.053   5.021   2.322 -0.0392  0.9002 -0.6033
18753TIP3    H277675   1.959   5.103   2.408 -0.4905  1.0893 -1.2701
18754TIP3   OH277676   0.775   0.563   0.904 -0.0259  0.1392 -0.1939
18754TIP3    H177677   0.702   0.516   0.862  1.0719 -0.5963 -1.3526
18754TIP3    H277678   0.845   0.498   0.909  0.5531  0.8204  0.9465
18755TIP3   OH277679   6.591   5.771  13.718 -0.1960 -0.2137  0.0843
18755TIP3    H177680   6.671   5.738  13.678  2.0107  0.8496  3.1872
18755TIP3    H277681   6.560   5.700  13.774 -0.8018 -0.2320 -0.2636
18756TIP3   OH277682   3.285   6.689   0.190 -0.2014 -0.1442  0.3608
18756TIP3    H177683   3.354   6.627   0.213 -0.0351 -0.1121 -0.0419
18756TIP3    H277684   3.218   6.636   0.146 -1.5650 -0.6247  2.8226
18757TIP3   OH277685   3.831   4.678   5.084 -0.6972  0.4721 -0.1306
18757TIP3    H177686   3.801   4.624   5.157  1.2945  2.0377  1.9786
18757TIP3    H277687   3.773   4.754   5.085 -0.5865  0.5561 -0.1182
18758TIP3   OH277688   0.569   2.396  12.514 -0.2346 -0.0163 -0.2849
18758TIP3    H177689   0.483   2.374  12.480 -1.3156  1.0548  1.5892
18758TIP3    H277690   0.568   2.365  12.604  1.5864 -0.5073 -0.3879
18759TIP3   OH277691   6.470   4.120  12.009 -0.7114  0.0038  0.0108
18759TIP3    H177692   6.424   4.068  12.074 -2.3415 -0.4986 -1.4598
18759TIP3    H277693   6.513   4.189  12.059 -0.5926 -1.2653  1.7401
18760TIP3   OH277694   5.225   4.689  10.496 -0.3139  0.2799 -0.2810
18760TIP3    H177695   5.251   4.597  10.489 -1.0249 -0.0551  1.0145
18760TIP3    H277696   5.307   4.736  10.510  0.1293 -0.0522 -1.6087
18761TIP3   OH277697   3.839   3.485  12.476  0.0902  0.0009  0.2905
18761TIP3    H177698   3.895   3.511  12.549 -1.2279  0.4932  1.1651
18761TIP3    H277699   3.754   3.468  12.516 -0.4685 -0.4463 -1.0372
18762TIP3   OH277700   1.620   6.541   5.533 -0.3707  0.5442 -0.4132
18762TIP3    H177701   1.689   6.607   5.526 -0.2431  0.4837  0.1778
18762TIP3    H277702   1.539   6.591   5.539 -0.3866  0.6161 -1.1016
18763TIP3   OH277703   6.128   1.527   6.108 -0.3407  0.3797  0.5789
18763TIP3    H177704   6.186   1.456   6.081  0.9590  1.0700  1.4494
18763TIP3    H277705   6.170   1.606   6.072 -0.3920  0.9507  1.7488
18764TIP3   OH277706   0.009   2.147   4.466 -0.1526 -0.0857 -0.1938
18764TIP3    H177707   0.071   2.218   4.447  0.3939 -0.1697  1.1936
18764TIP3    H277708   0.064   2.075   4.496 -0.8527 -0.4996  0.1021
18765TIP3   OH277709   4.492   5.179  12.944  0.3654 -0.1655  0.1916
18765TIP3    H177710   4.500   5.086  12.964  1.0565 -0.0562  0.4296
18765TIP3    H277711   4.464   5.181  12.852  0.3407 -0.6048  0.1873
18766TIP3   OH277712   4.164   1.836  14.015  0.1379  0.1226  0.0618
18766TIP3    H177713   4.137   1.881  13.935  0.8928 -0.2121 -0.3966
18766TIP3    H277714   4.226   1.897  14.057  0.1537  0.0711  0.1134
18767TIP3   OH277715   4.092   0.710   4.735  0.0507 -0.3496  0.2740
18767TIP3    H177716   4.132   0.668   4.659 -0.4678 -0.6816  0.1752
18767TIP3    H277717   4.015   0.754   4.700  0.4780  0.5246  0.4155
18768TIP3   OH277718   5.397   2.252   5.099  0.8550  0.0486  0.8484
18768TIP3    H177719   5.397   2.230   5.006 -0.8148 -3.2123  1.4441
18768TIP3    H277720   5.456   2.188   5.138  1.1066  1.0130  2.0985
18769TIP3   OH277721   4.640   3.477   5.157 -1.1688  0.2941 -0.1235
18769TIP3    H177722   4.547   3.467   5.179 -1.0696 -0.8957 -0.1876
18769TIP3    H277723   4.685   3.416   5.216 -0.6324 -0.7030 -1.5100
18770TIP3   OH277724   4.747   1.323   2.055  0.0153  0.6005 -0.0183
18770TIP3    H177725   4.774   1.390   2.117 -1.8018  0.8346  0.5865
18770TIP3    H277726   4.768   1.359   1.969  2.0677  0.5060  0.4024
18771TIP3   OH277727   3.405   2.122   4.696  0.1948  0.1053  0.2731
18771TIP3    H177728   3.438   2.109   4.606 -0.7904 -0.6107 -0.0015
18771TIP3    H277729   3.423   2.039   4.739 -0.4764  0.0026  0.3625
18772TIP3   OH277730   6.123   1.531  11.182 -0.4256 -0.6431  0.0384
18772TIP3    H177731   6.139   1.464  11.116 -0.0401 -1.3635  0.8493
18772TIP3    H277732   6.176   1.505  11.257  0.1151  0.8383  0.2055
18773TIP3   OH277733   3.969   3.411  17.029 -0.0830 -0.0421 -0.2967
18773TIP3    H177734   3.976   3.344  17.096 -0.1866  0.1691 -0.0742
18773TIP3    H277735   4.013   3.374  16.952 -0.3246 -0.4454 -0.2384
18774TIP3   OH277736   4.761   3.374  12.773  0.1181  0.1291  0.0380
18774TIP3    H177737   4.793   3.415  12.853 -1.5684  3.4227 -0.7770
18774TIP3    H277738   4.797   3.428  12.702 -3.5685  1.4972 -1.0416
18775TIP3   OH277739   5.085   1.980  13.644  0.4454 -0.2668 -0.1372
18775TIP3    H177740   4.996   1.966  13.678 -1.1846  0.5428 -3.6645
18775TIP3    H277741   5.094   2.075  13.640  0.7922 -0.3424 -1.3340
18776TIP3   OH277742   0.677   0.001   2.842  0.0947 -0.1261  0.0714
18776TIP3    H177743   0.737   0.070   2.817  0.5084 -0.4228  0.2259
18776TIP3    H277744   0.709  -0.029   2.928  0.6892 -1.3660 -0.5576
18777TIP3   OH277745   6.152   4.716   6.164  0.2590 -0.2410  0.0954
18777TIP3    H177746   6.157   4.809   6.186  0.8766 -0.2783  0.1310
18777TIP3    H277747   6.170   4.713   6.070 -1.1596 -0.1991 -0.2059
18778TIP3   OH277748   3.842   5.468  12.819  0.0211 -0.0529 -0.0434
18778TIP3    H177749   3.860   5.440  12.730  0.1795 -1.1344  0.3124
18778TIP3    H277750   3.885   5.554  12.826  0.9428 -0.4449 -0.6714
18779TIP3   OH277751   6.352   0.475   1.023 -0.0381  0.3963  0.4007
18779TIP3    H177752   6.395   0.514   0.947  0.9914  1.5096  1.5233
18779TIP3    H277753   6.366   0.381   1.012 -0.3341  0.4883 -1.0148
18780TIP3   OH277754   5.157   1.069   4.079 -0.0440  0.1901  0.5411
18780TIP3    H177755   5.235   1.120   4.058  0.5072 -1.1243 -0.7418
18780TIP3    H277756   5.189   0.995   4.130 -0.3095 -0.7403 -0.5900
18781TIP3   OH277757   0.950   6.191  16.947  0.3217  0.0339  0.5056
18781TIP3    H177758   0.983   6.104  16.970 -0.0283 -0.4072 -0.5869
18781TIP3    H277759   0.885   6.174  16.879  2.4507  1.3468 -2.0654
18782TIP3   OH277760   2.055   0.979  16.152  0.3373 -0.4871  0.5924
18782TIP3    H177761   2.149   0.993  16.140  0.0926  0.3861 -0.5164
18782TIP3    H277762   2.036   0.899  16.102  0.1227  0.5998 -1.1356
18783TIP3   OH277763   0.834   2.925   3.219  0.1498  0.2623 -0.0223
18783TIP3    H177764   0.767   2.858   3.210 -0.3468  0.6939  0.4412
18783TIP3    H277765   0.818   2.985   3.146 -0.4117  0.7434  0.4870
18784TIP3   OH277766   4.511   4.728  11.657  0.0514  0.1186 -0.1754
18784TIP3    H177767   4.427   4.738  11.612 -0.0660 -0.2104 -0.0359
18784TIP3    H277768   4.488   4.704  11.747  0.2750  1.4858  0.2661
18785TIP3   OH277769   3.150   1.107  13.106  0.4884 -0.3912 -0.1215
18785TIP3    H177770   3.079   1.056  13.145  2.5128 -1.2216  2.8096
18785TIP3    H277771   3.133   1.197  13.134 -0.1220 -0.3473 -0.6144
18786TIP3   OH277772   0.578   6.256  12.832  0.3546 -0.2856  0.1627
18786TIP3    H177773   0.601   6.178  12.882 -1.3316 -0.8631  0.1166
18786TIP3    H277774   0.556   6.224  12.745  1.5490  0.5045 -0.4614
18787TIP3   OH277775   6.683   0.236  12.252 -0.6746 -0.1289 -0.2385
18787TIP3    H177776   6.708   0.151  12.215  2.2242  0.2931  0.5489
18787TIP3    H277777   6.729   0.240  12.336 -0.2311  2.4472 -0.5350
18788TIP3   OH277778   2.787   3.682  16.892 -0.0321  0.0343  0.2527
18788TIP3    H177779   2.760   3.632  16.969  1.8938 -0.3956  0.7095
18788TIP3    H277780   2.719   3.665  16.828  0.0354 -2.4667  0.7043
18789TIP3   OH277781   6.281   1.941   0.424  0.3793  0.0538  0.0848
18789TIP3    H177782   6.363   1.986   0.402  0.4750 -0.4537 -0.6225
18789TIP3    H277783   6.248   1.989   0.500  0.0740  1.8123 -1.0994
18790TIP3   OH277784   4.399   0.028  11.427  0.2525 -0.3853 -0.0281
18790TIP3    H177785   4.373  -0.025  11.502 -0.4179  0.8548  0.6538
18790TIP3    H277786   4.487  -0.002  11.405  0.8969 -0.0889  1.9239
18791TIP3   OH277787   5.933   5.041  13.740  0.2141  0.0151  0.3537
18791TIP3    H177788   5.911   5.132  13.762 -0.3214 -0.1262  0.4249
18791TIP3    H277789   5.910   5.033  13.647  1.1735  0.2186  0.0797
18792TIP3   OH277790   2.841   0.620  15.292  0.0122  0.2104  0.0448
18792TIP3    H177791   2.806   0.680  15.225  1.8069  0.8719 -0.3546
18792TIP3    H277792   2.923   0.661  15.319  0.2202 -1.0147  1.3274
18793TIP3   OH277793   2.166   2.571  14.656  0.0721 -0.0740 -0.1646
18793TIP3    H177794   2.104   2.644  14.661  0.0986 -0.0770  0.2967
18793TIP3    H277795   2.152   2.534  14.569 -1.3780 -0.7529  0.3104
18794TIP3   OH277796   4.382   0.152   3.535 -0.6282 -0.2001 -0.1764
18794TIP3    H177797   4.340   0.207   3.601  0.0959 -1.1273  1.0994
18794TIP3    H277798   4.471   0.139   3.569  0.5481  1.1822 -2.4665
18795TIP3   OH277799   0.841   5.136   2.213  0.4392  0.3791 -0.1765
18795TIP3    H177800   0.747   5.149   2.202  0.5411 -0.0759 -1.8102
18795TIP3    H277801   0.858   5.160   2.304 -0.8675  2.6983 -0.4713
18796TIP3   OH277802   1.121   4.918  13.683  0.0012 -0.3275 -0.0185
18796TIP3    H177803   1.186   4.850  13.665 -1.1303 -1.2330 -0.8721
18796TIP3    H277804   1.127   4.934  13.777 -0.0483 -1.9693  0.2792
18797TIP3   OH277805   1.810   4.495   0.771  0.1939 -0.3626 -0.3022
18797TIP3    H177806   1.800   4.524   0.861  0.3713 -0.7473 -0.1601
18797TIP3    H277807   1.900   4.518   0.748  0.8335 -2.1165  0.2928
18798TIP3   OH277808   6.005   4.826   1.872  0.1749  0.2001 -0.6423
18798TIP3    H177809   6.076   4.798   1.815 -0.4765 -1.0222 -0.8668
18798TIP3    H277810   5.936   4.762   1.859 -0.1355  0.0968  1.2351
18799TIP3   OH277811   6.570   3.425   4.348 -0.0419  0.0656 -0.0870
18799TIP3    H177812   6.570   3.410   4.253  0.3791 -1.1840  0.0979
18799TIP3    H277813   6.662   3.442   4.369  0.1346 -1.3185  0.3287
18800TIP3   OH277814   6.332   2.710   5.454 -0.3536 -0.6174  0.3946
18800TIP3    H177815   6.369   2.723   5.542  1.4797  0.1353 -0.4555
18800TIP3    H277816   6.274   2.785   5.442 -0.4997 -0.6428  0.8912
18801TIP3   OH277817   1.818   5.045   3.339  0.2071 -0.2919 -0.4171
18801TIP3    H177818   1.779   5.053   3.252 -0.4194  2.3672  0.0216
18801TIP3    H277819   1.889   4.982   3.328  2.3752  2.4289 -3.7083
18802TIP3   OH277820   0.151   5.872  16.334  0.1627 -0.1253 -0.3312
18802TIP3    H177821   0.143   5.786  16.374 -1.0144 -0.8900 -2.1088
18802TIP3    H277822   0.245   5.889  16.330  0.4613 -1.7785 -0.8428
18803TIP3   OH277823   2.036   3.026  11.638 -0.2175 -0.1779 -0.1356
18803TIP3    H177824   2.018   3.117  11.616 -0.0896 -0.1004  0.0712
18803TIP3    H277825   1.961   2.997  11.690 -0.3244 -0.2341 -0.3197
18804TIP3   OH277826   1.029   3.966   4.948  0.1840 -0.1141  0.4810
18804TIP3    H177827   0.982   3.918   5.016  0.8147  0.6216  1.4431
18804TIP3    H277828   1.105   4.004   4.992  0.5884  0.4014 -0.6206
18805TIP3   OH277829   3.607   3.562   1.618  0.1952  0.3053  0.2084
18805TIP3    H177830   3.514   3.538   1.614  0.3154 -0.0889 -0.7284
18805TIP3    H277831   3.652   3.478   1.613  0.6096  0.5786 -1.4591
18806TIP3   OH277832   1.017   2.863  12.517  0.5632 -0.5987 -0.2374
18806TIP3    H177833   1.100   2.862  12.469  1.1621 -1.3629  0.7672
18806TIP3    H277834   0.988   2.954  12.513  0.5070 -0.6659 -2.1679
18807TIP3   OH277835   5.175   1.533  16.277  0.5487 -0.2412 -0.2202
18807TIP3    H177836   5.152   1.553  16.367 -1.8582  0.6592 -0.9661
18807TIP3    H277837   5.249   1.592  16.257 -0.1766  0.9687  0.5783
18808TIP3   OH277838   3.014   2.577  13.337 -0.5393  0.5724  0.0646
18808TIP3    H177839   2.983   2.623  13.416 -0.6620  1.7731 -0.6556
18808TIP3    H277840   3.007   2.484  13.359  0.8037  0.8538  2.0238
18809TIP3   OH277841   2.414   4.343  13.263 -0.0758  0.2822 -0.1648
18809TIP3    H177842   2.457   4.287  13.198  1.9770 -0.4134  1.6804
18809TIP3    H277843   2.431   4.432  13.232  0.2487 -0.0375 -0.9490
18810TIP3   OH277844   1.871   2.658   4.516  0.4446 -0.3433 -0.1046
18810TIP3    H177845   1.964   2.668   4.537  0.6811  1.0915 -1.6629
18810TIP3    H277846   1.870   2.620   4.428 -0.4227  0.5413 -0.4905
18811TIP3   OH277847   0.211   3.445  12.629  0.8194  0.6271 -0.1476
18811TIP3    H177848   0.223   3.540  12.621 -0.3501  0.8417  0.4697
18811TIP3    H277849   0.122   3.429  12.598  1.1637 -0.3426 -0.6871
18812TIP3   OH277850   3.789   5.923  13.603 -0.1924  0.0056  0.3153
18812TIP3    H177851   3.829   5.947  13.520 -0.7383 -0.2616 -0.0252
18812TIP3    H277852   3.702   5.963  13.601  0.1432  0.8289  1.1712
18813TIP3   OH277853   5.533   1.423   1.257 -0.2364 -0.0539  0.1154
18813TIP3    H177854   5.571   1.488   1.316  0.4271  1.4135 -1.8129
18813TIP3    H277855   5.440   1.422   1.280  0.3052 -1.1700  2.5948
18814TIP3   OH277856   5.824   0.986  17.094 -0.1359 -0.0064 -0.2443
18814TIP3    H177857   5.762   0.929  17.048 -1.2834  0.5376  0.5867
18814TIP3    H277858   5.830   0.950  17.182  0.9351 -0.1935 -0.3786
18815TIP3   OH277859   5.915   6.561   5.751  0.1864  0.6413 -0.3150
18815TIP3    H177860   5.983   6.598   5.694  0.8971 -0.2617 -0.0753
18815TIP3    H277861   5.941   6.469   5.763 -1.2903  0.1748 -0.5354
18816TIP3   OH277862   2.065   1.598   0.594  0.1707  0.6403 -0.4116
18816TIP3    H177863   2.054   1.641   0.509 -0.4442 -1.3069 -1.4013
18816TIP3    H277864   1.976   1.586   0.627  0.2284 -0.7864 -0.7007
18817TIP3   OH277865   3.176   2.551  14.628 -0.3621 -0.0639  0.5889
18817TIP3    H177866   3.269   2.570  14.615  0.4249 -3.5142  0.3062
18817TIP3    H277867   3.148   2.617  14.691  2.4290  0.7178  1.1836
18818TIP3   OH277868   6.139   3.209   3.087 -0.4740 -0.2946 -0.2789
18818TIP3    H177869   6.128   3.300   3.113  1.2266 -0.0268 -0.3864
18818TIP3    H277870   6.071   3.162   3.136 -2.2564  1.1467 -1.2375
18819TIP3   OH277871   2.684   0.077  12.475  0.2366  0.0822 -0.2315
18819TIP3    H177872   2.617   0.009  12.461  0.3224  0.1512 -1.0368
18819TIP3    H277873   2.767   0.030  12.463  0.3369  0.0449  0.5491
18820TIP3   OH277874   6.681   1.962   4.687 -0.4521  0.4969 -0.3378
18820TIP3    H177875   6.712   1.910   4.614 -0.9353 -1.3932  0.7323
18820TIP3    H277876   6.628   1.901   4.739  0.3789  1.5855  1.9060
18821TIP3   OH277877   0.554   2.577  14.382  0.4822  0.2823  0.1338
18821TIP3    H177878   0.518   2.629  14.455  0.0434  1.4161 -0.8546
18821TIP3    H277879   0.563   2.489  14.418 -2.1282  0.2095  0.8301
18822TIP3   OH277880   4.159   4.336  14.365 -0.1173 -0.2325 -0.6492
18822TIP3    H177881   4.123   4.324  14.453 -0.7340  0.5203 -0.7786
18822TIP3    H277882   4.163   4.432  14.354 -0.5502 -0.3053 -1.6231
18823TIP3   OH277883   5.124   2.475  15.583  0.2918  0.0536 -0.6300
18823TIP3    H177884   5.138   2.570  15.582  2.1115 -0.1665 -0.5221
18823TIP3    H277885   5.122   2.450  15.491 -1.7613  0.3549 -0.7051
18824TIP3   OH277886   1.714   4.409  11.616 -0.2304 -0.4208 -0.0261
18824TIP3    H177887   1.643   4.429  11.678 -0.7164 -2.0068 -0.0236
18824TIP3    H277888   1.673   4.417  11.530 -0.4495 -1.4062 -0.0226
18825TIP3   OH277889   5.671   5.984  13.874  0.1672  0.0416  0.1111
18825TIP3    H177890   5.724   5.935  13.938 -0.9468  0.2151  1.2108
18825TIP3    H277891   5.673   6.074  13.907 -1.4640 -0.0900  0.6573
18826TIP3   OH277892   4.674   4.470   0.777 -0.0970  0.1663 -0.4724
18826TIP3    H177893   4.720   4.419   0.843 -1.4211  1.0339  1.2026
18826TIP3    H277894   4.726   4.550   0.768  0.7298 -0.4407 -1.4241
18827TIP3   OH277895   1.955   6.140   2.106 -0.1350  0.6756 -0.1452
18827TIP3    H177896   1.968   6.209   2.040 -0.9019  0.3678 -0.6305
18827TIP3    H277897   2.041   6.100   2.116 -0.0719  0.5183 -1.2019
18828TIP3   OH277898   0.463   4.455   2.711 -0.4023 -0.3940  0.2634
18828TIP3    H177899   0.548   4.431   2.673 -0.3039 -0.5124  0.5529
18828TIP3    H277900   0.470   4.429   2.803  0.1626  1.8020  0.8975
18829TIP3   OH277901   5.020   5.118  16.574 -0.2372 -0.3687  0.1118
18829TIP3    H177902   4.967   5.060  16.519 -0.9486  1.6517 -1.4645
18829TIP3    H277903   5.110   5.085  16.564 -0.6137 -1.1964 -0.7143
18830TIP3   OH277904   2.751   2.026   2.006  0.1854 -0.1960  0.2000
18830TIP3    H177905   2.739   2.065   2.093 -0.5377  2.5209 -1.0113
18830TIP3    H277906   2.664   1.992   1.983  0.0765  0.1830  0.0501
18831TIP3   OH277907   5.356   3.108   5.795 -0.0375 -0.6135  0.4389
18831TIP3    H177908   5.407   3.176   5.750 -1.1659 -0.1231 -0.1253
18831TIP3    H277909   5.315   3.153   5.868 -0.4311 -0.7815  0.3226
18832TIP3   OH277910   2.138   6.103  17.097 -0.0819 -0.3311 -0.3906
18832TIP3    H177911   2.118   6.026  17.150 -0.9602  1.5930  2.3301
18832TIP3    H277912   2.204   6.151  17.147 -1.6509  2.0684 -0.4110
18833TIP3   OH277913   1.260   1.098  14.023 -0.0001 -0.6575  0.4964
18833TIP3    H177914   1.277   1.004  14.028  0.5692 -0.6255 -0.4650
18833TIP3    H277915   1.244   1.114  13.930 -1.2205  0.0166  0.8103
18834TIP3   OH277916   2.849   5.299  12.269  0.1077  0.5079 -0.2155
18834TIP3    H177917   2.922   5.244  12.243  1.0937  1.7654 -0.2133
18834TIP3    H277918   2.859   5.309  12.364 -0.4436  0.1688 -0.1176
18835TIP3   OH277919   3.768   0.400   3.891 -0.7944  0.3393  0.0728
18835TIP3    H177920   3.720   0.431   3.815 -1.5332 -0.1068  0.3511
18835TIP3    H277921   3.706   0.346   3.939 -0.4973  1.0106  1.2618
18836TIP3   OH277922   5.297   0.225  15.998 -0.1829  0.0481  0.7678
18836TIP3    H177923   5.247   0.305  15.981 -1.3543 -0.2704  2.4852
18836TIP3    H277924   5.386   0.247  15.971 -1.0935  0.7493 -2.0601
18837TIP3   OH277925   4.154   4.903  11.586  0.1983  0.0765  0.0191
18837TIP3    H177926   4.096   4.977  11.603 -1.0750 -0.9502  0.2875
18837TIP3    H277927   4.115   4.858  11.511  0.2765 -0.9747  0.5829
18838TIP3   OH277928   0.427   5.933  10.677  0.0888  0.2852 -0.0158
18838TIP3    H177929   0.366   5.969  10.613 -1.1415 -2.6857 -0.7082
18838TIP3    H277930   0.513   5.942  10.636 -0.3617  0.9311 -0.8436
18839TIP3   OH277931   3.388   4.353  13.713  0.1946  1.0486  0.2400
18839TIP3    H177932   3.484   4.354  13.712  0.2809 -1.2606  0.3755
18839TIP3    H277933   3.363   4.444  13.727  2.4003  1.5442  1.3767
18840TIP3   OH277934   1.082   2.293   5.327  0.3116 -0.5413  0.0625
18840TIP3    H177935   1.038   2.373   5.299  0.0295  0.0260  1.9941
18840TIP3    H277936   1.168   2.322   5.356  0.5250 -1.0762 -0.0234
18841TIP3   OH277937   3.481   6.364   2.574 -0.0640  0.8367  0.1405
18841TIP3    H177938   3.410   6.425   2.589  0.3191  0.9032  1.8194
18841TIP3    H277939   3.463   6.291   2.632  3.0293  2.4120  3.4355
18842TIP3   OH277940   4.240   0.999   0.754  0.1135  0.0949 -0.7022
18842TIP3    H177941   4.283   0.978   0.837  2.4323  0.0919 -1.8175
18842TIP3    H277942   4.166   0.938   0.749 -0.4603  0.5346  1.6081
18843TIP3   OH277943   4.324   6.014   1.712  0.2710 -0.0033  0.1296
18843TIP3    H177944   4.271   6.035   1.634  0.0334  0.1293  0.3266
18843TIP3    H277945   4.276   6.052   1.785  0.7044  0.2357  0.2986
18844TIP3   OH277946   4.629   0.505  13.969  0.3310  0.5322  0.2232
18844TIP3    H177947   4.583   0.429  14.005 -2.6056  1.2227 -1.7686
18844TIP3    H277948   4.630   0.568  14.041 -0.3660 -0.1121  0.8162
18845TIP3   OH277949   6.740   5.581   3.008 -0.0290  0.4223  0.1397
18845TIP3    H177950   6.651   5.594   3.040 -0.0058 -0.6199  0.6480
18845TIP3    H277951   6.736   5.503   2.953  0.6146  0.1931  0.3978
18846TIP3   OH277952   1.411   5.168   1.812  0.0163 -0.0737  0.1719
18846TIP3    H177953   1.423   5.114   1.733  0.8917  1.9688 -1.1885
18846TIP3    H277954   1.491   5.152   1.863 -1.7822 -3.6458  2.2396
18847TIP3   OH277955   2.941   1.616  16.989 -0.1096  0.2721 -0.5958
18847TIP3    H177956   2.890   1.696  16.989 -0.1303  0.2695  0.4457
18847TIP3    H277957   2.953   1.595  17.081  0.0392 -0.8323 -0.8521
18848TIP3   OH277958   2.239   5.031  13.712  0.1008 -0.1185 -0.0792
18848TIP3    H177959   2.226   5.002  13.803 -1.9926 -2.0018 -0.8879
18848TIP3    H277960   2.191   5.114  13.707  0.3001  0.0432  0.5470
18849TIP3   OH277961   3.136   0.509  11.288  0.6706  0.2776 -0.0366
18849TIP3    H177962   3.083   0.542  11.360  0.4193 -0.3786  0.0856
18849TIP3    H277963   3.172   0.587  11.247 -1.3456  0.8185 -0.8729
18850TIP3   OH277964   0.102   3.972   0.908  0.5362  0.1516  0.2446
18850TIP3    H177965   0.058   3.922   0.976 -1.3585  2.1824  0.6181
18850TIP3    H277966   0.171   4.020   0.953 -0.8229  1.6245  0.8416
18851TIP3   OH277967   3.227   4.964   4.302  0.2475  0.5208  0.0741
18851TIP3    H177968   3.195   4.946   4.390 -2.5682 -2.4001 -1.3545
18851TIP3    H277969   3.322   4.953   4.309 -0.0478 -1.4254  2.4103
18852TIP3   OH277970   4.610   2.449   0.071  0.3694  0.2786 -0.2261
18852TIP3    H177971   4.623   2.531   0.118  0.6134  0.5985 -0.8510
18852TIP3    H277972   4.593   2.384   0.140  0.6586  0.7553  0.2935
18853TIP3   OH277973   1.619   1.697   0.166 -0.9427  0.5616 -0.0317
18853TIP3    H177974   1.538   1.721   0.121 -0.3070  0.5314 -1.2281
18853TIP3    H277975   1.638   1.771   0.224 -1.7941  0.5854  0.2203
18854TIP3   OH277976   2.281   0.965  10.643  0.1997  0.0266  0.6740
18854TIP3    H177977   2.270   0.879  10.604  1.5879 -0.1000  0.5094
18854TIP3    H277978   2.332   0.949  10.722  2.0324  0.8506 -0.2744
18855TIP3   OH277979   0.141   6.534  16.961 -0.2828  0.2073  0.4875
18855TIP3    H177980   0.198   6.472  17.006 -0.0304  0.0436 -0.0502
18855TIP3    H277981   0.125   6.494  16.875  0.5310  1.2402 -0.1776
18856TIP3   OH277982   4.245   2.749   1.862 -0.1243 -0.0285  0.2190
18856TIP3    H177983   4.184   2.813   1.827  0.1913  0.0316 -0.2332
18856TIP3    H277984   4.189   2.678   1.895 -0.4246 -0.5322 -1.2805
18857TIP3   OH277985   1.587   0.479  13.401 -0.3228 -0.2649 -0.4633
18857TIP3    H177986   1.526   0.545  13.369 -1.0055 -0.5168  0.2837
18857TIP3    H277987   1.533   0.402  13.419  0.0756 -0.2483  0.9494
18858TIP3   OH277988   0.673   3.832   5.361  0.3312  1.7060 -0.1648
18858TIP3    H177989   0.598   3.774   5.373  1.7858 -1.0768 -2.9585
18858TIP3    H277990   0.740   3.797   5.420 -0.4073  4.2056  2.3536
18859TIP3   OH277991   3.760   2.976   4.965 -0.0488 -0.4086 -0.1113
18859TIP3    H177992   3.825   3.030   4.920  0.8369 -0.7484  0.7435
18859TIP3    H277993   3.715   3.036   5.024  0.7737 -0.5342  0.6640
18860TIP3   OH277994   5.075   3.559  13.461  0.2217  0.0326  0.1936
18860TIP3    H177995   5.037   3.569  13.548  0.0147 -1.4285  0.2948
18860TIP3    H277996   5.025   3.488  13.421  1.8477 -0.9178 -0.2302
18861TIP3   OH277997   1.470   3.642  14.082  0.4496  0.7131 -0.1664
18861TIP3    H177998   1.471   3.564  14.027  1.1416 -0.5050  1.5015
18861TIP3    H277999   1.562   3.657  14.105  0.2017  1.3090  0.4946
18862TIP3   OH278000   2.174   0.305  11.614  0.6704  0.0883  0.4571
18862TIP3    H178001   2.166   0.388  11.567 -0.5522 -0.8207 -1.0221
18862TIP3    H278002   2.213   0.245  11.550 -0.4537 -1.0308  0.7902
18863TIP3   OH278003   4.098   0.293   2.850  0.2994  0.1900  0.0990
18863TIP3    H178004   4.032   0.318   2.786 -0.4253  0.2840  0.8678
18863TIP3    H278005   4.064   0.214   2.892  1.3866 -0.6425 -0.5367
18864TIP3   OH278006   3.859   5.305   1.358 -0.0623  0.1609 -0.2113
18864TIP3    H178007   3.842   5.298   1.264 -0.1667  0.7270 -0.2379
18864TIP3    H278008   3.931   5.367   1.365 -1.0819  1.3409  0.1560
18865TIP3   OH278009   3.446   3.666  13.453 -0.4577  0.0915 -0.3966
18865TIP3    H178010   3.433   3.609  13.378 -0.9984 -2.4555  1.5159
18865TIP3    H278011   3.359   3.697  13.476 -0.5997 -0.8705  0.4262
18866TIP3   OH278012   5.487   6.336   0.443 -0.2170 -0.2713 -0.1617
18866TIP3    H178013   5.446   6.406   0.494  0.8854 -0.3241  0.8634
18866TIP3    H278014   5.518   6.274   0.510 -0.0514 -1.1017 -0.9935
18867TIP3   OH278015   0.009   4.768   5.001 -1.0624  0.1985 -0.1067
18867TIP3    H178016   0.087   4.715   5.015 -0.6095 -0.0573 -3.0948
18867TIP3    H278017  -0.049   4.744   5.074  1.2846 -0.1681  1.7503
18868TIP3   OH278018   1.187   4.348  11.993  0.6775  0.0811 -0.3305
18868TIP3    H178019   1.200   4.385  12.080 -1.0100 -2.5848  1.2033
18868TIP3    H278020   1.101   4.382  11.965  1.5413  1.5336 -1.3769
18869TIP3   OH278021   6.733   0.262   4.867 -0.0627  0.0075  0.1497
18869TIP3    H178022   6.744   0.352   4.898  0.2378  0.7301 -1.9119
18869TIP3    H278023   6.774   0.208   4.934 -2.1100  1.1978  2.5088
18870TIP3   OH278024   2.941   5.472   0.298  0.0083 -0.0240  0.3439
18870TIP3    H178025   2.912   5.559   0.271 -0.3453 -0.5644 -1.1358
18870TIP3    H278026   2.996   5.442   0.226  1.2252 -0.5246  1.4290
18871TIP3   OH278027   2.460   5.985   1.070 -0.6974  0.5196 -0.0245
18871TIP3    H178028   2.472   5.992   0.975 -0.6376  0.8608  0.0071
18871TIP3    H278029   2.396   5.915   1.080 -1.2377  0.9580 -0.3547
18872TIP3   OH278030   2.829   5.384  13.665  0.0774  0.3032  0.0824
18872TIP3    H178031   2.888   5.331  13.612 -1.4277 -0.5343 -0.7987
18872TIP3    H278032   2.843   5.473  13.634  2.3870  0.4819  1.3504
18873TIP3   OH278033   0.901   0.508  10.734 -0.4109  0.0168 -0.0851
18873TIP3    H178034   0.995   0.522  10.726 -0.6236  1.2747 -0.5351
18873TIP3    H278035   0.863   0.595  10.732 -1.6782 -0.5223 -1.1293
18874TIP3   OH278036   0.762   6.250   1.707  0.5398 -0.8780  0.7762
18874TIP3    H178037   0.735   6.161   1.728 -0.3043 -0.9288 -0.3861
18874TIP3    H278038   0.696   6.281   1.645  0.1717  0.9783  2.0246
18875TIP3   OH278039   6.556   4.537  15.621 -0.4235  0.2538 -0.1915
18875TIP3    H178040   6.620   4.490  15.674  0.2358  1.5213  0.1678
18875TIP3    H278041   6.574   4.509  15.531  1.0384  1.0041 -0.1623
18876TIP3   OH278042   1.421   0.231  13.940  0.8077  0.3809 -0.1162
18876TIP3    H178043   1.505   0.190  13.959  1.2551  1.5043  0.3530
18876TIP3    H278044   1.391   0.267  14.023  0.3403  0.8730 -0.4862
18877TIP3   OH278045   4.098   4.211   5.121 -0.2399 -0.0367 -0.0020
18877TIP3    H178046   4.137   4.265   5.189  0.4230 -2.1275  1.3597
18877TIP3    H278047   4.173   4.177   5.071 -0.7159  1.6985 -2.0474
18878TIP3   OH278048   1.498   2.027   5.178  0.4718  0.6233  0.1578
18878TIP3    H178049   1.540   1.956   5.129 -1.8081  0.6765 -2.1040
18878TIP3    H278050   1.545   2.106   5.152 -0.3862  0.5799 -1.6809
18879TIP3   OH278051   4.187   1.685  15.984 -0.3001 -0.6983 -0.3146
18879TIP3    H178052   4.208   1.607  15.932 -1.1664 -2.0523  1.2686
18879TIP3    H278053   4.102   1.665  16.024 -0.8146  1.3184 -0.3144
18880TIP3   OH278054   2.953   4.420  11.890  0.6867  0.5963  0.8530
18880TIP3    H178055   3.001   4.473  11.826  0.1617 -0.1118 -0.1669
18880TIP3    H278056   2.991   4.332  11.881 -0.7636  0.0109  0.0074
18881TIP3   OH278057   2.584   1.576  16.556 -0.3208 -0.9205 -0.2206
18881TIP3    H178058   2.646   1.621  16.498 -0.4477  0.4089  0.6452
18881TIP3    H278059   2.626   1.579  16.642 -1.0372 -1.1111  0.1369
18882TIP3   OH278060   0.718   2.571   6.143  0.3154 -0.8501  0.3268
18882TIP3    H178061   0.694   2.663   6.159  0.8444 -0.3548 -1.5289
18882TIP3    H278062   0.802   2.560   6.188  0.1131 -0.5032  0.7914
18883TIP3   OH278063   2.082   0.529  10.830 -0.1460 -0.2135  0.2691
18883TIP3    H178064   2.046   0.578  10.757  1.2027  0.4994  0.0377
18883TIP3    H278065   2.150   0.475  10.791  0.6664  0.2592  0.9892
18884TIP3   OH278066   0.431   0.382  14.595  0.1337 -0.2660  0.6178
18884TIP3    H178067   0.517   0.340  14.590  0.9096  1.3989 -1.7570
18884TIP3    H278068   0.418   0.420  14.508 -1.4736  2.4814  1.9560
18885TIP3   OH278069   2.860   5.352  11.414  0.0383  0.3408  0.1585
18885TIP3    H178070   2.924   5.301  11.365 -2.1388 -2.2682 -0.1815
18885TIP3    H278071   2.797   5.288  11.446 -2.3904  2.7078  0.5272
18886TIP3   OH278072   6.779   1.095  12.189 -0.2450 -0.2021  0.1431
18886TIP3    H178073   6.837   1.043  12.246  1.1406  1.1579  0.0366
18886TIP3    H278074   6.815   1.083  12.101  0.6448  1.5445  0.2161
18887TIP3   OH278075   2.759   1.095  11.816 -0.1036  0.2602 -0.3532
18887TIP3    H178076   2.818   1.166  11.789 -1.6388  2.2399  1.1879
18887TIP3    H278077   2.671   1.130  11.803 -0.9177 -1.4633  0.2471
18888TIP3   OH278078   6.104   0.578  15.204 -0.0380 -0.5197  0.1087
18888TIP3    H178079   6.021   0.610  15.169  0.0845 -0.0643  0.2289
18888TIP3    H278080   6.085   0.488  15.232 -0.5516 -0.3435  0.3435
18889TIP3   OH278081   5.200   2.411  16.310 -0.0817  0.1417 -0.1560
18889TIP3    H178082   5.213   2.398  16.216 -1.0561  1.7845 -0.5645
18889TIP3    H278083   5.258   2.483  16.333  0.8589 -0.8580  0.7394
18890TIP3   OH278084   3.376   1.675   0.269  0.2398  0.1384  0.4744
18890TIP3    H178085   3.403   1.700   0.180 -2.3147 -1.2547 -0.8058
18890TIP3    H278086   3.404   1.584   0.277  2.9907  1.0337  2.2961
18891TIP3   OH278087   1.257   3.490   3.860 -0.3258  0.0220 -0.3969
18891TIP3    H178088   1.340   3.472   3.815 -0.9744  0.3295 -1.7588
18891TIP3    H278089   1.215   3.405   3.867 -0.8780  0.1679 -1.7344
18892TIP3   OH278090   4.560   4.139  13.062  0.0354 -0.5541 -0.2885
18892TIP3    H178091   4.520   4.213  13.016 -0.5000 -0.0060  1.0258
18892TIP3    H278092   4.497   4.068  13.052  0.0354 -0.5107 -0.6031
18893TIP3   OH278093   6.354   0.873   0.552 -0.1016 -0.1243 -0.2045
18893TIP3    H178094   6.427   0.816   0.578 -0.3223 -0.3098  0.0154
18893TIP3    H278095   6.319   0.907   0.634  0.7117  1.2072 -0.3858
18894TIP3   OH278096   5.184   1.304   4.903 -0.0496  0.1970 -0.7383
18894TIP3    H178097   5.164   1.211   4.914 -4.1711  0.7482 -1.9669
18894TIP3    H278098   5.179   1.340   4.991 -0.8707 -0.3708 -0.5442
18895TIP3   OH278099   0.820   5.589   3.572  0.0430 -0.4313  0.2644
18895TIP3    H178100   0.764   5.617   3.499  0.5242 -0.6861 -0.2121
18895TIP3    H278101   0.782   5.631   3.649  1.3906  2.5812 -0.5435
18896TIP3   OH278102   3.488   3.526  12.305 -0.1626  0.4635 -0.2670
18896TIP3    H178103   3.570   3.549  12.349  1.1792 -3.6736 -0.2042
18896TIP3    H278104   3.507   3.535  12.212  0.0358  0.4723 -0.2269
18897TIP3   OH278105   2.072   1.485  14.993 -0.0212  0.2973 -0.1288
18897TIP3    H178106   2.040   1.575  14.999 -0.0356  0.3138 -0.4552
18897TIP3    H278107   2.165   1.491  15.014  0.2000  0.5342 -1.1628
18898TIP3   OH278108   2.442   3.189   2.886  0.6618  0.0825  0.5878
18898TIP3    H178109   2.375   3.225   2.943 -0.4548 -0.4476 -0.3526
18898TIP3    H278110   2.469   3.108   2.929 -1.0166 -0.9223 -0.1802
18899TIP3   OH278111   6.519   0.936  12.115 -0.1811 -0.3083 -0.4351
18899TIP3    H178112   6.448   0.999  12.098 -1.0883 -1.3976 -0.8202
18899TIP3    H278113   6.577   0.981  12.176 -1.0111  0.7535 -0.3950
18900TIP3   OH278114   2.782   4.698  17.001  0.4708 -0.3615 -0.0600
18900TIP3    H178115   2.721   4.749  17.053 -0.2699 -1.1625 -0.1172
18900TIP3    H278116   2.728   4.652  16.937  0.7413 -3.0090  1.4280
18901TIP3   OH278117   6.217   0.899   5.287  1.2668  0.0832 -0.0534
18901TIP3    H178118   6.188   0.823   5.236  1.1044 -1.6057  2.3902
18901TIP3    H278119   6.313   0.894   5.285  1.3800 -2.5876  3.1558
18902TIP3   OH278120   2.407   4.307   2.017 -1.0132 -0.4802 -0.7356
18902TIP3    H178121   2.454   4.251   2.079  1.3723  2.3016  0.1870
18902TIP3    H278122   2.324   4.328   2.060 -0.6725 -0.9729  0.1628
18903TIP3   OH278123   0.496   6.325  16.987  0.0737  0.2890  0.0750
18903TIP3    H178124   0.403   6.344  17.005  0.0299  1.3615 -1.1257
18903TIP3    H278125   0.535   6.411  16.975  1.5406 -0.0692  1.8273
18904TIP3   OH278126   0.247   5.325  15.614  0.6749  0.4162 -0.1977
18904TIP3    H178127   0.177   5.260  15.614 -0.3496  1.4737  0.2297
18904TIP3    H278128   0.205   5.406  15.587  2.5167  0.3943 -3.7101
18905TIP3   OH278129   6.371   5.333   2.401  0.8390 -0.1201  0.3538
18905TIP3    H178130   6.375   5.313   2.307  0.2374 -1.3143  0.5633
18905TIP3    H278131   6.462   5.333   2.430  1.0935  1.0756 -0.3744
18906TIP3   OH278132   2.158   4.893  14.254  0.4085  0.2911 -0.1680
18906TIP3    H178133   2.090   4.829  14.233  0.6416  0.0014 -0.0576
18906TIP3    H278134   2.232   4.868  14.199 -0.1114  1.6265 -1.5370
18907TIP3   OH278135   3.328   1.075   4.630  0.1642 -0.0762  0.3644
18907TIP3    H178136   3.313   1.018   4.705  0.5641 -0.6897 -0.0133
18907TIP3    H278137   3.356   1.016   4.560 -1.1142  0.3627 -0.5440
18908TIP3   OH278138   5.289   0.795   3.164 -0.4697  0.4549 -0.1821
18908TIP3    H178139   5.348   0.858   3.206 -1.8852  1.1394  0.8756
18908TIP3    H278140   5.241   0.847   3.100 -3.4875  1.1920  2.4488
18909TIP3   OH278141   3.335   0.620  11.994  0.3700 -0.2241 -0.0664
18909TIP3    H178142   3.363   0.587  11.909  0.4301  1.3264 -0.6806
18909TIP3    H278143   3.380   0.565  12.058  0.4772 -1.2791 -1.0357
18910TIP3   OH278144   3.307   3.980  14.185 -0.6182  0.7845 -0.3263
18910TIP3    H178145   3.402   3.983  14.194 -0.5601 -1.9768  0.8456
18910TIP3    H278146   3.276   3.946  14.268 -2.6973  1.8609 -0.6057
18911TIP3   OH278147   5.770   2.111   1.015  0.1137  0.2487  0.2406
18911TIP3    H178148   5.701   2.175   0.998  0.0151 -0.1212 -0.8000
18911TIP3    H278149   5.759   2.044   0.947  0.6187 -0.5461  0.9134
18912TIP3   OH278150   2.828   5.560   5.164 -0.2612  0.0744  0.1177
18912TIP3    H178151   2.869   5.474   5.176  0.7905  0.4424 -0.6399
18912TIP3    H278152   2.863   5.613   5.236 -0.3582  0.0489  0.1824
18913TIP3   OH278153   2.866   2.310  12.867 -0.7453 -0.0445 -0.3430
18913TIP3    H178154   2.833   2.399  12.880  1.4190  0.8139 -0.3211
18913TIP3    H278155   2.885   2.279  12.956  2.9502  1.3664 -0.4543
18914TIP3   OH278156   0.001   3.319  10.994 -0.2151 -0.1952  0.1413
18914TIP3    H178157   0.054   3.314  11.074 -0.2356 -0.2750  0.1497
18914TIP3    H278158  -0.018   3.228  10.972 -0.6463 -0.1542  0.3388
18915TIP3   OH278159   4.690   3.253   3.020 -0.4391  0.3285 -0.1543
18915TIP3    H178160   4.644   3.229   2.939 -0.8904  0.9964 -0.0985
18915TIP3    H278161   4.713   3.345   3.008  0.0552  0.2534  0.2144
18916TIP3   OH278162   4.439   2.285   0.396 -0.3626 -0.0705 -0.2990
18916TIP3    H178163   4.359   2.329   0.369 -0.8450 -0.9692 -0.3841
18916TIP3    H278164   4.410   2.199   0.427  0.2462  0.5610  2.2646
18917TIP3   OH278165   5.219   2.031   0.501 -0.1010 -0.0972  0.4877
18917TIP3    H178166   5.308   2.046   0.469 -0.0569 -1.9584 -0.4097
18917TIP3    H278167   5.229   2.010   0.594  0.3545  0.0986  0.4822
18918TIP3   OH278168   5.632   6.590   5.163 -0.0761  0.1889  0.0075
18918TIP3    H178169   5.597   6.502   5.177 -1.0063  0.8399  2.1788
18918TIP3    H278170   5.687   6.606   5.240 -0.6491  1.8223  0.1154
18919TIP3   OH278171   0.063   4.707  17.065  0.0408  0.1976 -0.1290
18919TIP3    H178172  -0.016   4.733  17.017 -1.7170  0.3336  2.6002
18919TIP3    H278173   0.113   4.788  17.074  1.1399 -0.0848 -2.7908
18920TIP3   OH278174   2.424   5.436   4.002 -0.5027  0.6184 -0.3650
18920TIP3    H178175   2.435   5.522   4.042  0.3666  0.2593  0.1903
18920TIP3    H278176   2.465   5.375   4.064 -0.8074 -0.1616 -0.9107
18921TIP3   OH278177   4.043   5.168  10.107 -0.0877 -0.3611 -0.1292
18921TIP3    H178178   3.954   5.173  10.142  0.1411  0.8764  0.3345
18921TIP3    H278179   4.097   5.142  10.182 -0.0479 -1.2128 -0.4327
18922TIP3   OH278180   3.388   4.091  17.010 -0.3737 -0.9432 -0.1631
18922TIP3    H178181   3.370   4.176  17.048 -0.1221 -1.3281  0.8508
18922TIP3    H278182   3.428   4.110  16.925  1.8382  0.0091  1.0194
18923TIP3   OH278183   3.582   2.808   5.710 -0.6509 -0.3857 -0.8831
18923TIP3    H178184   3.533   2.829   5.790 -0.4142 -2.0053 -0.2617
18923TIP3    H278185   3.622   2.890   5.683 -2.2741  0.6016 -0.4090
18924TIP3   OH278186   2.997   2.772  11.997 -0.1572  0.6649  0.3143
18924TIP3    H178187   2.937   2.711  12.040 -0.2021 -0.3727 -1.1556
18924TIP3    H278188   3.080   2.761  12.043 -0.3589  0.0507  0.5383
18925TIP3   OH278189   0.923   1.228  12.020  0.1604 -0.0457 -0.1830
18925TIP3    H178190   1.014   1.237  12.045 -0.7370  0.5172  3.4618
18925TIP3    H278191   0.897   1.315  11.991  0.9958 -0.4905 -2.4646
18926TIP3   OH278192   3.343   5.714   1.794 -0.5997  0.2158  0.3873
18926TIP3    H178193   3.436   5.730   1.774 -0.4251 -0.3403  0.7303
18926TIP3    H278194   3.324   5.776   1.865 -0.3934  0.0963  0.5491
18927TIP3   OH278195   5.372   1.265   5.350 -0.0118  0.5716  0.1346
18927TIP3    H178196   5.422   1.343   5.369 -0.6962  1.4027 -1.2610
18927TIP3    H278197   5.437   1.197   5.334  0.5881  0.3900  2.8715
18928TIP3   OH278198   0.735   3.201   0.308 -0.2498  0.2183 -0.1704
18928TIP3    H178199   0.781   3.215   0.390 -1.3232  2.5907  0.1206
18928TIP3    H278200   0.693   3.116   0.318  1.9043 -0.8446  0.5425
18929TIP3   OH278201   0.855   6.628  13.005  0.1119  0.0394 -0.6297
18929TIP3    H178202   0.768   6.654  12.976 -0.5160 -0.6429  0.5967
18929TIP3    H278203   0.854   6.640  13.100  0.9338 -1.1533 -0.4454
18930TIP3   OH278204   3.141   6.632   5.502  0.1104  0.1302  0.3482
18930TIP3    H178205   3.158   6.559   5.562 -0.7958 -0.0288  0.4276
18930TIP3    H278206   3.227   6.655   5.467  0.5282 -0.3721  1.0200
18931TIP3   OH278207   6.644   4.536   4.293  0.2137  0.1777 -0.9514
18931TIP3    H178208   6.736   4.551   4.311  0.2928  1.4729 -2.2009
18931TIP3    H278209   6.642   4.497   4.205 -0.4227  0.4153 -1.0548
18932TIP3   OH278210   5.747   5.573  15.391 -0.7182  0.0210 -0.0084
18932TIP3    H178211   5.657   5.558  15.422 -0.3096 -0.5904  0.9169
18932TIP3    H278212   5.802   5.541  15.462  0.2359  1.4816 -0.0451
18933TIP3   OH278213   2.194   5.020  15.849 -0.2405  0.2946 -0.2001
18933TIP3    H178214   2.205   5.096  15.791  0.6911  2.2345  2.2909
18933TIP3    H278215   2.104   4.992  15.837 -0.4549  1.4891 -1.5743
18934TIP3   OH278216   6.574   2.018  13.877 -0.2607 -0.1041  0.3006
18934TIP3    H178217   6.577   1.962  13.954  0.7046  0.3261  0.5977
18934TIP3    H278218   6.568   2.107  13.913  0.8074  0.1411 -0.0879
18935TIP3   OH278219   1.519   6.295  15.690  0.0667 -0.1540 -0.4914
18935TIP3    H178220   1.429   6.297  15.658 -0.4654 -1.6293  0.7932
18935TIP3    H278221   1.525   6.368  15.751 -0.9381 -1.2815  1.0165
18936TIP3   OH278222   4.703   0.742   4.651 -0.8930 -0.1309 -0.7089
18936TIP3    H178223   4.785   0.770   4.610 -0.5891  2.1580  1.2572
18936TIP3    H278224   4.638   0.805   4.618 -1.5931 -1.0567 -1.1362
18937TIP3   OH278225   4.178   1.722  15.122  0.0162 -0.5064 -0.1954
18937TIP3    H178226   4.261   1.769  15.132 -0.4097  0.3049 -0.4260
18937TIP3    H278227   4.197   1.654  15.056  0.2859  0.2079 -0.8739
18938TIP3   OH278228   4.878   6.344  16.190 -0.1240 -0.1303 -0.0402
18938TIP3    H178229   4.865   6.305  16.103  0.7148 -0.2742 -0.1110
18938TIP3    H278230   4.953   6.403  16.178 -2.0698  2.4527 -0.2348
18939TIP3   OH278231   6.325   3.661  11.217  0.6943  0.3712  0.4439
18939TIP3    H178232   6.387   3.732  11.200  1.7660 -0.4824  0.6863
18939TIP3    H278233   6.379   3.589  11.249 -0.2938 -0.7396 -0.2827
18940TIP3   OH278234   5.043   2.352   2.155 -0.2178  0.4535  0.5387
18940TIP3    H178235   4.970   2.391   2.107  1.0380  1.3585 -0.7045
18940TIP3    H278236   5.109   2.421   2.159  1.1553 -0.7934  0.3169
18941TIP3   OH278237   0.366   3.567  11.594  0.1314 -0.1573 -0.2869
18941TIP3    H178238   0.440   3.627  11.608 -1.3530  1.3499  1.7651
18941TIP3    H278239   0.401   3.481  11.614  1.7800  0.2533 -1.1703
18942TIP3   OH278240   0.085   2.574  13.399 -0.6384  0.4030 -0.1514
18942TIP3    H178241   0.026   2.641  13.434  0.2758  0.6590  0.9587
18942TIP3    H278242   0.051   2.556  13.311 -4.0603 -1.4898  1.3406
18943TIP3   OH278243   0.188   4.232  15.089  0.1528 -0.3338 -0.6056
18943TIP3    H178244   0.284   4.224  15.084  0.5286  1.6347  1.5339
18943TIP3    H278245   0.158   4.147  15.121  1.1998 -0.9164 -1.1217
18944TIP3   OH278246   5.298   5.615  16.184 -0.0275 -0.3624 -0.3960
18944TIP3    H178247   5.368   5.680  16.192 -1.3900  1.0831  0.3533
18944TIP3    H278248   5.340   5.539  16.143  2.2264  0.0003  1.0703
18945TIP3   OH278249   1.480   2.192   6.375  0.2261  0.1556 -0.2115
18945TIP3    H178250   1.514   2.110   6.339  1.4513  0.5302  0.0394
18945TIP3    H278251   1.532   2.207   6.455 -1.7805 -0.1789  1.2361
18946TIP3   OH278252   4.971   5.178  14.055 -0.2765 -0.0716  0.3097
18946TIP3    H178253   4.904   5.123  14.015  0.2070  1.0775 -2.3102
18946TIP3    H278254   5.011   5.124  14.123 -1.5373 -1.9915 -0.4248
18947TIP3   OH278255   5.794   5.936  14.575 -0.0846 -0.4121 -0.0854
18947TIP3    H178256   5.729   5.912  14.640 -0.6871  2.0381  0.3387
18947TIP3    H278257   5.765   5.894  14.494 -1.5887 -0.2342  0.3421
18948TIP3   OH278258   4.035   6.507  13.512  0.0737  0.3521 -0.1967
18948TIP3    H178259   4.074   6.498  13.599  0.1133 -1.0623 -0.3492
18948TIP3    H278260   4.094   6.460  13.453 -1.6949 -1.7244 -0.4446
18949TIP3   OH278261   2.124   3.775   1.035 -0.2547 -0.9070  0.5202
18949TIP3    H178262   2.065   3.814   1.100 -0.1162 -1.9715  1.3221
18949TIP3    H278263   2.169   3.849   0.996  1.1456 -0.2714  3.0821
18950TIP3   OH278264   0.812   2.230  10.438  0.1550 -0.3274 -0.1957
18950TIP3    H178265   0.733   2.176  10.441 -0.2046  0.2339  0.6921
18950TIP3    H278266   0.781   2.317  10.415  0.3780  0.1175  1.1101
18951TIP3   OH278267   2.326   1.428  15.379  0.5720 -0.2370  0.0075
18951TIP3    H178268   2.362   1.419  15.468  0.4717  0.5985  0.1361
18951TIP3    H278269   2.280   1.346  15.364  1.7297 -0.9585  0.2012
18952TIP3   OH278270   2.114   1.671   2.665  0.0161  0.4887  0.0895
18952TIP3    H178271   2.055   1.710   2.601  1.1294  0.7841 -0.7737
18952TIP3    H278272   2.056   1.626   2.726 -1.0997  0.7574 -0.7453
18953TIP3   OH278273   0.753   3.369   2.413  0.5445 -0.1111  0.2594
18953TIP3    H178274   0.678   3.330   2.369 -0.9349  2.7648 -0.0187
18953TIP3    H278275   0.757   3.325   2.498 -2.6242  0.7636  1.0144
18954TIP3   OH278276   4.072   4.910   2.722 -0.0555 -0.3586 -0.2619
18954TIP3    H178277   4.040   5.000   2.721 -0.7888 -0.5951  0.5272
18954TIP3    H278278   4.116   4.901   2.806  0.2609 -0.6586 -0.4570
18955TIP3   OH278279   5.011   3.920   5.136 -0.1517  0.5363  0.3221
18955TIP3    H178280   4.922   3.930   5.102  0.3210 -0.3003 -1.2492
18955TIP3    H278281   5.004   3.848   5.199 -0.5169  0.1899 -0.1042
18956TIP3   OH278282   3.392   4.344  17.141  0.8440  0.0590  0.4533
18956TIP3    H178283   3.373   4.323  17.232  1.4115  1.3878  0.9098
18956TIP3    H278284   3.412   4.438  17.142 -0.7851  0.4976 -1.2965
18957TIP3   OH278285   6.361   5.893  12.091  0.1023 -0.4947  0.0470
18957TIP3    H178286   6.396   5.945  12.019  1.1632  0.2749  1.0851
18957TIP3    H278287   6.435   5.878  12.149 -0.1592 -3.2471 -0.2091
18958TIP3   OH278288   3.057   4.220  11.153 -0.2349 -0.0840  0.1132
18958TIP3    H178289   3.039   4.144  11.208 -0.5074 -0.0399  0.0873
18958TIP3    H278290   3.096   4.184  11.074  0.6657 -0.1028  0.5516
18959TIP3   OH278291   0.010   2.266  16.826 -0.3340 -0.2016 -0.3682
18959TIP3    H178292  -0.024   2.351  16.799  0.0062  0.0837  0.0833
18959TIP3    H278293  -0.027   2.204  16.762  0.6019  0.4686 -1.6001
18960TIP3   OH278294   3.385   0.508  15.461 -0.1454 -0.2268 -0.2245
18960TIP3    H178295   3.422   0.437  15.514 -2.7159 -3.4475 -2.3637
18960TIP3    H278296   3.461   0.548  15.418  1.3459 -2.5833  0.0420
18961TIP3   OH278297   3.841   6.291   0.779  0.3981 -0.9062  0.1126
18961TIP3    H178298   3.936   6.281   0.774  0.7088  0.3994  1.9781
18961TIP3    H278299   3.815   6.230   0.848  0.2134  0.1984  1.0517
18962TIP3   OH278300   1.572   6.266  15.418 -0.1246  0.1240  0.2035
18962TIP3    H178301   1.518   6.191  15.394 -0.1995 -0.1435  1.1813
18962TIP3    H278302   1.560   6.276  15.512  1.1262  0.3880  0.3537
18963TIP3   OH278303   1.377   4.286  16.595 -0.4560  0.3138 -1.0639
18963TIP3    H178304   1.317   4.229  16.547 -1.3101 -0.6770  1.0827
18963TIP3    H278305   1.407   4.233  16.669  0.4581  1.9376 -0.2137
18964TIP3   OH278306   5.619   2.235   4.007 -0.1706 -0.2818 -0.0304
18964TIP3    H178307   5.620   2.312   4.065  0.0042 -0.2539 -0.0701
18964TIP3    H278308   5.689   2.251   3.944  0.6724 -1.0217  0.6897
18965TIP3   OH278309   0.901   6.250  12.795  0.5648  0.4220 -0.0574
18965TIP3    H178310   0.810   6.257  12.766  0.8697  1.1902 -0.8689
18965TIP3    H278311   0.906   6.309  12.870  0.0627 -0.6999  0.9032
18966TIP3   OH278312   5.517   4.929  16.080  0.0576  0.3586  0.0228
18966TIP3    H178313   5.576   4.866  16.120  0.2731  0.3765 -0.2616
18966TIP3    H278314   5.437   4.880  16.063 -0.5542  0.6805  1.7190
18967TIP3   OH278315   3.549   5.050   1.793 -0.0345 -0.1832  0.3401
18967TIP3    H178316   3.495   5.080   1.720  0.2250 -0.8157 -0.1286
18967TIP3    H278317   3.516   5.097   1.869  1.0573  2.1261 -0.5091
18968TIP3   OH278318   2.419   3.443  16.432  0.4822  0.0232 -1.0292
18968TIP3    H178319   2.473   3.489  16.496  0.3515 -0.6679 -0.4109
18968TIP3    H278320   2.397   3.360  16.474 -2.0626  0.7470 -0.7429
18969TIP3   OH278321   1.176   5.385   5.807  0.3250 -0.1268 -0.7232
18969TIP3    H178322   1.180   5.317   5.740  0.7015  0.9695 -1.8461
18969TIP3    H278323   1.085   5.384   5.837  0.1912 -0.7290 -1.1389
18970TIP3   OH278324   1.566   6.688  13.164 -0.1884  0.5372  0.5090
18970TIP3    H178325   1.635   6.753  13.173 -1.8787  2.4038  0.5333
18970TIP3    H278326   1.543   6.665  13.254 -0.0501  0.3701  0.5051
18971TIP3   OH278327   2.953   6.774  16.589 -0.7637  0.5070 -0.3137
18971TIP3    H178328   2.935   6.859  16.548  2.7598  1.3074 -0.5075
18971TIP3    H278329   3.007   6.795  16.665 -0.4664 -1.5292  0.0971
18972TIP3   OH278330   0.654   2.780   5.848  0.2192  0.1790  0.4408
18972TIP3    H178331   0.629   2.689   5.861  2.0272 -0.3085  0.7106
18972TIP3    H278332   0.650   2.819   5.935  1.2251 -0.1400  0.6448
18973TIP3   OH278333   0.839   1.483  11.952  0.2613 -0.1267  0.1473
18973TIP3    H178334   0.900   1.533  11.898 -1.1543  0.6201 -0.7952
18973TIP3    H278335   0.764   1.540  11.964  0.2511 -0.4967  2.4279
18974TIP3   OH278336   1.038   4.829  11.054 -0.5637  0.2074  0.1600
18974TIP3    H178337   1.131   4.828  11.031 -0.4925  2.3916  0.0738
18974TIP3    H278338   1.000   4.755  11.006  1.2142 -1.1484  0.7463
18975TIP3   OH278339   6.791   6.770   4.228  0.1874 -0.2225  0.1893
18975TIP3    H178340   6.785   6.692   4.174 -0.2924  0.3193 -0.5597
18975TIP3    H278341   6.736   6.835   4.184  0.7992  0.6325  0.6371
18976TIP3   OH278342   1.006   1.391  11.426 -0.0550 -0.3180 -0.2449
18976TIP3    H178343   1.008   1.411  11.519  0.3445 -0.0074 -0.3155
18976TIP3    H278344   1.032   1.473  11.384 -0.3817 -0.4122 -0.6333
18977TIP3   OH278345   5.765   2.984   0.709 -0.1468  0.8176  0.8949
18977TIP3    H178346   5.687   2.930   0.720  0.5814 -0.4269  0.2074
18977TIP3    H278347   5.808   2.950   0.631  1.6703  0.7198  1.8678
18978TIP3   OH278348   3.358   0.072   3.412  0.0141 -0.2948  0.3400
18978TIP3    H178349   3.324   0.117   3.335  1.0763 -0.4432 -0.2430
18978TIP3    H278350   3.389   0.142   3.469  0.0676 -0.2182  0.2165
18979TIP3   OH278351   1.784   2.332  11.159 -0.1644 -0.2817  0.3396
18979TIP3    H178352   1.806   2.278  11.083  1.2962 -0.8395  1.1227
18979TIP3    H278353   1.856   2.395  11.164 -0.6962  0.2968  0.7644
18980TIP3   OH278354   1.387   5.422  11.706 -0.2345  0.1999 -0.1589
18980TIP3    H178355   1.441   5.404  11.629 -0.1424  0.4081 -0.1444
18980TIP3    H278356   1.362   5.336  11.739 -0.4618  0.1099 -0.5526
18981TIP3   OH278357   0.344   2.702   5.723  0.3215 -0.3633 -0.3501
18981TIP3    H178358   0.257   2.742   5.715 -0.3107 -1.7259 -0.5702
18981TIP3    H278359   0.355   2.686   5.816  0.8952  0.9882 -0.1773
18982TIP3   OH278360   1.545   0.713   1.440 -0.3445  0.1246  0.0878
18982TIP3    H178361   1.544   0.765   1.360 -2.0044 -1.0271 -0.7088
18982TIP3    H278362   1.531   0.777   1.510 -1.1217  0.9080 -0.7468
18983TIP3   OH278363   0.503   0.009   0.484  0.1794 -0.0478  0.5878
18983TIP3    H178364   0.505   0.095   0.525 -1.2833  0.8621 -1.0711
18983TIP3    H278365   0.445  -0.043   0.540 -2.4631  1.4184 -0.5675
18984TIP3   OH278366   0.934   1.698   3.857  0.1527 -0.1620 -0.1798
18984TIP3    H178367   1.027   1.723   3.857  0.1264  0.1376  1.7501
18984TIP3    H278368   0.935   1.603   3.861  0.4642 -0.1202  1.7829
18985TIP3   OH278369   2.292   1.910  13.372  0.3225  0.3941 -0.1399
18985TIP3    H178370   2.251   1.829  13.403  0.4877 -0.2859 -1.6078
18985TIP3    H278371   2.219   1.966  13.347  0.2173  0.5769  0.5505
18986TIP3   OH278372   2.360   0.930   3.238 -0.1628  0.4001  0.4455
18986TIP3    H178373   2.380   0.979   3.318  0.4387 -0.5360  0.8870
18986TIP3    H278374   2.332   0.844   3.269 -0.0769  0.0817 -0.3406
18987TIP3   OH278375   1.919   3.950   5.153 -0.4469  0.4007  0.0737
18987TIP3    H178376   1.835   3.906   5.137 -0.3494 -0.4732  1.6580
18987TIP3    H278377   1.910   4.036   5.112 -2.8508  1.0424  1.7142
18988TIP3   OH278378   1.747   1.075   1.324 -0.0885  0.3328 -0.2661
18988TIP3    H178379   1.749   1.031   1.239 -0.2755  0.6796 -0.4503
18988TIP3    H278380   1.773   1.007   1.386  1.5155  0.4493 -0.7535
18989TIP3   OH278381   3.230   3.432  11.716 -0.0073  0.2016 -0.2670
18989TIP3    H178382   3.276   3.469  11.791 -0.0571 -1.8358  0.8244
18989TIP3    H278383   3.298   3.416  11.651  0.1250  1.4217 -0.4434
18990TIP3   OH278384   6.038   2.754  13.704  0.3673 -0.3490 -0.1688
18990TIP3    H178385   6.063   2.772  13.614 -1.4558 -1.5303 -0.9801
18990TIP3    H278386   5.947   2.783  13.710  0.8704  1.0566  1.7559
18991TIP3   OH278387   4.422   1.796   1.370  0.4802  0.0324 -0.2471
18991TIP3    H178388   4.330   1.772   1.383  0.8951 -1.2815  0.5167
18991TIP3    H278389   4.434   1.791   1.275 -0.4592  1.1770 -0.4518
18992TIP3   OH278390   6.309   4.804   0.913 -0.4299  0.1199 -0.1631
18992TIP3    H178391   6.228   4.799   0.863 -0.1683  1.3439 -0.7517
18992TIP3    H278392   6.343   4.892   0.895  2.3905 -1.2237 -2.1056
18993TIP3   OH278393   3.936   1.994  14.601  0.5107  0.2895  0.0047
18993TIP3    H178394   4.013   2.029  14.646 -0.1024  2.6578 -0.6815
18993TIP3    H278395   3.870   1.984  14.670  1.4872 -2.2941  0.7077
18994TIP3   OH278396   4.176   0.933  16.872  0.0428 -0.8434 -0.0366
18994TIP3    H178397   4.189   0.959  16.781 -1.6452  0.7826  0.1258
18994TIP3    H278398   4.117   0.857  16.867 -0.6518 -0.2957 -0.2885
18995TIP3   OH278399   1.889   3.786  11.355  0.1406 -0.3335 -0.1134
18995TIP3    H178400   1.984   3.785  11.363  0.1585 -0.6544 -0.3264
18995TIP3    H278401   1.870   3.724  11.284 -0.3274 -1.8262  1.2504
18996TIP3   OH278402   2.013   6.612   1.515 -0.2032  0.2139 -0.1425
18996TIP3    H178403   2.045   6.665   1.588 -0.1929  0.8621 -0.6054
18996TIP3    H278404   2.062   6.530   1.522  2.1102  1.3985 -1.1984
18997TIP3   OH278405   2.396   0.440  12.917  0.2626  0.0472  0.1727
18997TIP3    H178406   2.301   0.448  12.908  0.3045  0.7593  0.2518
18997TIP3    H278407   2.425   0.529  12.938  0.7398 -0.5421  2.1379
18998TIP3   OH278408   4.972   4.236  12.855 -0.1573 -0.2222  0.0728
18998TIP3    H178409   4.918   4.279  12.788  1.2290  2.4028  0.5052
18998TIP3    H278410   5.061   4.240  12.821  0.6151  1.3439  2.0758
18999TIP3   OH278411   2.058   2.157   2.126 -0.2043  0.3891 -0.1463
18999TIP3    H178412   2.000   2.126   2.056  1.0296 -1.2313 -0.5164
18999TIP3    H278413   2.009   2.141   2.207 -0.1274 -1.4468 -0.4204
19000TIP3   OH278414   4.892   5.759   4.929 -0.0525 -0.3888 -0.1421
19000TIP3    H178415   4.860   5.781   5.017  0.2495  0.0957 -0.1488
19000TIP3    H278416   4.890   5.664   4.926  1.9215 -0.5466  1.1654
19001TIP3   OH278417   2.886   1.435   5.774 -0.0352  0.0308 -0.0617
19001TIP3    H178418   2.950   1.503   5.794  0.2189 -0.4365  0.8101
19001TIP3    H278419   2.860   1.401   5.860  1.8101 -2.7590 -0.4862
19002TIP3   OH278420   5.715   1.518   0.489  0.8002 -0.4063  0.3198
19002TIP3    H178421   5.714   1.432   0.447  1.1285 -0.3279  0.1465
19002TIP3    H278422   5.808   1.538   0.501  0.7709  0.4707 -0.7764
19003TIP3   OH278423   3.808   0.381   2.288  0.1836  0.0162 -0.0280
19003TIP3    H178424   3.883   0.383   2.347  0.8926  1.3449 -0.9244
19003TIP3    H278425   3.843   0.408   2.203 -1.1866  0.0230 -0.6189
19004TIP3   OH278426   0.042   5.172  14.458 -0.4168  0.0985 -0.5377
19004TIP3    H178427   0.003   5.124  14.385 -0.7239  0.8441 -0.8723
19004TIP3    H278428  -0.032   5.211  14.504 -0.1678  0.3243 -0.3232
19005TIP3   OH278429   5.957   4.549  14.261  0.0760  0.2323 -0.0619
19005TIP3    H178430   6.010   4.620  14.297 -1.1418  1.2368 -0.1725
19005TIP3    H278431   5.992   4.470  14.302  0.5416  1.0476  1.1977
19006TIP3   OH278432   6.721   6.262   1.786  0.0073  0.1403 -0.2149
19006TIP3    H178433   6.638   6.306   1.806 -0.0460  0.0707 -0.2824
19006TIP3    H278434   6.775   6.330   1.747 -0.5498 -0.1674 -1.5979
19007TIP3   OH278435   2.204   3.609  16.366  0.3018 -0.2797  0.3323
19007TIP3    H178436   2.209   3.659  16.448  1.9344  0.7686 -0.3591
19007TIP3    H278437   2.263   3.535  16.379  2.3699  1.1028 -0.6258
19008TIP3   OH278438   0.589   1.806   3.453  0.1864 -0.1118  0.3023
19008TIP3    H178439   0.565   1.714   3.442  2.1861 -0.6315 -0.1449
19008TIP3    H278440   0.652   1.805   3.526  0.4816  0.8518  0.0717
19009TIP3   OH278441   5.570   5.633   2.943  0.2682 -0.2250 -0.2786
19009TIP3    H178442   5.543   5.706   2.888  0.8131  0.9145  0.9116
19009TIP3    H278443   5.531   5.651   3.028  1.4355 -0.6516  0.3795
19010TIP3   OH278444   3.349   0.078   2.707 -0.1449  0.0203  0.0850
19010TIP3    H178445   3.307   0.160   2.731 -0.9472 -0.5470  0.6840
19010TIP3    H278446   3.300   0.046   2.631 -0.8031 -0.6227  0.7596
19011TIP3   OH278447   0.136   4.634  13.441  0.2816 -0.1356 -0.6514
19011TIP3    H178448   0.132   4.672  13.528 -1.0153 -0.6164 -0.4707
19011TIP3    H278449   0.113   4.706  13.382  0.2167 -0.0453 -0.5145
19012TIP3   OH278450   0.337   1.282   0.152 -0.0838  0.2097 -0.7761
19012TIP3    H178451   0.276   1.312   0.219  0.5322 -0.5052  0.1284
19012TIP3    H278452   0.282   1.261   0.076 -0.8906  0.1595 -0.1818
19013TIP3   OH278453   6.333   2.490  12.796 -0.1621 -0.2582 -0.0610
19013TIP3    H178454   6.427   2.484  12.809 -0.3168  0.1389  1.4098
19013TIP3    H278455   6.318   2.451  12.710  1.2913 -0.6887 -0.1415
19014TIP3   OH278456   5.580   6.246  17.019 -0.5530  0.2734  0.6544
19014TIP3    H178457   5.517   6.224  17.087  0.6810  0.7527  2.0044
19014TIP3    H278458   5.662   6.262  17.066  0.5816 -0.2994 -1.0401
19015TIP3   OH278459   1.148   5.886   3.902  0.3565  0.1228  0.0174
19015TIP3    H178460   1.073   5.940   3.876  0.0103 -0.0467  0.6440
19015TIP3    H278461   1.187   5.933   3.976  0.4497 -0.1485  0.1428
19016TIP3   OH278462   3.918   0.712  15.500 -0.2689 -0.2948 -0.3594
19016TIP3    H178463   3.941   0.640  15.558 -0.7597 -0.7683 -0.7410
19016TIP3    H278464   3.828   0.693  15.473  0.1211 -0.3490 -1.6636
19017TIP3   OH278465   5.221   3.905   3.344 -0.2293  0.5544 -0.2245
19017TIP3    H178466   5.155   3.949   3.397 -0.4183  1.1769 -0.9573
19017TIP3    H278467   5.202   3.933   3.254  0.1778 -0.3508 -0.6088
19018TIP3   OH278468   5.853   1.909  14.352  0.1966  0.5801  0.1520
19018TIP3    H178469   5.808   1.849  14.411 -1.3225  1.1639 -0.3794
19018TIP3    H278470   5.792   1.922  14.279 -1.0968  5.3621  1.7446
19019TIP3   OH278471   0.429   4.075   2.871 -0.1329  0.5171 -0.2452
19019TIP3    H178472   0.357   4.119   2.826  0.7677  1.4579 -0.7837
19019TIP3    H278473   0.407   3.982   2.864 -1.1138  0.7673 -0.7218
19020TIP3   OH278474   4.636   0.954   5.529 -0.4217 -0.1021 -0.4544
19020TIP3    H178475   4.643   1.050   5.521  0.1925 -0.1526 -0.5748
19020TIP3    H278476   4.652   0.938   5.622  0.1917 -0.1405 -0.5616
19021TIP3   OH278477   2.700   2.271  13.404  0.2733  0.3599  0.1036
19021TIP3    H178478   2.712   2.192  13.351  0.7687  1.7193 -1.9349
19021TIP3    H278479   2.678   2.239  13.491 -1.7932 -1.9975 -1.1817
19022TIP3   OH278480   5.983   5.995   1.596 -0.1645  0.0869 -0.5176
19022TIP3    H178481   6.025   6.016   1.680  3.2428  0.8798 -2.2622
19022TIP3    H278482   5.921   6.067   1.583  0.6900  1.0427  0.4252
19023TIP3   OH278483   5.617   1.179  13.655  0.5003 -0.0291 -0.0640
19023TIP3    H178484   5.605   1.226  13.737 -3.2155 -1.1812  0.2545
19023TIP3    H278485   5.622   1.247  13.588 -0.9560  0.8973  0.7378
19024TIP3   OH278486   0.454   6.573   3.066  0.3610  0.5112 -0.0491
19024TIP3    H178487   0.376   6.627   3.069 -0.6814 -0.9496  0.3077
19024TIP3    H278488   0.448   6.526   2.983  0.0437 -0.7150  0.6320
19025TIP3   OH278489   4.179   6.423   4.923 -0.3837  0.5113 -0.2435
19025TIP3    H178490   4.179   6.327   4.921 -1.2795  0.4680  0.5636
19025TIP3    H278491   4.183   6.449   4.831 -1.9894 -0.3345 -0.5916
19026TIP3   OH278492   0.426   1.303   5.880 -0.1803  0.3967 -0.1452
19026TIP3    H178493   0.379   1.347   5.809 -1.1055 -0.2600  0.0438
19026TIP3    H278494   0.370   1.229   5.904  1.1244 -0.6392 -0.1604
19027TIP3   OH278495   4.350   3.163  12.282  0.2125 -0.1811  0.0410
19027TIP3    H178496   4.274   3.220  12.276  1.4393  1.4034 -1.8231
19027TIP3    H278497   4.324   3.095  12.343 -2.5201  0.5399 -0.1734
19028TIP3   OH278498   3.155   3.696  15.006  0.1528  0.2627  0.0227
19028TIP3    H178499   3.165   3.783  14.966 -0.3761 -0.4420 -1.7278
19028TIP3    H278500   3.098   3.711  15.081 -0.4065  1.3599 -0.5888
19029TIP3   OH278501   1.073   1.831   4.393  0.3220  0.0093 -0.0281
19029TIP3    H178502   1.027   1.773   4.454  0.3331  0.0977  0.0651
19029TIP3    H278503   1.048   1.919   4.420  1.4844  0.1187  0.8015
19030TIP3   OH278504   6.755   3.858   2.528  0.6018  0.2148  0.5197
19030TIP3    H178505   6.668   3.879   2.561  1.2182 -0.3970  2.6886
19030TIP3    H278506   6.747   3.769   2.494 -0.1384  0.9954 -1.4568
19031TIP3   OH278507   0.153   3.051  15.074  0.4027 -0.1265  0.6863
19031TIP3    H178508   0.149   3.009  15.161 -2.8388  0.4447  0.9449
19031TIP3    H278509   0.119   2.985  15.014  1.1764  0.0143  0.0841
19032TIP3   OH278510   0.925   0.159   1.668  0.5593  0.5402 -0.8749
19032TIP3    H178511   0.866   0.188   1.738  0.9839 -0.8028  0.0759
19032TIP3    H278512   0.991   0.228   1.663  1.2544  0.0684  0.9737
19033TIP3   OH278513   1.485   2.929  16.061 -0.4064  0.4910  0.9536
19033TIP3    H178514   1.556   2.885  16.106 -1.6609 -0.7636  1.7819
19033TIP3    H278515   1.526   3.004  16.018  1.4659 -0.4374  1.0478
19034TIP3   OH278516   2.444   1.684  13.986  0.4343  0.0424  0.7596
19034TIP3    H178517   2.418   1.730  14.066 -1.0797  3.8784 -1.6485
19034TIP3    H278518   2.539   1.695  13.982  0.4149  0.6282  1.5731
19035TIP3   OH278519   4.064   1.217   5.689 -0.0794 -0.5330  0.5610
19035TIP3    H178520   4.129   1.287   5.693 -1.2428  0.7573 -1.1781
19035TIP3    H278521   4.004   1.235   5.761  1.2867 -1.5878  2.0178
19036TIP3   OH278522   3.362   1.612  15.309  0.0488  0.4236 -0.0802
19036TIP3    H178523   3.358   1.696  15.262  1.6229  0.3985 -0.3186
19036TIP3    H278524   3.392   1.636  15.396  0.2034  0.1355 -0.0558
19037TIP3   OH278525   6.327   2.705   5.079 -0.4809 -0.3476 -0.2107
19037TIP3    H178526   6.328   2.800   5.072 -1.7189 -0.3519 -0.7856
19037TIP3    H278527   6.416   2.681   5.105 -0.4426  1.0411  1.0524
19038TIP3   OH278528   0.666   0.009   5.458  0.3510  0.1250 -0.0464
19038TIP3    H178529   0.685  -0.075   5.416  0.2020  0.9133 -1.7584
19038TIP3    H278530   0.573   0.025   5.438  0.1347  0.2897  1.0353
19039TIP3   OH278531   1.278   5.406   0.883 -0.0949 -0.2146 -0.3821
19039TIP3    H178532   1.275   5.489   0.929  2.0832 -0.9270  1.2220
19039TIP3    H278533   1.370   5.379   0.888 -0.3076 -1.7067 -2.7230
19040TIP3   OH278534   5.451   4.271  16.064 -0.1610 -0.5951 -0.0376
19040TIP3    H178535   5.526   4.228  16.106 -0.2145 -1.0043 -0.3480
19040TIP3    H278536   5.489   4.342  16.013  0.0050 -0.7424 -0.1192
19041TIP3   OH278537   4.480   5.978   0.129  0.4951 -0.1434  0.2245
19041TIP3    H178538   4.435   5.957   0.212  0.4931  0.0957  0.2832
19041TIP3    H278539   4.416   5.957   0.062 -0.0860  1.1636  0.3475
19042TIP3   OH278540   2.819   4.906   2.473 -0.7960 -0.8972  0.1282
19042TIP3    H178541   2.842   4.903   2.380  1.0345  0.7044  0.4585
19042TIP3    H278542   2.765   4.984   2.482  1.1650  0.4827  0.7366
19043TIP3   OH278543   1.794   4.494  16.000  0.4900  0.4767 -0.0238
19043TIP3    H178544   1.801   4.451  16.086 -2.0019  0.8401  0.4449
19043TIP3    H278545   1.828   4.429  15.938  1.5321 -0.1356  1.1378
19044TIP3   OH278546   4.209   5.431  13.380  0.1968  0.9017 -0.0964
19044TIP3    H178547   4.229   5.441  13.287  3.8079 -0.0939  0.4278
19044TIP3    H278548   4.124   5.386  13.382  0.3792  0.2614 -2.9155
19045TIP3   OH278549   0.006   5.714  14.657 -0.2142 -0.3228  0.1426
19045TIP3    H178550  -0.040   5.631  14.644 -1.6898  0.5143 -0.2298
19045TIP3    H278551   0.057   5.727  14.577 -1.3266 -0.0624 -0.5417
19046TIP3   OH278552   4.117   4.616   0.067 -0.4601 -0.0482 -0.0803
19046TIP3    H178553   4.037   4.632   0.116 -0.1944  3.4619 -0.5605
19046TIP3    H278554   4.181   4.591   0.134 -0.7568  2.0740  1.0948
19047TIP3   OH278555   5.065   1.322   0.151 -0.7361 -0.1592 -0.2363
19047TIP3    H178556   5.136   1.374   0.188 -1.9318  2.3161 -1.2380
19047TIP3    H278557   5.105   1.236   0.135  1.4872  0.5608  0.9529
19048TIP3   OH278558   0.498   2.248   1.762  0.6111  0.5353 -0.4161
19048TIP3    H178559   0.573   2.251   1.703  1.5289  2.9005  0.7403
19048TIP3    H278560   0.523   2.305   1.835 -0.8968 -1.4070  1.7504
19049TIP3   OH278561   4.478   6.588   4.886 -0.4179  0.7021 -0.0632
19049TIP3    H178562   4.507   6.532   4.958  0.2598  0.0322 -0.8444
19049TIP3    H278563   4.446   6.528   4.819 -0.3408  1.2780 -0.6341
19050TIP3   OH278564   3.153   0.230  16.225  0.3606 -0.2885 -0.2408
19050TIP3    H178565   3.124   0.142  16.250  1.8249 -0.4122  1.1854
19050TIP3    H278566   3.157   0.227  16.129  1.6581 -2.2545 -0.1908
19051TIP3   OH278567   1.638   4.497   4.585  0.0481 -0.0336 -0.1976
19051TIP3    H178568   1.638   4.402   4.600 -0.1999 -0.0677 -0.4130
19051TIP3    H278569   1.567   4.530   4.639 -1.6271 -0.2979 -2.1464
19052TIP3   OH278570   1.946   1.679   1.249 -0.1626  0.4851 -0.0244
19052TIP3    H178571   1.950   1.598   1.198 -2.4582  1.8180 -2.6406
19052TIP3    H278572   1.875   1.665   1.311 -0.8761  0.6159 -0.7957
19053TIP3   OH278573   6.794   5.518  14.025  0.2225 -0.2791  0.0672
19053TIP3    H178574   6.862   5.474  13.975  0.3336 -1.6482  1.3478
19053TIP3    H278575   6.727   5.541  13.960  0.0090 -2.6705 -0.6235
19054TIP3   OH278576   0.075   2.221  12.579 -0.5028 -0.4355 -0.2721
19054TIP3    H178577   0.100   2.129  12.570 -1.3780 -0.6545 -0.6090
19054TIP3    H278578   0.038   2.227  12.667 -0.5543 -0.4360 -0.2933
19055TIP3   OH278579   4.244   6.784   4.371  0.2343 -0.2182 -0.3588
19055TIP3    H178580   4.206   6.807   4.456  1.3397  0.2006  0.0485
19055TIP3    H278581   4.338   6.773   4.390  0.5726  0.3543 -1.6145
19056TIP3   OH278582   0.662   5.209   1.495 -0.1437 -0.5805  0.3672
19056TIP3    H178583   0.754   5.182   1.497  0.1966  0.3973 -0.7718
19056TIP3    H278584   0.653   5.269   1.568  0.0713 -0.8325  0.6028
19057TIP3   OH278585   1.701   0.134  15.388 -0.1876 -0.2950  0.7140
19057TIP3    H178586   1.685   0.214  15.438 -0.9296 -0.8671  1.4147
19057TIP3    H278587   1.626   0.127  15.329  0.1854 -0.1543  0.2193
19058TIP3   OH278588   4.610   2.887  13.549  0.6307  0.2674 -0.4231
19058TIP3    H178589   4.533   2.838  13.580 -0.4201  1.6880 -0.7266
19058TIP3    H278590   4.675   2.873  13.618 -0.1794 -0.2476  0.2667
19059TIP3   OH278591   3.172   1.976   1.530 -0.6613 -0.6007  0.6080
19059TIP3    H178592   3.185   2.070   1.548  0.2166 -0.7221  0.6669
19059TIP3    H278593   3.242   1.955   1.469 -1.1621 -1.1134  0.2085
19060TIP3   OH278594   1.198   4.842  17.030 -0.2159 -0.0927  0.1717
19060TIP3    H178595   1.144   4.799  17.096 -2.7705  0.0665 -1.7081
19060TIP3    H278596   1.162   4.815  16.946  1.2112  1.8395 -1.1604
19061TIP3   OH278597   2.622   1.569   4.700  0.1879 -0.5425  0.2313
19061TIP3    H178598   2.716   1.551   4.706  0.4077 -0.3732 -1.8967
19061TIP3    H278599   2.592   1.571   4.791  2.0400 -1.6206  0.9214
19062TIP3   OH278600   6.554   5.674  16.608 -0.3225 -0.4995 -0.4016
19062TIP3    H178601   6.458   5.670  16.603 -0.4448 -1.5606  1.7548
19062TIP3    H278602   6.582   5.586  16.584  0.0352 -0.5244  0.1038
19063TIP3   OH278603   2.089   0.789  11.979 -0.2152 -0.0344 -0.1060
19063TIP3    H178604   2.138   0.850  11.925  0.4923 -0.3201  0.1909
19063TIP3    H278605   2.154   0.724  12.006 -1.1319 -1.4872 -1.2190
19064TIP3   OH278606   4.644   4.433  14.332  0.7792 -0.6717  0.5734
19064TIP3    H178607   4.730   4.414  14.369 -0.3867 -1.8158  2.9111
19064TIP3    H278608   4.613   4.348  14.298  0.9228 -0.0725 -1.1686
19065TIP3   OH278609   3.044   6.058   3.480 -0.3908 -0.2064  0.3453
19065TIP3    H178610   2.953   6.033   3.465 -0.3624  0.6953 -1.6672
19065TIP3    H278611   3.078   6.079   3.393  0.9669  2.0028  1.3193
19066TIP3   OH278612   0.582   0.062  13.876 -0.0762 -0.4424  0.8521
19066TIP3    H178613   0.560   0.154  13.887  1.0391 -0.0958  0.3856
19066TIP3    H278614   0.568   0.045  13.782  1.7479 -0.1488  0.4943
19067TIP3   OH278615   1.533   5.307  16.898  0.2744 -0.2980  0.3272
19067TIP3    H178616   1.485   5.240  16.850 -0.9615  0.3207  0.6556
19067TIP3    H278617   1.528   5.385  16.843 -0.1155  0.0870  0.8927
19068TIP3   OH278618   0.282   2.193  14.071 -0.0192  0.4628  0.0525
19068TIP3    H178619   0.197   2.150  14.082 -0.2009 -0.2461 -3.1207
19068TIP3    H278620   0.269   2.254  13.998  2.3186 -0.1858 -1.0224
19069TIP3   OH278621   1.410   1.696  16.441  0.5554  0.2795  0.3127
19069TIP3    H178622   1.423   1.636  16.514 -0.2553  1.2545  1.2956
19069TIP3    H278623   1.449   1.778  16.469  0.4358  0.6107 -0.4513
19070TIP3   OH278624   4.341   0.022  15.825 -0.2321 -0.1238 -0.5529
19070TIP3    H178625   4.267   0.062  15.779  0.2541 -0.4947 -1.7068
19070TIP3    H278626   4.311  -0.067  15.845 -0.4894  0.0772 -0.0232
19071TIP3   OH278627   4.318   6.520   2.820  0.4301 -0.0335 -0.4968
19071TIP3    H178628   4.405   6.531   2.780  0.4982  0.0776 -0.3215
19071TIP3    H278629   4.333   6.538   2.913  0.3571 -0.6882 -0.3510
19072TIP3   OH278630   1.251   0.777   4.896 -0.7303 -0.3558  0.3817
19072TIP3    H178631   1.188   0.830   4.849 -1.3390 -0.7759  0.7092
19072TIP3    H278632   1.231   0.792   4.989 -0.1453 -0.2490  0.4951
19073TIP3   OH278633   1.329   1.001   0.374  0.0919 -0.4931  0.7608
19073TIP3    H178634   1.280   1.080   0.350  2.5067  0.1013 -3.1564
19073TIP3    H278635   1.416   1.034   0.396  0.3236 -1.9164  2.1404
19074TIP3   OH278636   5.375   2.282  13.799 -0.4422 -0.1295  0.4307
19074TIP3    H178637   5.401   2.197  13.764  1.9385  0.6462  0.0867
19074TIP3    H278638   5.423   2.290  13.882 -0.0075  1.1410  0.0931
19075TIP3   OH278639   4.181   1.838   2.078 -0.4649 -0.3427  0.1023
19075TIP3    H178640   4.238   1.871   2.009  2.0387 -2.7777  0.8077
19075TIP3    H278641   4.195   1.899   2.151 -0.1213  0.0907 -0.3170
19076TIP3   OH278642   0.428   1.545  12.347 -0.7467 -0.0879  0.4141
19076TIP3    H178643   0.492   1.553  12.418 -0.6261 -0.2818  0.3284
19076TIP3    H278644   0.463   1.599  12.277 -0.2745 -0.8062  0.0831
19077TIP3   OH278645   6.570   5.688   0.304 -0.0182  0.1851  1.0203
19077TIP3    H178646   6.557   5.782   0.299  0.5085  0.2376  0.6491
19077TIP3    H278647   6.645   5.670   0.248 -1.3389 -0.7122 -0.5762
19078TIP3   OH278648   4.197   3.002   1.245 -0.0705  0.2662 -0.1640
19078TIP3    H178649   4.208   3.097   1.246  2.1317  0.0498  0.7110
19078TIP3    H278650   4.255   2.970   1.314  0.8585 -1.8734 -1.8139
19079TIP3   OH278651   6.587   2.797   4.817  0.7201 -0.2849 -0.1017
19079TIP3    H178652   6.653   2.863   4.794  1.1871 -1.4327 -2.3964
19079TIP3    H278653   6.605   2.724   4.758 -1.4018 -1.4336  0.5673
19080TIP3   OH278654   1.808   6.159   0.267  0.1785  0.0462  0.6336
19080TIP3    H178655   1.815   6.228   0.334  0.2832  1.1559 -0.4720
19080TIP3    H278656   1.737   6.188   0.211 -0.4772 -1.3164  0.7395
19081TIP3   OH278657   4.781   0.049   2.250  0.0771 -0.4423  0.1542
19081TIP3    H178658   4.859   0.024   2.300  0.1148  0.1814  0.4132
19081TIP3    H278659   4.728  -0.031   2.248  0.7864 -0.9138 -0.1564
19082TIP3   OH278660   5.684   0.301  15.401 -0.1692 -0.1394  0.1028
19082TIP3    H178661   5.722   0.340  15.322 -0.3821 -0.3085 -0.0856
19082TIP3    H278662   5.646   0.375  15.448 -1.3818 -0.2226 -0.7115
19083TIP3   OH278663   2.536   3.181   3.425 -0.2742 -0.6554  0.2241
19083TIP3    H178664   2.569   3.132   3.500  2.7113  0.8669  0.0147
19083TIP3    H278665   2.608   3.239   3.400 -2.1426  0.8127 -2.1578
19084TIP3   OH278666   0.816   6.786   4.866 -0.3354 -0.0688  0.4728
19084TIP3    H178667   0.785   6.706   4.909  0.8458 -0.1997  1.1198
19084TIP3    H278668   0.853   6.756   4.783  0.1295 -0.2091  0.7262
19085TIP3   OH278669   5.852   0.313   1.727 -0.1807 -0.6954 -0.3423
19085TIP3    H178670   5.945   0.332   1.713 -0.2651 -0.2996 -0.3786
19085TIP3    H278671   5.820   0.387   1.778  0.1861 -2.2186  2.2819
19086TIP3   OH278672   2.096   0.629  14.358  0.4412 -0.1019  0.7048
19086TIP3    H178673   2.079   0.535  14.353 -0.0592 -0.0511  1.3176
19086TIP3    H278674   2.172   0.637  14.416  2.6260 -0.3197 -1.9236
19087TIP3   OH278675   0.182   2.511  13.652  0.0915 -0.3335  0.5834
19087TIP3    H178676   0.253   2.571  13.629  0.2178 -0.0631  1.6326
19087TIP3    H278677   0.121   2.518  13.579  2.8923 -3.5825 -2.4038
19088TIP3   OH278678   2.179   2.522  17.049  0.1121 -0.1909 -0.0813
19088TIP3    H178679   2.188   2.484  17.136  0.8029 -0.0866 -0.1018
19088TIP3    H278680   2.111   2.589  17.058 -0.5366 -0.8641  0.1447
19089TIP3   OH278681   6.408   3.570  16.329  0.6140 -0.1640  0.3055
19089TIP3    H178682   6.492   3.526  16.339  1.0079  0.1998 -1.1200
19089TIP3    H278683   6.429   3.655  16.290 -0.3312  0.3554  0.8697
19090TIP3   OH278684   5.573   1.991   1.961  0.6161 -0.1273 -0.0333
19090TIP3    H178685   5.648   1.946   2.000  2.3421  0.6190 -2.2610
19090TIP3    H278686   5.524   1.922   1.916 -1.1440 -0.9161  2.8092
19091TIP3   OH278687   1.481   1.288  13.393  0.1999 -0.1616 -0.6416
19091TIP3    H178688   1.431   1.318  13.317  0.3241  0.0917 -0.6255
19091TIP3    H278689   1.443   1.336  13.467 -0.8587 -1.4359 -0.3167
19092TIP3   OH278690   0.617   1.607  15.598  0.4308  0.3959 -0.5651
19092TIP3    H178691   0.694   1.572  15.554  0.7208 -0.3593  0.5069
19092TIP3    H278692   0.585   1.535  15.652 -0.2406  1.1230  0.0367
19093TIP3   OH278693   5.149   2.818   4.583  0.8847 -0.7250  0.7501
19093TIP3    H178694   5.194   2.736   4.603  0.9244 -0.5315  1.4629
19093TIP3    H278695   5.081   2.825   4.650  0.2513 -0.6515  0.1203
19094TIP3   OH278696   4.342   3.530   1.544  0.0759 -0.5192 -0.1279
19094TIP3    H178697   4.410   3.572   1.597  2.0600 -1.8049 -1.5291
19094TIP3    H278698   4.277   3.500   1.608  1.6350 -0.7068  1.4432
19095TIP3   OH278699   2.269   1.817  15.750 -0.0849  0.3413  0.3522
19095TIP3    H178700   2.312   1.860  15.676  0.2970  0.0525  0.4064
19095TIP3    H278701   2.177   1.841  15.741  0.1840  1.5567  0.6367
19096TIP3   OH278702   0.539   4.883  11.360 -0.0558 -0.0137  0.3057
19096TIP3    H178703   0.565   4.840  11.278 -0.8174 -1.4883  0.8205
19096TIP3    H278704   0.585   4.834  11.428  1.1640  1.6661  0.7510
19097TIP3   OH278705   5.545   3.792  13.079 -0.2328  0.1701 -0.0105
19097TIP3    H178706   5.450   3.781  13.070 -0.3557  0.0538  1.2284
19097TIP3    H278707   5.577   3.794  12.989 -1.0712 -2.7854 -0.4998
19098TIP3   OH278708   4.593   6.385  13.416 -0.5546  0.2042 -0.4570
19098TIP3    H178709   4.617   6.361  13.326  0.0667  0.0813 -0.2686
19098TIP3    H278710   4.545   6.309  13.448  0.3497 -0.3011 -0.2668
19099TIP3   OH278711   0.561   1.273  14.783  0.2678 -0.1087 -0.1290
19099TIP3    H178712   0.484   1.291  14.728  1.3871 -0.3220 -1.8185
19099TIP3    H278713   0.575   1.354  14.832 -1.6553 -0.4187  1.0609
19100TIP3   OH278714   1.983   4.048   3.838 -0.0112 -0.4179 -0.0065
19100TIP3    H178715   1.985   3.959   3.801 -0.9033  0.0509 -1.2443
19100TIP3    H278716   2.071   4.082   3.822  0.2321 -0.9482  0.1694
19101TIP3   OH278717   4.775   1.353  13.514  0.4292 -0.2838  0.3306
19101TIP3    H178718   4.736   1.438  13.496  0.6446 -0.1303  0.5890
19101TIP3    H278719   4.807   1.322  13.429 -1.6683 -1.1358 -0.2157
19102TIP3   OH278720   2.163   5.752  10.964  0.5843 -0.0377 -0.0021
19102TIP3    H178721   2.230   5.726  11.027  0.0308  1.2925  1.1999
19102TIP3    H278722   2.181   5.844  10.946 -0.1257 -0.0192 -0.6796
19103TIP3   OH278723   0.642   2.757  11.796  0.4946  0.1290  0.0458
19103TIP3    H178724   0.546   2.754  11.803  0.6122 -1.0252  1.5142
19103TIP3    H278725   0.663   2.849  11.811 -0.4348  0.5915 -1.3046
19104TIP3   OH278726   4.458   6.068   0.617  0.4990  0.1967 -0.1273
19104TIP3    H178727   4.482   5.986   0.659  2.4160  1.7849  2.1805
19104TIP3    H278728   4.440   6.128   0.690 -2.1894  1.5209 -1.7176
19105TIP3   OH278729   2.821   5.599   2.696 -0.0322  0.2059  0.0304
19105TIP3    H178730   2.858   5.650   2.624 -0.0200  0.2881  0.0953
19105TIP3    H278731   2.728   5.621   2.697  0.0505  0.5555  0.3323
19106TIP3   OH278732   5.949   1.528  14.458 -0.0559  0.3198 -0.0874
19106TIP3    H178733   6.016   1.520  14.526  0.9487 -0.9486 -1.1635
19106TIP3    H278734   5.910   1.441  14.453 -0.1527  0.4084 -1.0797
19107TIP3   OH278735   2.683   6.459  15.315  0.3794  0.1373  0.0672
19107TIP3    H178736   2.751   6.405  15.275 -0.1655 -2.3147  2.1851
19107TIP3    H278737   2.623   6.397  15.354 -2.8603  2.2155 -1.1956
19108TIP3   OH278738   2.059   4.366  12.805  0.1524 -0.1089 -0.7343
19108TIP3    H178739   2.095   4.280  12.828  0.8782  0.3092 -0.2675
19108TIP3    H278740   2.121   4.428  12.842 -1.0787  0.6468  0.1483
19109TIP3   OH278741   2.739   1.204   4.035  0.3197  0.0112 -0.3114
19109TIP3    H178742   2.706   1.245   4.115 -0.1138 -2.0861  0.6456
19109TIP3    H278743   2.828   1.177   4.057  0.3474 -0.2130 -0.6958
19110TIP3   OH278744   6.309   2.576  16.008 -0.6516  0.2100  0.8762
19110TIP3    H178745   6.347   2.515  16.072  1.1226 -0.4899 -0.7247
19110TIP3    H278746   6.385   2.616  15.965 -1.7868  1.7335  0.1837
19111TIP3   OH278747   1.297   1.726   0.456  0.0725 -0.3497 -0.3664
19111TIP3    H178748   1.296   1.667   0.380 -1.0062 -1.1581  0.2403
19111TIP3    H278749   1.271   1.811   0.421 -0.4901 -0.7347 -0.8967
19112TIP3   OH278750   3.871   1.399   2.279  0.1874  0.0114 -0.1918
19112TIP3    H178751   3.821   1.415   2.359  0.1576 -1.0401  0.0143
19112TIP3    H278752   3.946   1.347   2.307  1.2955  1.3815 -0.5394
19113TIP3   OH278753   5.527   3.953   0.303 -0.1705  0.5474 -0.3690
19113TIP3    H178754   5.587   3.991   0.239 -1.2522  0.9452 -1.1778
19113TIP3    H278755   5.521   3.860   0.279 -0.0313  0.5486 -0.4072
19114TIP3   OH278756   3.265   4.113  13.946  0.2269 -0.2528 -0.5104
19114TIP3    H178757   3.173   4.139  13.952  0.3141 -0.1343  0.4832
19114TIP3    H278758   3.283   4.068  14.028  1.4158  0.8865 -0.1156
19115TIP3   OH278759   4.585   6.756  15.684 -0.0746 -0.0828 -0.3138
19115TIP3    H178760   4.514   6.775  15.745  2.7818  0.5402  3.2088
19115TIP3    H278761   4.617   6.842  15.657  0.8852 -0.2598  0.2084
19116TIP3   OH278762   5.319   4.817   2.034 -0.6291 -0.0198 -0.6515
19116TIP3    H178763   5.319   4.912   2.021  0.1688 -0.0325 -0.8090
19116TIP3    H278764   5.254   4.785   1.972  0.0061  0.3190 -1.5207
19117TIP3   OH278765   0.718   3.906   0.837 -0.2348  0.0143  0.3436
19117TIP3    H178766   0.799   3.882   0.883  0.9427  1.7776 -0.7230
19117TIP3    H278767   0.667   3.953   0.903  1.4776  2.6013 -0.0392
19118TIP3   OH278768   5.900   6.297  13.094 -0.2122 -0.1239 -0.4284
19118TIP3    H178769   5.974   6.348  13.127  0.5662 -1.8556  0.6434
19118TIP3    H278770   5.940   6.224  13.048 -1.2988  0.0496 -1.7021
19119TIP3   OH278771   1.367   0.122  14.599 -0.0705  0.0776  0.7244
19119TIP3    H178772   1.448   0.140  14.646  1.4437  0.1054 -1.7366
19119TIP3    H278773   1.393   0.065  14.527 -2.5449 -1.2457  0.7705
19120TIP3   OH278774   0.659   2.228   5.521  0.4186 -0.1235 -0.6994
19120TIP3    H178775   0.667   2.256   5.430 -0.8763 -0.2728 -0.8777
19120TIP3    H278776   0.570   2.194   5.528  1.2701 -2.4272 -0.0043
19121TIP3   OH278777   2.468   0.469   1.474 -0.3959 -0.0523  0.2751
19121TIP3    H178778   2.468   0.564   1.465  0.1307 -0.2089 -2.0394
19121TIP3    H278779   2.556   0.442   1.449 -1.2041 -1.2568 -1.5518
19122TIP3   OH278780   0.246   3.491  13.278  0.5896  0.3897  1.0001
19122TIP3    H178781   0.276   3.560  13.219  0.2039  0.4937  0.9201
19122TIP3    H278782   0.226   3.537  13.360 -1.5090  0.7180  0.3701
19123TIP3   OH278783   4.364   5.183   2.128 -0.0527 -0.3342  0.1809
19123TIP3    H178784   4.332   5.094   2.142  0.1749 -0.6640 -1.2201
19123TIP3    H278785   4.451   5.184   2.168 -0.0472 -0.7531  0.1849
19124TIP3   OH278786   2.687   2.686   2.164 -0.5076 -0.4596  0.4500
19124TIP3    H178787   2.610   2.642   2.201 -1.7044  1.5401  0.4429
19124TIP3    H278788   2.663   2.778   2.160  0.2356 -0.2698 -3.6345
19125TIP3   OH278789   0.019   4.446  16.351 -0.5032 -0.2180 -0.8438
19125TIP3    H178790  -0.018   4.519  16.302  1.8213  0.6222 -1.4686
19125TIP3    H278791  -0.026   4.450  16.436 -0.4771  1.9280 -0.8650
19126TIP3   OH278792   0.375   4.004  11.989 -0.3123  0.0340  0.5818
19126TIP3    H178793   0.470   3.990  11.993 -0.7318 -3.5068  1.3445
19126TIP3    H278794   0.351   4.028  12.079  0.1384  4.9217 -0.3270
19127TIP3   OH278795   5.805   4.922   4.120 -0.2660  0.6171 -0.1433
19127TIP3    H178796   5.720   4.965   4.121 -0.0203  1.1437 -0.8927
19127TIP3    H278797   5.812   4.884   4.033  0.3469  0.7547 -0.1585
19128TIP3   OH278798   1.128   2.351  13.178  0.6490 -0.4883  0.0444
19128TIP3    H178799   1.152   2.259  13.177  0.8250 -0.4391 -0.6086
19128TIP3    H278800   1.194   2.394  13.124  0.4006 -0.0198  0.1024
19129TIP3   OH278801   6.248   6.414   5.515  0.2430  0.5196  0.5036
19129TIP3    H178802   6.331   6.418   5.564  1.4940  1.1707 -1.5464
19129TIP3    H278803   6.215   6.504   5.516  0.5766  0.6606 -0.2908
19130TIP3   OH278804   3.481   2.339   4.835 -0.2794  0.1881  0.6759
19130TIP3    H178805   3.408   2.359   4.894 -1.7106 -1.8297 -0.2676
19130TIP3    H278806   3.450   2.264   4.784  2.6531 -1.0249  0.5056
19131TIP3   OH278807   2.191   3.904   1.500  0.2622 -0.4147 -0.1780
19131TIP3    H178808   2.265   3.843   1.493  0.5841  0.0969 -1.9314
19131TIP3    H278809   2.145   3.877   1.579  2.4047 -0.6554  1.0808
19132TIP3   OH278810   0.310   5.286  12.471 -0.0594  0.0422 -0.6463
19132TIP3    H178811   0.373   5.358  12.465  0.9882 -0.8895 -1.1696
19132TIP3    H278812   0.344   5.229  12.540 -0.7449 -0.0862 -0.4021
19133TIP3   OH278813   2.693   6.370  16.598 -0.1444 -0.1607  0.1955
19133TIP3    H178814   2.704   6.455  16.641 -1.1393 -0.4988  1.1753
19133TIP3    H278815   2.753   6.372  16.523  2.2758  0.1397  2.0472
19134TIP3   OH278816   6.100   1.562   1.151 -0.0714  0.3168 -0.0087
19134TIP3    H178817   6.005   1.551   1.159  0.1471 -1.7754  0.3962
19134TIP3    H278818   6.115   1.570   1.057 -0.7765  2.6306  0.0307
19135TIP3   OH278819   0.221   2.853   0.985  0.2907  0.2025  0.2171
19135TIP3    H178820   0.201   2.772   0.938  1.7865 -0.7080  1.0502
19135TIP3    H278821   0.139   2.876   1.028  0.3638 -2.2776  1.9323
19136TIP3   OH278822   5.689   4.521  15.497 -0.0069  0.0738 -0.2240
19136TIP3    H178823   5.737   4.521  15.415  0.0584  0.2225 -0.1866
19136TIP3    H278824   5.612   4.576  15.480 -0.2866 -0.3537 -0.3533
19137TIP3   OH278825   2.583   6.179  16.748  0.4688 -0.5837  0.0310
19137TIP3    H178826   2.606   6.256  16.695 -0.6530 -0.1135  0.1960
19137TIP3    H278827   2.651   6.175  16.815  0.6978  0.1046 -0.1454
19138TIP3   OH278828   0.139   4.190   4.943 -0.6176 -0.0052  0.0850
19138TIP3    H178829   0.058   4.229   4.911 -0.6466  1.5711  1.8552
19138TIP3    H278830   0.115   4.102   4.971 -0.9090 -0.8563 -2.5609
19139TIP3   OH278831   3.816   3.432   4.483  0.7984  0.0541 -0.3292
19139TIP3    H178832   3.777   3.356   4.440  0.2704  0.9834 -1.5658
19139TIP3    H278833   3.799   3.418   4.577 -1.1480 -0.3680 -0.6850
19140TIP3   OH278834   5.571   2.299   1.007 -0.1397  0.6697  0.1099
19140TIP3    H178835   5.517   2.367   0.967 -1.2308 -0.6249 -0.7073
19140TIP3    H278836   5.521   2.271   1.084 -0.4218 -0.1918 -0.3722
19141TIP3   OH278837   6.587   5.561   6.037  0.5581  0.5406  0.6191
19141TIP3    H178838   6.654   5.545   6.103  0.1032  0.3326  1.0340
19141TIP3    H278839   6.510   5.513   6.069  0.0144  1.3075  0.4769
19142TIP3   OH278840   5.842   3.651  11.731  0.1225  0.3463  0.1787
19142TIP3    H178841   5.777   3.615  11.670  0.6191  0.4601 -0.4266
19142TIP3    H278842   5.792   3.671  11.810 -0.4925  0.0048 -0.1164
19143TIP3   OH278843   1.337   6.329  16.675 -0.0962 -0.2795 -0.2475
19143TIP3    H178844   1.430   6.319  16.657  0.2786  0.1534  1.2566
19143TIP3    H278845   1.328   6.305  16.768 -1.4823 -0.2954 -0.3559
19144TIP3   OH278846   2.109   4.698  12.661  0.2065  0.3032  0.4840
19144TIP3    H178847   2.041   4.766  12.663 -1.2035 -1.0098 -0.7663
19144TIP3    H278848   2.162   4.716  12.738 -2.4318  0.5265  2.3963
19145TIP3   OH278849   6.792   5.247  15.551 -0.2715  0.7321  0.0715
19145TIP3    H178850   6.749   5.162  15.544  0.6535  0.1769  0.8458
19145TIP3    H278851   6.766   5.294  15.472 -0.9145 -0.2144 -0.2940
19146TIP3   OH278852   0.182   5.942   1.621  0.0404 -0.4549 -0.4635
19146TIP3    H178853   0.261   5.996   1.628 -0.1451 -0.2507  0.1646
19146TIP3    H278854   0.215   5.852   1.614  0.3342 -0.4509  0.6182
19147TIP3   OH278855   5.297   0.120   2.488 -0.7559  0.0204  0.0808
19147TIP3    H178856   5.374   0.176   2.483 -1.6327  1.6622  2.9285
19147TIP3    H278857   5.331   0.031   2.477  1.8006  0.5617  2.4651
19148TIP3   OH278858   4.930   1.450   3.070  0.0440  0.1048  0.0329
19148TIP3    H178859   4.959   1.518   3.009 -0.7183  0.7592  0.3789
19148TIP3    H278860   5.010   1.424   3.116  0.5060  0.0855 -0.7694
19149TIP3   OH278861   6.029   5.226   1.392 -0.2204 -0.0759 -0.1758
19149TIP3    H178862   6.097   5.294   1.392  0.1028 -0.3980 -0.6336
19149TIP3    H278863   5.973   5.249   1.467  0.7027 -0.1173  0.5382
19150TIP3   OH278864   1.319   3.768   1.697  0.6328  0.3808 -0.4811
19150TIP3    H178865   1.301   3.768   1.603 -0.5364  1.0755 -0.2830
19150TIP3    H278866   1.232   3.772   1.738  1.0950 -0.7069  0.6490
19151TIP3   OH278867   5.767   4.662   5.514  0.1886 -0.3685  0.3889
19151TIP3    H178868   5.744   4.743   5.559  1.0328  0.6955 -0.9834
19151TIP3    H278869   5.765   4.595   5.581 -1.6385  0.5848  1.3441
19152TIP3   OH278870   5.468   0.172  15.690  0.1200 -0.1951 -0.9433
19152TIP3    H178871   5.535   0.108  15.664  0.5260  0.0773 -0.5652
19152TIP3    H278872   5.388   0.120  15.698  0.8098 -1.0446  1.2265
19153TIP3   OH278873   6.421   2.794  10.651  0.4499  0.1238  0.2224
19153TIP3    H178874   6.393   2.725  10.589 -0.3605 -0.1075  0.8229
19153TIP3    H278875   6.344   2.851  10.658  0.4473  0.0156  1.1873
19154TIP3   OH278876   3.563   0.332  13.164 -0.0892  0.1476  0.1543
19154TIP3    H178877   3.477   0.304  13.198  0.5760  0.7456  2.5389
19154TIP3    H278878   3.617   0.253  13.170 -0.6041 -0.4133 -2.0044
19155TIP3   OH278879   4.157   6.092  12.050 -0.2912 -0.4605  0.4408
19155TIP3    H178880   4.205   6.172  12.031 -0.1713 -0.6489 -0.0773
19155TIP3    H278881   4.186   6.030  11.982  1.6780 -1.8044  2.3506
19156TIP3   OH278882   0.262   2.644  15.020  0.2295 -0.2917  0.0530
19156TIP3    H178883   0.240   2.641  14.927 -0.6149 -0.2005  0.2390
19156TIP3    H278884   0.204   2.579  15.061 -2.5114  2.5105  1.0635
19157TIP3   OH278885   2.351   1.525   2.640 -0.3281 -0.3853  0.6889
19157TIP3    H178886   2.280   1.586   2.656 -1.1708 -1.7125  2.3682
19157TIP3    H278887   2.427   1.581   2.623 -0.9892  1.1653  2.4661
19158TIP3   OH278888   0.023   2.612  11.355 -0.5412 -0.5124  0.3051
19158TIP3    H178889  -0.055   2.607  11.300 -0.3979  1.2229 -0.0955
19158TIP3    H278890   0.023   2.700  11.391  2.3185  0.3240 -1.4164
19159TIP3   OH278891   5.277   4.118  16.438  1.1482 -0.4981 -0.6022
19159TIP3    H178892   5.282   4.027  16.468  0.6306 -0.4715 -0.4143
19159TIP3    H278893   5.183   4.133  16.424  1.1765  0.1625 -0.1370
19160TIP3   OH278894   0.194   3.551   6.061 -0.2337  0.1156 -0.3554
19160TIP3    H178895   0.264   3.525   6.122 -0.4118  1.3254  0.4017
19160TIP3    H278896   0.214   3.643   6.041 -0.1154 -0.2980 -2.2315
19161TIP3   OH278897   1.312   3.940  11.839 -0.5362  0.2008 -0.6581
19161TIP3    H178898   1.340   3.862  11.790  0.5800  0.6002 -0.6886
19161TIP3    H278899   1.267   3.904  11.916 -3.6684 -0.4462 -2.5885
19162TIP3   OH278900   0.442   5.550   4.000 -0.0821 -0.5992  0.3289
19162TIP3    H178901   0.481   5.637   4.007 -2.4983  0.7443 -1.4911
19162TIP3    H278902   0.373   5.549   4.067 -0.8796 -0.6284 -0.4871
19163TIP3   OH278903   6.553   3.241  14.987 -0.3070 -0.0302 -0.3904
19163TIP3    H178904   6.643   3.235  14.955 -1.1397  1.1979 -3.1828
19163TIP3    H278905   6.527   3.150  15.000  1.7937 -0.4053  2.1923
19164TIP3   OH278906   3.418   2.470  14.337 -0.5239 -0.2676 -0.3446
19164TIP3    H178907   3.429   2.493  14.245  0.9412  0.6829  0.0237
19164TIP3    H278908   3.328   2.439  14.345 -1.1084  0.9879 -1.8117
19165TIP3   OH278909   0.194   3.219   0.020  0.2625 -0.2471 -0.1699
19165TIP3    H178910   0.235   3.192   0.102 -1.3508  0.9791  1.1092
19165TIP3    H278911   0.102   3.197   0.031 -0.0267  0.1555 -1.5746
19166TIP3   OH278912   5.588   2.468  10.727  0.1028  0.0420  0.2930
19166TIP3    H178913   5.556   2.556  10.705 -0.1551  0.1182  0.9461
19166TIP3    H278914   5.508   2.415  10.733  0.2729 -0.2945 -0.3207
19167TIP3   OH278915   2.446   5.512  14.710 -0.2253  0.3885  0.6255
19167TIP3    H178916   2.495   5.589  14.740 -0.3572  1.0875 -0.8634
19167TIP3    H278917   2.355   5.533  14.729 -0.1032 -0.4090  2.3049
19168TIP3   OH278918   0.176   3.256   2.007  0.3340 -0.3729 -0.0362
19168TIP3    H178919   0.122   3.184   2.040 -0.1274 -0.1913 -0.4003
19168TIP3    H278920   0.179   3.319   2.080  0.1719 -0.4438  0.0310
19169TIP3   OH278921   2.501   4.554  16.255  0.1836  0.0504  0.5383
19169TIP3    H178922   2.490   4.627  16.194  0.7478  0.7123  1.2134
19169TIP3    H278923   2.419   4.552  16.305  0.3203  0.4679  0.7789
19170TIP3   OH278924   6.523   6.259   3.313  0.1115  0.0956 -0.2428
19170TIP3    H178925   6.515   6.260   3.218 -0.8654  0.1177 -0.1721
19170TIP3    H278926   6.603   6.309   3.331 -0.5769  1.5493 -0.9913
19171TIP3   OH278927   0.375   4.907  15.690 -0.3714  0.3563 -0.4311
19171TIP3    H178928   0.304   4.873  15.635 -1.0562  0.1664  0.5425
19171TIP3    H278929   0.340   4.904  15.778  1.4487 -1.3620  0.3187
19172TIP3   OH278930   2.056   2.466  12.116  0.1002 -0.0464  0.4925
19172TIP3    H178931   2.138   2.514  12.129  0.6864 -0.8023 -0.2905
19172TIP3    H278932   2.082   2.373  12.116 -0.9207 -0.3536  1.3824
19173TIP3   OH278933   6.532   4.688  12.802 -0.0314 -0.4512  0.5751
19173TIP3    H178934   6.476   4.625  12.848 -0.1061 -0.5467  0.3583
19173TIP3    H278935   6.505   4.773  12.835 -1.5537 -0.3411 -0.8086
19174TIP3   OH278936   5.108   5.722  14.772  0.4189 -0.7017 -0.6077
19174TIP3    H178937   5.147   5.635  14.772 -1.1035 -1.4425  0.7237
19174TIP3    H278938   5.030   5.713  14.717  0.9075  0.1743 -1.4699
19175TIP3   OH278939   2.833   3.770  14.454 -0.6027  0.0027 -0.4529
19175TIP3    H178940   2.793   3.711  14.517 -1.2974  0.3137 -0.5941
19175TIP3    H278941   2.912   3.725  14.426 -0.2113 -0.0947  0.7254
19176TIP3   OH278942   5.862   4.144   4.963  0.1923  0.0580  0.0011
19176TIP3    H178943   5.818   4.203   4.901 -0.4626 -1.1721 -0.7462
19176TIP3    H278944   5.935   4.195   4.997  0.6190  0.7541 -1.8477
19177TIP3   OH278945   3.281   3.304   5.023 -0.8291 -0.4941  0.1801
19177TIP3    H178946   3.345   3.352   5.075 -2.2736  0.7367  0.9366
19177TIP3    H278947   3.218   3.372   4.996 -3.0676 -1.9378  1.4454
19178TIP3   OH278948   5.236   0.835   2.899  0.2997  0.7893 -0.2388
19178TIP3    H178949   5.191   0.814   2.817  0.3664 -0.0893 -0.0594
19178TIP3    H278950   5.329   0.829   2.877  0.3199  0.7715 -0.1480
19179TIP3   OH278951   5.944   3.996  10.770 -0.7297  0.0836 -0.1386
19179TIP3    H178952   5.859   4.034  10.749 -0.0866  1.2251 -0.7406
19179TIP3    H278953   5.968   4.036  10.853 -1.2202 -1.0182  0.5603
19180TIP3   OH278954   2.145   5.279   4.187  0.4778 -0.2622  0.2409
19180TIP3    H178955   2.080   5.246   4.248  2.3244 -1.5179  1.6488
19180TIP3    H278956   2.176   5.360   4.226 -1.3139  1.2432 -1.2689
19181TIP3   OH278957   0.283   1.515   3.594  0.1210  0.4254  0.3160
19181TIP3    H178958   0.221   1.468   3.649 -0.8563  0.4200 -0.7622
19181TIP3    H278959   0.236   1.595   3.568  1.5855  1.8439  1.7676
19182TIP3   OH278960   0.443   2.700   1.783  0.2997 -0.3802 -0.1299
19182TIP3    H178961   0.504   2.711   1.710  0.8634  0.2751  0.4407
19182TIP3    H278962   0.478   2.625   1.832  0.3047 -0.3849 -0.1406
19183TIP3   OH278963   1.573   0.817   5.684  0.4639  0.2972  0.2600
19183TIP3    H178964   1.649   0.824   5.742  1.1450 -0.6311 -0.5094
19183TIP3    H278965   1.553   0.908   5.661  1.5910  0.5319  0.1516
19184TIP3   OH278966   1.123   0.891  14.543  0.0840 -0.5032 -0.0013
19184TIP3    H178967   1.051   0.925  14.596  0.1062 -1.8342  0.9419
19184TIP3    H278968   1.081   0.830  14.481  0.2875 -0.5392 -0.1035
19185TIP3   OH278969   2.032   4.896   3.264 -0.1218 -0.3766 -0.8391
19185TIP3    H178970   2.083   4.900   3.184 -0.6849  0.3404 -1.1763
19185TIP3    H278971   2.095   4.914   3.334  0.3782 -1.0423 -1.1117
19186TIP3   OH278972   5.998   0.955  16.236  0.2734 -0.5079  0.3136
19186TIP3    H178973   6.025   0.896  16.306 -1.8649  0.0949  1.7251
19186TIP3    H278974   5.954   1.028  16.280 -0.0648  0.5266 -1.5886
19187TIP3   OH278975   6.176   0.513   3.959  0.2096  0.2509  0.1454
19187TIP3    H178976   6.198   0.428   3.921 -0.9413  1.0677 -2.6222
19187TIP3    H278977   6.119   0.492   4.033 -1.6808 -1.4540 -1.6233
19188TIP3   OH278978   5.392   5.505   0.539 -0.4648 -0.4872  0.0195
19188TIP3    H178979   5.312   5.552   0.564 -0.6542 -0.1069 -1.2310
19188TIP3    H278980   5.369   5.412   0.550 -0.8439 -0.3614  0.3175
19189TIP3   OH278981   3.109   3.719   2.756 -0.2089  0.2917  0.0270
19189TIP3    H178982   3.175   3.682   2.698 -1.1072 -1.9554  0.3291
19189TIP3    H278983   3.151   3.723   2.842 -0.2085 -0.4756  0.0721
19190TIP3   OH278984   3.098   4.132  16.350 -0.3136 -0.4242  0.1722
19190TIP3    H178985   3.178   4.079  16.346 -0.1109 -0.0107 -1.8142
19190TIP3    H278986   3.028   4.068  16.360  0.2390 -0.7634  2.8114
19191TIP3   OH278987   4.842   2.018   3.056  0.0997  0.1269 -0.1743
19191TIP3    H178988   4.855   1.927   3.082  0.5165  0.6525  1.5869
19191TIP3    H278989   4.848   2.068   3.138  0.1137  1.7634 -1.1209
19192TIP3   OH278990   6.066   6.752  16.398 -0.0000  0.0466 -0.2922
19192TIP3    H178991   6.069   6.694  16.322 -0.1985  2.0709 -1.9428
19192TIP3    H278992   6.000   6.713  16.456  0.1887 -1.5699 -1.1044
19193TIP3   OH278993   1.268   0.977  16.112 -0.8030 -0.0030 -0.2341
19193TIP3    H178994   1.341   0.929  16.073  0.2627  0.8952  0.5962
19193TIP3    H278995   1.208   0.908  16.142  0.3365 -0.8083  0.2730
19194TIP3   OH278996   5.565   5.727  11.028  0.3625  0.3360  0.1993
19194TIP3    H178997   5.530   5.734  11.117  0.8370  1.0121  0.3360
19194TIP3    H278998   5.492   5.693  10.977  0.6353 -1.9323  1.1949
19195TIP3   OH278999   1.019   1.127  11.468  0.0909 -0.8873 -0.5454
19195TIP3    H179000   1.112   1.144  11.481 -0.2535  0.2802  0.5738
19195TIP3    H279001   0.983   1.209  11.435 -0.9361 -0.5666  1.2363
19196TIP3   OH279002   1.787   3.153   5.694 -0.4779 -0.0007  0.0572
19196TIP3    H179003   1.874   3.184   5.671 -0.6605 -0.1413 -0.8680
19196TIP3    H279004   1.802   3.085   5.759  0.1078 -0.1148 -0.1920
19197TIP3   OH279005   3.503   3.732   5.765 -0.1249 -0.1455  0.4543
19197TIP3    H179006   3.496   3.827   5.763  1.5696  0.0304  1.0097
19197TIP3    H279007   3.572   3.713   5.701 -0.8603 -1.0643 -0.0908
19198TIP3   OH279008   0.557   1.682   3.768 -0.2036  0.3562 -0.4672
19198TIP3    H179009   0.638   1.699   3.719 -1.0718  0.7775 -1.8416
19198TIP3    H279010   0.536   1.591   3.750  0.9714 -0.3649  1.5181
19199TIP3   OH279011   5.747   1.344  16.977  0.4564 -0.1159 -0.0183
19199TIP3    H179012   5.799   1.393  17.041 -1.9240  0.8311  1.3413
19199TIP3    H279013   5.764   1.252  16.998  0.8124  0.1765  1.0604
19200TIP3   OH279014   5.561   3.724   6.156  0.0660  0.3740  0.1664
19200TIP3    H179015   5.548   3.741   6.249 -0.1840  0.9206  0.0390
19200TIP3    H279016   5.518   3.640   6.141 -1.8361  1.2907  0.1321
19201TIP3   OH279017   6.061   3.651   2.591 -0.1763 -0.4170 -0.6841
19201TIP3    H179018   5.982   3.633   2.539  0.6404 -0.8677 -1.7957
19201TIP3    H279019   6.080   3.743   2.575 -0.9844 -0.0482  0.3300
19202TIP3   OH279020   6.100   0.861   2.031  0.3542 -0.7357  1.1131
19202TIP3    H179021   6.057   0.869   1.946  1.5396  0.3858  0.5854
19202TIP3    H279022   6.115   0.952   2.059  1.2121 -1.0923  1.8605
19203TIP3   OH279023   4.181   0.356  14.399 -0.1673 -0.3933 -0.1203
19203TIP3    H179024   4.162   0.305  14.321  1.3884  0.4243 -1.0899
19203TIP3    H279025   4.188   0.292  14.470 -2.3885 -1.0711 -0.4415
19204TIP3   OH279026   6.471   2.703   1.684 -0.1125  0.0960  0.1853
19204TIP3    H179027   6.405   2.639   1.661 -0.6666  0.6508  0.1906
19204TIP3    H279028   6.496   2.681   1.774  0.6735 -0.9114 -0.2631
19205TIP3   OH279029   4.241   0.852  12.035  0.0164 -0.3132 -0.6252
19205TIP3    H179030   4.247   0.841  12.130  0.6589 -2.6256 -0.8733
19205TIP3    H279031   4.313   0.910  12.013  1.3025 -1.5766  0.0930
19206TIP3   OH279032   6.719   3.395  14.361  0.2560 -0.5292  0.2380
19206TIP3    H179033   6.759   3.312  14.387  0.8513 -0.1718  0.4839
19206TIP3    H279034   6.624   3.378  14.363  0.2493 -0.5438  2.6397
19207TIP3   OH279035   6.578   4.497  10.675 -0.5056 -0.3821  0.3367
19207TIP3    H179036   6.537   4.557  10.612  1.5000 -0.4000 -1.0957
19207TIP3    H279037   6.528   4.416  10.667  0.6973 -0.9583 -2.6031
19208TIP3   OH279038   3.797   4.076  15.367  0.0878  0.0772  0.4464
19208TIP3    H179039   3.857   4.002  15.376 -0.4313 -0.6214 -1.3937
19208TIP3    H279040   3.733   4.047  15.302 -1.3121  1.4108  1.1757
19209TIP3   OH279041   2.025   6.255   4.776  0.5318  0.3018  0.6077
19209TIP3    H179042   2.044   6.299   4.858 -4.5027  1.6982  1.4055
19209TIP3    H279043   2.061   6.167   4.786  2.6165  1.3231  2.9903
19210TIP3   OH279044   4.167   5.319  14.993 -0.1495  0.0288  0.9173
19210TIP3    H179045   4.179   5.278  14.907 -1.3138  0.9512  0.2785
19210TIP3    H279046   4.243   5.377  15.002  0.4554 -0.7610  0.9310
19211TIP3   OH279047   5.863   1.968   1.227  0.2312  0.8582 -0.5970
19211TIP3    H179048   5.843   2.035   1.161 -0.6749  1.9404  0.7151
19211TIP3    H279049   5.778   1.942   1.261  0.7312  1.1902  0.9567
19212TIP3   OH279050   1.570   2.209  12.930 -0.0869 -0.2564 -0.1679
19212TIP3    H179051   1.485   2.253  12.919 -0.8957 -1.9161 -0.9045
19212TIP3    H279052   1.609   2.212  12.843  1.8185  2.7151  0.6638
19213TIP3   OH279053   5.807   2.810  14.397  0.1267 -0.6859  0.1386
19213TIP3    H179054   5.848   2.796  14.482 -0.0055 -1.3869  0.0921
19213TIP3    H279055   5.867   2.770  14.334  0.8560  0.9204 -0.2485
19214TIP3   OH279056   6.292   0.847  15.316  0.7873 -0.0377  0.4413
19214TIP3    H179057   6.360   0.873  15.254  0.5980 -2.6936 -1.0482
19214TIP3    H279058   6.225   0.914  15.308  1.8456  0.9809 -0.3770
19215TIP3   OH279059   0.963   3.142  12.942 -0.2245  0.2743  0.1623
19215TIP3    H179060   0.948   3.220  12.888 -1.6970  1.3614  2.0159
19215TIP3    H279061   1.018   3.172  13.014  0.4192 -0.7753  0.1376
19216TIP3   OH279062   5.197   6.750   4.090 -0.1368  0.2815  0.5573
19216TIP3    H179063   5.173   6.665   4.126  0.1253  0.1384  0.3878
19216TIP3    H279064   5.114   6.799   4.089 -0.7532 -0.7174 -1.4090
19217TIP3   OH279065   4.329   1.547  12.034  0.2964  0.2640 -0.1314
19217TIP3    H179066   4.346   1.463  11.992 -0.2285 -0.8378  1.7370
19217TIP3    H279067   4.393   1.607  11.995 -0.5390 -0.4883 -2.8788
19218TIP3   OH279068   5.987   5.284  12.730 -0.2415 -0.8765 -0.4488
19218TIP3    H179069   6.036   5.264  12.650 -1.1052 -0.7947 -1.0172
19218TIP3    H279070   5.906   5.324  12.698 -0.0685  0.3102  0.5122
19219TIP3   OH279071   1.003   4.030  13.116  1.0528 -0.3382 -0.0264
19219TIP3    H179072   1.047   4.035  13.201 -0.0563  0.5414  0.5154
19219TIP3    H279073   0.991   4.121  13.089  1.4802 -0.6094 -1.1923
19220TIP3   OH279074   0.205   6.207   3.567  0.3576  0.0628  0.3743
19220TIP3    H179075   0.167   6.294   3.577 -2.3982 -0.9928  0.0973
19220TIP3    H279076   0.173   6.177   3.482 -0.3336 -1.8782  1.2569
19221TIP3   OH279077   4.949   4.941   4.037  0.2022 -0.2009  0.0836
19221TIP3    H179078   4.896   4.997   3.981  0.2829 -0.1398  0.0664
19221TIP3    H279079   5.038   4.950   4.002  0.1381 -0.7189 -0.2159
19222TIP3   OH279080   6.177   5.439   2.573 -0.2623 -0.6649  0.0170
19222TIP3    H179081   6.252   5.414   2.520  2.1176  1.0053  2.3002
19222TIP3    H279082   6.180   5.381   2.649 -0.4830  0.2174  0.7327
19223TIP3   OH279083   2.265   6.507  10.225  0.1495 -0.2760 -0.1829
19223TIP3    H179084   2.333   6.551  10.276  0.7178  1.3750 -2.2337
19223TIP3    H279085   2.298   6.417  10.215  0.2810 -0.4944  1.7723
19224TIP3   OH279086   5.289   0.460   4.188  0.4481 -0.6948  0.4408
19224TIP3    H179087   5.297   0.462   4.093 -2.7668 -0.4169  0.0600
19224TIP3    H279088   5.291   0.367   4.211 -1.4570 -0.9511 -0.2766
19225TIP3   OH279089   2.956   5.493   4.630 -0.4986  0.4258  0.2824
19225TIP3    H179090   2.921   5.417   4.676 -2.0193  1.1585  0.3809
19225TIP3    H279091   2.898   5.505   4.555 -0.2695  1.4813  0.2599
19226TIP3   OH279092   5.973   4.337  10.854  0.0481 -0.4871 -0.0393
19226TIP3    H179093   6.018   4.382  10.783 -0.9969  1.3207  0.3792
19226TIP3    H279094   5.903   4.288  10.811  0.9887 -1.4759 -0.4704
19227TIP3   OH279095   4.983   0.244   5.909 -0.2738 -0.4956 -0.0922
19227TIP3    H179096   4.895   0.223   5.941  0.5874 -1.9977  1.4002
19227TIP3    H279097   5.013   0.314   5.967 -0.4198 -0.0722 -0.5209
19228TIP3   OH279098   3.731   4.161  16.217 -0.5547  0.2716  0.5993
19228TIP3    H179099   3.637   4.173  16.209 -0.5041  1.0186  0.9986
19228TIP3    H279100   3.749   4.170  16.310  0.1489  2.2259  0.3344
19229TIP3   OH279101   3.682   2.929   2.614  0.2212 -0.2434  0.1569
19229TIP3    H179102   3.683   2.855   2.673 -0.2654 -1.0060 -0.7645
19229TIP3    H279103   3.699   2.891   2.527  1.4774  0.9000 -0.1472
19230TIP3   OH279104   6.527   6.589   4.628 -0.2025 -0.2180 -0.4198
19230TIP3    H179105   6.485   6.531   4.564 -1.3307  0.4385 -0.2958
19230TIP3    H279106   6.577   6.651   4.575 -1.0280  0.2417 -0.6764
19231TIP3   OH279107   5.919   1.560  13.070  0.1951  0.2785  0.3233
19231TIP3    H179108   5.843   1.587  13.019 -0.0471 -0.2387  0.4028
19231TIP3    H279109   5.991   1.557  13.006  0.3200  1.4848  0.3943
19232TIP3   OH279110   0.431   1.884   1.278 -0.1094  0.4705 -0.3694
19232TIP3    H179111   0.500   1.825   1.247 -1.0409 -0.9789  0.2116
19232TIP3    H279112   0.473   1.937   1.345 -0.2080 -2.5745  2.3271
19233TIP3   OH279113   2.461   1.382   5.270  0.2420 -0.1274 -0.7635
19233TIP3    H179114   2.426   1.463   5.308  2.5581 -0.3144  2.0988
19233TIP3    H279115   2.553   1.380   5.297  0.1071 -4.0761  0.0792
19234TIP3   OH279116   1.232   5.482   3.037  0.2949 -0.6428  0.4708
19234TIP3    H179117   1.265   5.525   2.958  1.1602  0.9995  1.6624
19234TIP3    H279118   1.311   5.453   3.082 -0.0455  0.3583  1.7578
19235TIP3   OH279119   4.297   3.685   0.870 -0.5596 -0.1613 -0.3528
19235TIP3    H179120   4.381   3.676   0.915 -1.3638  0.5596  1.3724
19235TIP3    H279121   4.232   3.667   0.938 -1.8250  1.0591 -1.2073
19236TIP3   OH279122   1.227   6.557   6.059 -0.1749  0.5565  0.0922
19236TIP3    H179123   1.268   6.505   6.129  0.1538  0.2216 -0.3433
19236TIP3    H279124   1.135   6.528   6.059  0.1334 -0.4826 -0.5436
19237TIP3   OH279125   2.622   5.176   2.484  0.6591  0.2982  0.2169
19237TIP3    H179126   2.579   5.091   2.480  2.2283 -0.5059 -1.6167
19237TIP3    H279127   2.587   5.224   2.409  0.1442  1.1188  0.9594
19238TIP3   OH279128   0.203   5.429  14.393  0.1066 -0.9610  0.2492
19238TIP3    H179129   0.125   5.376  14.407 -1.3900  1.4605  1.6529
19238TIP3    H279130   0.172   5.506  14.346  1.5774  0.1308  0.9762
19239TIP3   OH279131   5.532   3.172  17.066 -0.0331 -0.3363  0.5995
19239TIP3    H179132   5.586   3.240  17.106 -1.1436  1.0966 -0.2538
19239TIP3    H279133   5.552   3.177  16.973 -0.3264 -1.0077  0.4963
19240TIP3   OH279134   0.985   1.641   5.549 -0.1888  0.2238  0.6084
19240TIP3    H179135   0.907   1.618   5.497  0.4906 -1.5725  0.3332
19240TIP3    H279136   0.986   1.577   5.620  0.5281  0.8290  1.1505
19241TIP3   OH279137   5.816   0.360  14.334 -0.0242 -0.3795  0.0561
19241TIP3    H179138   5.776   0.388  14.252 -2.4083 -0.0228  1.2523
19241TIP3    H279139   5.875   0.431  14.357  0.4630 -0.3531 -1.1871
19242TIP3   OH279140   4.468   5.688   5.537 -0.2562  0.0306 -1.0678
19242TIP3    H179141   4.481   5.782   5.545  0.2603 -0.1976  1.5448
19242TIP3    H279142   4.531   5.660   5.470  0.6084  1.3284 -0.8283
19243TIP3   OH279143   3.862   6.656  13.241 -0.0598  0.2283 -0.0175
19243TIP3    H179144   3.894   6.647  13.151  0.4039  0.1856  0.1486
19243TIP3    H279145   3.864   6.567  13.276  1.5220  0.4642  0.6160
19244TIP3   OH279146   4.768   3.834   5.912 -0.0654 -0.0719  0.3618
19244TIP3    H179147   4.716   3.811   5.989 -0.5139  0.5840  0.2630
19244TIP3    H279148   4.858   3.840   5.944 -0.2484  0.1743  0.8265
19245TIP3   OH279149   2.459   5.002  12.545  0.1376  0.2420 -0.2324
19245TIP3    H179150   2.538   5.036  12.502  1.4999 -0.9117  1.2404
19245TIP3    H279151   2.399   4.984  12.473  0.7657  2.1505 -1.3236
19246TIP3   OH279152   3.314   2.487   1.636 -0.4565 -0.0556  0.1228
19246TIP3    H179153   3.228   2.529   1.648 -0.6357  0.0281 -1.1988
19246TIP3    H279154   3.328   2.491   1.541 -0.3627 -2.7536 -0.0506
19247TIP3   OH279155   6.519   2.779   3.139  0.2791 -0.4988  0.0195
19247TIP3    H179156   6.602   2.733   3.130  1.1723  1.2993 -1.7583
19247TIP3    H279157   6.537   2.851   3.199 -0.2480 -0.6229  0.3351
19248TIP3   OH279158   3.076   5.678  13.858 -0.3695 -0.7170 -0.0853
19248TIP3    H179159   3.030   5.694  13.775 -2.2798 -2.5020  0.5469
19248TIP3    H279160   3.149   5.620  13.834  0.9257  1.1437 -0.9046
19249TIP3   OH279161   0.074   6.426   2.234 -0.0600 -0.8027 -0.0665
19249TIP3    H179162   0.143   6.439   2.170  0.6214  0.8870  0.9566
19249TIP3    H279163   0.080   6.501   2.293 -0.9339 -2.0427  1.7227
19250TIP3   OH279164   2.997   3.977   0.824 -0.2381  0.3751  0.0010
19250TIP3    H179165   2.996   3.988   0.729  0.3081 -0.0372 -0.0573
19250TIP3    H279166   3.086   3.948   0.844  0.4008  2.8003  0.9176
19251TIP3   OH279167   0.590   1.687   1.172 -0.6792 -0.5812  0.7009
19251TIP3    H179168   0.564   1.608   1.219  2.3060 -0.5592  2.6527
19251TIP3    H279169   0.601   1.658   1.081 -1.0881 -2.0172  1.0808
19252TIP3   OH279170   3.590   4.209   6.633  0.0876 -0.2271  0.7462
19252TIP3    H179171   3.508   4.198   6.586  1.3076 -0.4435 -1.4923
19252TIP3    H279172   3.619   4.120   6.654 -0.7584 -0.1108  2.5770
19253TIP3   OH279173   6.631   6.011   1.294 -0.2273 -0.0556  0.0943
19253TIP3    H179174   6.632   6.064   1.214 -0.2729  0.1126  0.2046
19253TIP3    H279175   6.670   5.928   1.268 -1.4745 -0.4999 -0.4530
19254TIP3   OH279176   4.205   4.782  15.174  0.8062 -0.3893  0.1171
19254TIP3    H179177   4.143   4.852  15.152 -0.6195 -1.2389  1.3491
19254TIP3    H279178   4.221   4.738  15.091 -0.9689 -0.7309 -0.0660
19255TIP3   OH279179   6.716   4.664   1.275  0.2544  0.4956 -0.5322
19255TIP3    H179180   6.649   4.724   1.241  0.8620  1.6801  0.2926
19255TIP3    H279181   6.791   4.676   1.216  1.4189  2.7746  1.2311
19256TIP3   OH279182   4.388   4.751  14.957 -0.0140  0.4184 -0.3467
19256TIP3    H179183   4.456   4.685  14.961 -0.7344 -0.3430 -0.4276
19256TIP3    H279184   4.430   4.831  14.988  0.7034 -0.2066  0.3197
19257TIP3   OH279185   1.917   1.265  13.145 -0.2413  0.6460  0.3621
19257TIP3    H179186   1.880   1.339  13.097 -0.4690 -0.1315 -0.7034
19257TIP3    H279187   1.994   1.301  13.189  0.5298  1.2202 -1.3650
19258TIP3   OH279188   0.094   6.513   3.185 -0.0945 -0.6090 -0.0393
19258TIP3    H179189   0.128   6.442   3.131  0.0174 -1.3241  0.9508
19258TIP3    H279190   0.069   6.581   3.122  2.1476 -0.4889 -0.8653
19259TIP3   OH279191   3.754   2.543  16.582  0.8829  0.3420  0.4895
19259TIP3    H179192   3.824   2.602  16.611 -0.1235  1.7348  0.1997
19259TIP3    H279193   3.729   2.577  16.496  2.0415 -2.1319 -0.9526
19260TIP3   OH279194   3.348   0.178   2.347  0.1817 -0.1245 -0.0048
19260TIP3    H179195   3.304   0.099   2.379  0.6984 -1.2395 -1.8258
19260TIP3    H279196   3.287   0.249   2.365 -0.8435 -1.1269  0.6005
19261TIP3   OH279197   3.387   6.617   3.266  0.4866  0.1638  0.1442
19261TIP3    H179198   3.364   6.700   3.307  1.9922  0.2216  0.9458
19261TIP3    H279199   3.474   6.632   3.229  0.5960 -0.9292 -0.0687
19262TIP3   OH279200   5.435   4.713   0.545 -0.2956 -0.2619 -0.0112
19262TIP3    H179201   5.343   4.729   0.564 -0.2522 -0.2768  0.2126
19262TIP3    H279202   5.441   4.618   0.533  0.0524 -0.5355  1.9756
19263TIP3   OH279203   2.182   0.937  15.476  0.0562  0.0783 -0.6056
19263TIP3    H179204   2.151   0.929  15.566 -0.0561 -2.6098 -0.7993
19263TIP3    H279205   2.164   1.028  15.452 -0.7980  0.5909  1.7479
19264TIP3   OH279206   0.726   0.427   6.133  0.7488 -0.2872 -0.2106
19264TIP3    H179207   0.669   0.410   6.207 -0.3640  1.9123 -0.4915
19264TIP3    H279208   0.724   0.346   6.082 -1.5268 -0.5447  0.1821
19265TIP3   OH279209   1.771   5.934  15.186  0.5919 -0.4259 -0.7198
19265TIP3    H179210   1.709   6.007  15.178  0.2752 -0.6135 -0.0584
19265TIP3    H279211   1.853   5.968  15.151  0.1731 -0.1037 -1.4152
19266TIP3   OH279212   1.049   1.909   1.337 -0.4962 -0.2927  0.6147
19266TIP3    H179213   0.991   1.886   1.410 -0.9075  0.8912  0.6825
19266TIP3    H279214   0.989   1.922   1.263 -0.1269 -0.9925  0.1824
19267TIP3   OH279215   1.800   6.796  14.886  0.2421 -0.0961  0.0451
19267TIP3    H179216   1.854   6.869  14.856 -0.3181  0.7120  0.9552
19267TIP3    H279217   1.755   6.829  14.964 -0.2755 -1.3063  0.2903
19268TIP3   OH279218   5.110   6.438   1.295  0.0415 -0.0485  0.6333
19268TIP3    H179219   5.050   6.420   1.222  0.3355 -0.9357  0.6044
19268TIP3    H279220   5.190   6.468   1.253 -0.1093  0.3739  0.6395
19269TIP3   OH279221   6.343   3.255   1.892 -0.4477  0.5195  0.0356
19269TIP3    H179222   6.264   3.293   1.931 -0.7420  0.9811 -0.9883
19269TIP3    H279223   6.368   3.185   1.953 -0.7982  1.3162  1.1235
19270TIP3   OH279224   2.328   4.468   1.784 -0.2893 -0.5296 -0.3745
19270TIP3    H179225   2.324   4.409   1.709  0.0169 -1.2846  0.1769
19270TIP3    H279226   2.339   4.409   1.859  3.2264  0.3104 -0.0575
19271TIP3   OH279227   2.136   3.877   5.434  0.1542 -0.3459 -0.3573
19271TIP3    H179228   2.191   3.955   5.440  1.1546 -0.8539 -2.1675
19271TIP3    H279229   2.047   3.910   5.448  0.7216  0.7897  0.8125
19272TIP3   OH279230   5.778   4.810  15.642  0.4074 -0.0247 -0.0242
19272TIP3    H179231   5.848   4.844  15.587  0.7005  0.1092  0.4292
19272TIP3    H279232   5.704   4.868  15.625 -0.4022 -1.5830 -2.3636
19273TIP3   OH279233   5.171   0.636   0.451  0.1677  0.4056 -0.2459
19273TIP3    H179234   5.194   0.689   0.528 -0.4929 -0.1104  0.3162
19273TIP3    H279235   5.079   0.613   0.465  0.6535 -1.5449 -0.0986
19274TIP3   OH279236   3.990   4.299   0.041 -0.0599 -0.0055 -0.3647
19274TIP3    H179237   4.079   4.289   0.007 -0.8284 -0.3106 -2.3952
19274TIP3    H279238   3.950   4.366  -0.015 -0.8777  0.7730  1.0735
19275TIP3   OH279239   4.813   0.900   1.773  0.6352 -0.1489 -0.1486
19275TIP3    H179240   4.762   0.823   1.800 -0.1477  0.2001 -0.5925
19275TIP3    H279241   4.747   0.962   1.743  1.3556  0.2093 -0.9992
19276TIP3   OH279242   3.246   5.562  16.967  0.0690  0.0461 -0.0564
19276TIP3    H179243   3.296   5.599  17.039 -0.6782  1.8501 -0.4050
19276TIP3    H279244   3.157   5.596  16.980 -0.4818 -1.0269 -0.8498
19277TIP3   OH279245   1.700   4.755   0.558  0.0626  0.5520 -0.3548
19277TIP3    H179246   1.715   4.663   0.537  1.5072  0.5247  0.6390
19277TIP3    H279247   1.773   4.779   0.616 -1.1266  1.8922  0.6778
19278TIP3   OH279248   6.097   5.927   6.202 -0.4529 -0.1788  0.0705
19278TIP3    H179249   6.086   5.896   6.112 -1.2546  2.0486 -0.6609
19278TIP3    H279250   6.008   5.942   6.233 -0.1552 -0.3952  1.0575
19279TIP3   OH279251   4.222   1.325  15.197  0.5755  0.3543  0.4451
19279TIP3    H179252   4.290   1.338  15.131  0.5934  0.7902  0.5506
19279TIP3    H279253   4.156   1.391  15.177 -0.2307 -0.6180 -0.1876
19280TIP3   OH279254   5.928   2.018   5.700  0.1357  0.6727 -0.1820
19280TIP3    H179255   5.887   2.023   5.786 -0.2737 -0.0082 -0.3313
19280TIP3    H279256   5.998   2.084   5.703  3.5692 -2.6176  2.4975
19281TIP3   OH279257   4.522   2.253  15.812  0.4703 -0.2421  0.0765
19281TIP3    H179258   4.481   2.312  15.875  0.4175  0.9379 -1.0273
19281TIP3    H279259   4.548   2.176  15.864  1.1736  1.0250  1.6776
19282TIP3   OH279260   0.324   4.887   2.038  0.5899  0.1700  0.2416
19282TIP3    H179261   0.255   4.880   2.104  1.2472  1.0111  1.0520
19282TIP3    H279262   0.304   4.968   1.991 -1.1833 -1.5569 -2.2010
19283TIP3   OH279263   6.095   4.288  15.159 -0.5128 -0.3969 -0.0683
19283TIP3    H179264   6.116   4.379  15.179 -1.6491 -0.1454  0.0266
19283TIP3    H279265   6.130   4.239  15.234 -0.7010  0.0552  0.3184
19284TIP3   OH279266   1.592   6.469  14.915 -0.3613  0.5698  0.6050
19284TIP3    H179267   1.590   6.518  14.833 -2.5403  1.3573  1.0589
19284TIP3    H279268   1.503   6.436  14.926  0.3033 -0.9660  1.8295
19285TIP3   OH279269   6.081   5.182   5.130  0.3722 -0.5003 -0.0224
19285TIP3    H179270   6.134   5.244   5.180  2.8660 -2.2441 -0.3001
19285TIP3    H279271   6.091   5.099   5.179 -1.0775 -1.1653 -0.8160
19286TIP3   OH279272   6.681   1.352   3.163  0.5865 -0.1189 -0.0107
19286TIP3    H179273   6.770   1.374   3.190  0.7034  0.8850 -1.1524
19286TIP3    H279274   6.625   1.415   3.208  0.4516 -0.6129  0.5349
19287TIP3   OH279275   1.254   4.651   2.852  0.2234 -0.4403  0.1340
19287TIP3    H179276   1.189   4.718   2.873  1.0756  0.8424 -1.1634
19287TIP3    H279277   1.210   4.568   2.871 -1.7031  0.3909 -0.4978
19288TIP3   OH279278   2.721   5.756  15.178  0.0229 -0.1856  0.1837
19288TIP3    H179279   2.737   5.699  15.103  0.9919  0.6291 -0.2458
19288TIP3    H279280   2.714   5.844  15.141 -1.3113  0.0265  0.8538
19289TIP3   OH279281   5.473   3.009   2.781  0.1055 -0.1952 -0.6102
19289TIP3    H179282   5.442   3.095   2.752 -1.0618 -0.5456 -0.4840
19289TIP3    H279283   5.464   2.953   2.703  1.9678  0.0233 -1.0368
19290TIP3   OH279284   6.521   0.325  16.427  0.0969 -0.0484  0.1636
19290TIP3    H179285   6.426   0.324  16.437  0.2484 -1.5067  1.9438
19290TIP3    H279286   6.553   0.267  16.496  2.5107  3.0809  1.9279
19291TIP3   OH279287   0.650   5.178  13.433 -0.3598 -0.1262  0.5568
19291TIP3    H179288   0.606   5.184  13.348 -0.6816 -3.1941  0.3823
19291TIP3    H279289   0.738   5.148  13.413 -0.1953 -0.1446  1.2689
19292TIP3   OH279290   0.980   2.818   4.858  0.2787  0.2584 -0.2777
19292TIP3    H179291   1.066   2.776   4.868  0.1308 -0.3589 -1.4572
19292TIP3    H279292   0.998   2.911   4.871  1.1234  0.1335 -0.4641
19293TIP3   OH279293   2.564   0.310   3.148  0.5176 -0.0717 -0.3008
19293TIP3    H179294   2.619   0.354   3.213 -0.1305  1.5638 -0.8187
19293TIP3    H279295   2.540   0.227   3.189  0.1166  0.9116  1.5619
19294TIP3   OH279296   3.689   3.297   1.983 -0.1963  0.0215 -0.4724
19294TIP3    H179297   3.707   3.206   1.960  0.8441  0.0100  0.2988
19294TIP3    H279298   3.768   3.326   2.028  0.5483  2.1071 -2.9203
19295TIP3   OH279299   0.402   2.046  13.355 -0.0265  0.4029 -0.0770
19295TIP3    H179300   0.307   2.032  13.357  0.2223 -1.5520  1.6756
19295TIP3    H279301   0.419   2.111  13.423 -0.0850  0.4500 -0.1078
19296TIP3   OH279302   3.887   5.408   2.855 -0.3775 -0.4363 -0.1902
19296TIP3    H179303   3.814   5.468   2.871  0.4751  1.0027 -1.4257
19296TIP3    H279304   3.960   5.465   2.832  1.1665 -1.8444  1.0112
19297TIP3   OH279305   3.290   0.293  15.225  0.6802  0.0575  0.2882
19297TIP3    H179306   3.210   0.273  15.176 -0.3004 -0.1238  1.8750
19297TIP3    H279307   3.263   0.360  15.288  1.5793 -0.5359  1.3524
19298TIP3   OH279308   1.473   1.623  14.313  0.4033 -0.0951 -0.5801
19298TIP3    H179309   1.400   1.592  14.365  0.8455 -0.1481  0.0158
19298TIP3    H279310   1.449   1.603  14.222  0.9462 -2.7943 -0.2113
19299TIP3   OH279311   6.196   6.026   3.618 -0.2602  0.2212  0.3019
19299TIP3    H179312   6.263   6.020   3.550 -1.3996 -1.8924 -0.7270
19299TIP3    H279313   6.121   5.978   3.583 -1.2001 -0.2022  2.6893
19300TIP3   OH279314   1.131   1.608  10.543 -0.1272 -0.4400 -0.1475
19300TIP3    H179315   1.180   1.689  10.528 -1.3390  0.4406  0.4247
19300TIP3    H279316   1.186   1.539  10.507  0.2696  0.7918 -2.0297
19301TIP3   OH279317   3.269   6.498  13.827  0.1216 -0.0718  0.4608
19301TIP3    H179318   3.275   6.514  13.921 -0.8044 -1.8288  0.8623
19301TIP3    H279319   3.245   6.406  13.819  4.1908 -1.1965 -1.6020
19302TIP3   OH279320   0.769   1.075   5.223 -0.5637 -0.4220  0.1598
19302TIP3    H179321   0.757   0.991   5.267 -1.7077 -1.0590 -1.2792
19302TIP3    H279322   0.708   1.134   5.268  0.8803 -0.0644  1.7690
19303TIP3   OH279323   6.327   0.562  13.795 -0.0527 -0.8410  0.1868
19303TIP3    H179324   6.375   0.492  13.750 -0.9271 -1.1916 -0.2035
19303TIP3    H279325   6.293   0.520  13.874 -1.5167 -1.1671 -0.5923
19304TIP3   OH279326   2.599   1.671   2.608  0.1151  0.5847  0.4475
19304TIP3    H179327   2.629   1.707   2.692  0.3717  0.2293  0.5108
19304TIP3    H279328   2.615   1.742   2.546  0.2819  0.7141  0.6333
19305TIP3   OH279329   0.977   6.116   4.272  0.8443  0.1084 -0.2654
19305TIP3    H179330   0.989   6.022   4.263 -0.1865 -0.2530  1.6493
19305TIP3    H279331   0.884   6.131   4.260  0.8440  0.7401  0.4152
19306TIP3   OH279332   6.318   2.743  15.284  0.4327  0.4516  0.4687
19306TIP3    H179333   6.353   2.830  15.269  0.1026  0.2546 -1.8453
19306TIP3    H279334   6.238   2.740  15.231 -0.6595 -0.6019  2.0916
19307TIP3   OH279335   4.790   5.081   1.460 -0.3033  0.4395 -0.0340
19307TIP3    H179336   4.801   5.066   1.366  3.3578  1.8179  0.0084
19307TIP3    H279337   4.760   5.172   1.466  0.9134  0.8571  0.0832
19308TIP3   OH279338   4.529   6.600  14.212 -0.1064  0.4956  0.2804
19308TIP3    H179339   4.498   6.690  14.226  2.6779  1.9410 -1.9726
19308TIP3    H279340   4.571   6.602  14.126 -2.2284 -3.6984 -1.1259
19309TIP3   OH279341   1.934   6.682   0.372 -0.4884 -0.1283 -0.3287
19309TIP3    H179342   1.931   6.777   0.375 -1.2255 -0.1658  2.1040
19309TIP3    H279343   2.028   6.661   0.371 -0.3187  0.5883 -1.3091
19310TIP3   OH279344   4.211   3.909  15.054 -0.0452  0.0666  0.6708
19310TIP3    H179345   4.278   3.925  14.987  1.3941 -1.5952  1.6270
19310TIP3    H279346   4.132   3.948  15.017  0.4711 -1.4668 -2.4111
19311TIP3   OH279347   6.415   3.581  15.839  0.3571 -0.4416  0.5234
19311TIP3    H179348   6.412   3.512  15.906  0.5624  0.8433  1.8966
19311TIP3    H279349   6.335   3.631  15.853  0.2144 -0.3810 -0.4672
19312TIP3   OH279350   6.204   1.135   2.732 -0.3838  0.3871  0.1825
19312TIP3    H179351   6.175   1.075   2.664  0.2456  2.1580 -1.7437
19312TIP3    H279352   6.287   1.099   2.763 -0.1934  0.0715 -0.6823
19313TIP3   OH279353   4.089   1.631   4.585  1.4418  0.3357 -0.4804
19313TIP3    H179354   4.109   1.616   4.493  2.4320 -1.4898 -0.0149
19313TIP3    H279355   4.006   1.586   4.599  0.0965  2.5272 -0.9448
19314TIP3   OH279356   2.906   1.329  14.841  0.2526  0.6093 -0.2418
19314TIP3    H179357   2.931   1.352  14.930  1.3811 -0.1959 -0.3264
19314TIP3    H279358   2.910   1.412  14.793 -2.1040  1.3864  0.7875
19315TIP3   OH279359   0.093   4.812   2.769 -0.0698 -0.1801 -0.4851
19315TIP3    H179360   0.010   4.816   2.722  0.5478 -0.1200 -1.6113
19315TIP3    H279361   0.151   4.870   2.721 -0.3281  2.6980  2.3745
19316TIP3   OH279362   1.151   2.131  14.910 -0.2577  0.2933 -0.3310
19316TIP3    H179363   1.240   2.149  14.880  0.1431 -0.9578  0.0431
19316TIP3    H279364   1.159   2.050  14.961 -1.8064 -0.5014 -1.2842
19317TIP3   OH279365   2.714   1.670  13.971 -0.5171  0.2511  0.0313
19317TIP3    H179366   2.724   1.647  13.879 -1.8438 -0.8892  0.1496
19317TIP3    H279367   2.717   1.766  13.972  2.0217  0.2608 -0.8544
19318TIP3   OH279368   3.936   3.334   2.134 -0.8300 -0.0394  0.2766
19318TIP3    H179369   4.026   3.362   2.119 -0.3395 -1.5497  0.2624
19318TIP3    H279370   3.910   3.379   2.214 -0.7826  1.9648 -0.7566
19319TIP3   OH279371   0.458   2.768  11.222 -0.1739 -0.0574  0.4182
19319TIP3    H179372   0.511   2.800  11.295 -0.5749  0.0737  0.6534
19319TIP3    H279373   0.437   2.678  11.245 -0.7388  0.1475  0.7154
19320TIP3   OH279374   6.489   1.960   2.009 -0.2741 -0.2554  0.2678
19320TIP3    H179375   6.555   2.017   2.049 -1.0945  0.8759  0.0271
19320TIP3    H279376   6.508   1.963   1.915  0.5217 -1.4898  0.3551
19321TIP3   OH279377   1.420   5.018  17.057  0.3469 -0.2463  0.0689
19321TIP3    H179378   1.445   5.047  16.969 -1.3788  2.5458  0.3638
19321TIP3    H279379   1.333   4.980  17.046  0.4770 -0.6660  0.4607
19322TIP3   OH279380   6.354   2.341  10.370  0.0116  0.2341  0.1384
19322TIP3    H179381   6.385   2.263  10.415 -1.6233 -1.2675 -1.1790
19322TIP3    H279382   6.412   2.350  10.294 -1.1154 -1.0617 -0.9224
19323TIP3   OH279383   5.591   0.868   2.338 -0.0610 -0.5333  0.1348
19323TIP3    H179384   5.541   0.832   2.265  0.1138 -0.8832  0.1836
19323TIP3    H279385   5.565   0.960   2.342 -0.3985 -0.6176 -0.0897
19324TIP3   OH279386   3.678   5.191   6.151 -0.1262 -0.3102  0.3433
19324TIP3    H179387   3.616   5.125   6.182 -1.8538  0.7287 -0.6973
19324TIP3    H279388   3.691   5.170   6.058 -2.2117  1.7906 -0.5424
19325TIP3   OH279389   2.071   0.951   0.411  0.4476 -0.4863 -0.4826
19325TIP3    H179390   2.050   0.876   0.466 -1.8161 -0.4293 -1.1708
19325TIP3    H279391   1.997   0.958   0.350  1.3239  1.3891 -1.4196
19326TIP3   OH279392   2.546   1.989  11.096 -0.5559 -0.3058 -0.1251
19326TIP3    H179393   2.497   2.069  11.114 -1.1351 -0.1750 -2.0397
19326TIP3    H279394   2.630   2.018  11.062 -0.9392 -0.4627 -1.2675
19327TIP3   OH279395   1.168   0.363   1.088 -0.4517  0.4755  0.5553
19327TIP3    H179396   1.232   0.427   1.117 -1.6852  2.3485 -0.6788
19327TIP3    H279397   1.211   0.317   1.015  0.2263  0.2558  1.0815
19328TIP3   OH279398   6.518   0.238   1.098  0.3516 -0.0289  0.4185
19328TIP3    H179399   6.554   0.193   1.022 -2.4844  1.0958 -1.7783
19328TIP3    H279400   6.504   0.169   1.163  2.1112 -1.1455 -0.2931
19329TIP3   OH279401   0.828   4.321  11.380  0.6561  0.1299  0.3487
19329TIP3    H179402   0.794   4.260  11.314  1.2075 -1.2558  1.2930
19329TIP3    H279403   0.803   4.281  11.464  3.6375 -0.4218  1.0666
19330TIP3   OH279404   4.160   2.162  14.659  0.4014  0.5343 -0.3987
19330TIP3    H179405   4.172   2.254  14.679 -2.8415  1.1382 -0.6729
19330TIP3    H279406   4.196   2.152  14.570  1.0635  1.4198 -0.2452
19331TIP3   OH279407   6.341   6.494   5.251  0.2113  0.1177 -0.1176
19331TIP3    H179408   6.319   6.447   5.331  0.2953  0.8314  0.3253
19331TIP3    H279409   6.393   6.431   5.201  0.5663 -0.1703  0.5980
19332TIP3   OH279410   0.594   1.020  14.702  0.8698  0.4381 -0.2278
19332TIP3    H179411   0.587   1.102  14.750  0.2389 -0.5666  1.4722
19332TIP3    H279412   0.618   0.955  14.768 -2.3982 -1.4527 -0.6713
19333TIP3   OH279413   4.673   4.228  15.584  0.2308  0.4019 -0.2575
19333TIP3    H179414   4.742   4.203  15.645 -0.4088 -1.9434 -0.4022
19333TIP3    H279415   4.715   4.232  15.499  0.8018  2.1740  0.0584
19334TIP3   OH279416   4.316   1.175   3.771  0.3909 -0.9057 -0.3237
19334TIP3    H179417   4.336   1.220   3.854  1.8612  0.6078 -1.4271
19334TIP3    H279418   4.399   1.177   3.723 -0.8510 -0.1328 -2.5460
19335TIP3   OH279419   3.550   4.909  10.908 -0.1510  0.6560 -0.1418
19335TIP3    H179420   3.475   4.862  10.871 -0.5257  0.6995  0.5288
19335TIP3    H279421   3.622   4.846  10.905 -0.7699 -0.1725  1.1906
19336TIP3   OH279422   0.316   0.921   6.099  0.0523  0.2287  0.0325
19336TIP3    H179423   0.380   0.951   6.163 -1.7267 -0.9773  2.5514
19336TIP3    H279424   0.252   0.992   6.093  0.9342  0.9416 -1.5908
19337TIP3   OH279425   1.691   1.028   4.716  0.1596 -0.2390  0.1834
19337TIP3    H179426   1.758   0.960   4.710  0.4796 -0.6373  4.6523
19337TIP3    H279427   1.612   0.983   4.744 -1.0173  0.7250 -1.3843
19338TIP3   OH279428   0.432   4.361  16.101  0.4823 -0.4766  0.2251
19338TIP3    H179429   0.446   4.351  16.195 -1.0796 -0.5874  0.4827
19338TIP3    H279430   0.485   4.436  16.076  2.7089 -1.8054  0.7265
19339TIP3   OH279431   4.743   4.379   6.578  0.0789  0.4023  0.0833
19339TIP3    H179432   4.649   4.381   6.594 -0.1548  0.6378 -1.1967
19339TIP3    H279433   4.776   4.461   6.615 -0.2798  0.5161  0.1550
19340TIP3   OH279434   3.977   4.042  14.985  0.1852  0.6406 -0.5734
19340TIP3    H179435   3.885   4.022  14.970  0.1587  1.4171 -1.5758
19340TIP3    H279436   3.976   4.115  15.046  0.1790 -0.0126  0.2239
19341TIP3   OH279437   2.973   4.658   1.342 -0.4274  0.2771  0.1062
19341TIP3    H179438   2.988   4.638   1.250 -0.0886  1.3597 -0.0848
19341TIP3    H279439   3.029   4.595   1.389 -0.7762 -0.4269 -0.4070
19342TIP3   OH279440   2.478   6.756   4.051 -0.6942 -0.0470  0.6403
19342TIP3    H179441   2.511   6.802   4.128  0.6947  0.2939 -0.1310
19342TIP3    H279442   2.463   6.825   3.987  1.2498 -0.6156 -0.4778
19343TIP3   OH279443   3.147   5.531   5.175  0.1615 -0.2730 -0.0111
19343TIP3    H179444   3.114   5.534   5.085  0.2583  1.8939 -0.0121
19343TIP3    H279445   3.240   5.513   5.166  0.0922 -0.4810 -0.3163
19344TIP3   OH279446   4.640   3.664   1.273  0.2351 -0.0521  0.1038
19344TIP3    H179447   4.724   3.633   1.306  0.2062  1.7991  2.1243
19344TIP3    H279448   4.660   3.698   1.186  0.7139 -3.2087 -1.1768
19345TIP3   OH279449   0.076   2.595   5.394  0.4089 -0.6648 -0.2903
19345TIP3    H179450   0.014   2.605   5.322 -1.6032 -1.2906  1.2392
19345TIP3    H279451   0.069   2.676   5.444 -0.2672 -1.2633  0.6398
19346TIP3   OH279452   5.008   4.055   1.216 -0.6136  0.1781  0.4808
19346TIP3    H179453   4.962   4.135   1.193  0.5302  0.2995 -1.7701
19346TIP3    H279454   4.993   3.997   1.141  4.4047  0.9873 -1.5525
19347TIP3   OH279455   0.864   0.252   3.271  0.1857  0.0655 -0.4088
19347TIP3    H179456   0.892   0.217   3.355  0.6566  2.5729  0.5767
19347TIP3    H279457   0.944   0.258   3.220  0.1586  0.0113 -0.4579
19348TIP3   OH279458   3.202   2.726   0.194 -0.3922 -0.2242  0.1786
19348TIP3    H179459   3.194   2.653   0.132 -1.5204  0.3045 -0.3343
19348TIP3    H279460   3.205   2.804   0.138  0.8430  0.1337  0.7203
19349TIP3   OH279461   0.958   5.690   0.979 -0.2614 -0.1843 -0.5862
19349TIP3    H179462   0.900   5.764   0.963  0.0952  0.3881  0.6433
19349TIP3    H279463   0.900   5.615   0.990 -0.9734  0.6701  2.3484
19350TIP3   OH279464   1.927   4.941  15.551  0.1871  0.4418 -0.2214
19350TIP3    H179465   1.921   4.992  15.633 -1.9467  0.3122 -0.2525
19350TIP3    H279466   2.004   4.886  15.564 -0.0131  0.5103  1.6727
19351TIP3   OH279467   5.717   6.740  12.008  0.1058 -0.0400  0.0990
19351TIP3    H179468   5.691   6.728  12.099  0.7667 -2.9480  0.0007
19351TIP3    H279469   5.634   6.742  11.960 -0.3248 -3.5981  0.3673
19352TIP3   OH279470   0.963   4.345   1.503  0.2041  0.3480  0.5473
19352TIP3    H179471   0.983   4.256   1.475 -0.7438  0.3512 -0.1661
19352TIP3    H279472   0.874   4.361   1.472  1.3847  2.6288 -2.1348
19353TIP3   OH279473   5.839   1.011   3.022 -0.2143  0.0239 -0.2960
19353TIP3    H179474   5.762   1.041   3.071 -1.2820 -0.0448 -1.8561
19353TIP3    H279475   5.804   0.943   2.963  1.4313 -1.5178  0.4209
19354TIP3   OH279476   3.558   2.592  13.871 -0.2281  0.4833  0.0198
19354TIP3    H179477   3.612   2.565  13.796 -1.6926  1.2248 -1.3661
19354TIP3    H279478   3.524   2.678  13.846 -0.6127  0.8288  1.6373
19355TIP3   OH279479   0.930   4.398   1.197  0.6477  0.2310  0.5920
19355TIP3    H179480   0.985   4.325   1.222  3.2971  2.9119  3.4626
19355TIP3    H279481   0.992   4.466   1.170 -1.5095  2.1534  0.2072
19356TIP3   OH279482   0.273   1.120  16.498 -0.3208 -0.0735  0.2692
19356TIP3    H179483   0.239   1.209  16.504 -0.5347 -0.1786  0.6706
19356TIP3    H279484   0.196   1.066  16.481 -0.2054 -0.1925  0.1235
19357TIP3   OH279485   0.037   3.329  15.067  0.3578 -0.2220  0.0476
19357TIP3    H179486   0.092   3.374  15.002 -1.3636  1.0379 -0.6128
19357TIP3    H279487   0.041   3.237  15.042  2.3738 -0.2274  0.2074
19358TIP3   OH279488   4.083   3.554   4.610 -0.3689  0.2793  0.4926
19358TIP3    H179489   4.118   3.636   4.575 -0.4468  0.3802  0.6497
19358TIP3    H279490   3.998   3.545   4.568 -0.0278 -0.1287 -0.1346
19359TIP3   OH279491   6.525   1.148   3.291 -0.3245 -0.0055  0.4516
19359TIP3    H179492   6.552   1.059   3.266  1.1811 -0.5512  3.5959
19359TIP3    H279493   6.593   1.204   3.255 -0.6149 -0.2197 -0.4706
19360TIP3   OH279494   6.320   4.566   1.946  0.7295  0.0944 -0.0761
19360TIP3    H179495   6.235   4.528   1.925  1.0786  0.4841 -2.3963
19360TIP3    H279496   6.310   4.598   2.036 -0.8694 -1.7262  0.4710
19361TIP3   OH279497   2.383   3.758   5.824  0.1323 -0.0962  0.7311
19361TIP3    H179498   2.340   3.705   5.892 -0.3880  1.8919  2.0492
19361TIP3    H279499   2.344   3.729   5.742 -1.9307 -0.0901  1.6559
19362TIP3   OH279500   3.276   4.820   1.725  0.0591 -0.4042  0.2083
19362TIP3    H179501   3.200   4.845   1.674 -0.2959  0.0068  0.9214
19362TIP3    H279502   3.272   4.875   1.803  2.1544  1.0483 -0.6107
19363TIP3   OH279503   4.797   3.843  14.376  0.6960 -0.6032  0.0527
19363TIP3    H179504   4.713   3.800  14.357  0.8097 -1.4118  1.2488
19363TIP3    H279505   4.801   3.846  14.472  0.6467  2.2143  0.0667
19364TIP3   OH279506   1.441   2.816  12.175 -0.1104 -0.9249 -0.0309
19364TIP3    H179507   1.390   2.748  12.132 -0.5680 -0.5115 -0.1571
19364TIP3    H279508   1.415   2.897  12.130 -0.6335 -0.4735  1.0484
19365TIP3   OH279509   0.760   6.729   0.480  0.1375 -0.8138 -0.4209
19365TIP3    H179510   0.789   6.754   0.392  1.6037  1.5924  0.6576
19365TIP3    H279511   0.676   6.773   0.490 -0.1329 -1.2645 -0.6831
19366TIP3   OH279512   0.425   5.245  16.299 -0.6185  0.2786 -0.4061
19366TIP3    H179513   0.453   5.159  16.268 -2.1488  0.7817 -3.6253
19366TIP3    H279514   0.476   5.307  16.247  0.0283  1.3771  1.4352
19367TIP3   OH279515   2.962   5.900  16.309  0.1584 -0.0224  0.0470
19367TIP3    H179516   2.915   5.845  16.247 -0.4626  0.8974 -0.3231
19367TIP3    H279517   3.005   5.838  16.369 -0.7201 -0.8958 -0.1996
19368TIP3   OH279518   6.179   1.985   1.400 -0.0213 -0.4567 -0.7606
19368TIP3    H179519   6.187   1.890   1.389 -0.8945 -0.5738 -0.4490
19368TIP3    H279520   6.187   2.021   1.312 -1.6147 -0.9737 -1.1439
19369TIP3   OH279521   5.988   3.120   6.640  0.3457  0.1241  0.1343
19369TIP3    H179522   5.931   3.186   6.602  0.7145  0.1642 -0.3598
19369TIP3    H279523   5.964   3.039   6.595  0.4099  0.0674  0.2021
19370TIP3   OH279524   4.211   5.465  13.111 -0.5672  0.3971 -0.1842
19370TIP3    H179525   4.272   5.406  13.066 -1.8623 -0.5575 -0.7388
19370TIP3    H279526   4.125   5.431  13.089 -1.3078  1.6706  0.6680
19371TIP3   OH279527   3.394   6.427   1.314 -0.5711  0.0357 -0.0554
19371TIP3    H179528   3.387   6.343   1.360 -0.0999  0.8002  1.4766
19371TIP3    H279529   3.466   6.472   1.358 -1.2204  1.4853 -0.4347
19372TIP3   OH279530   2.267   5.639   0.458  0.3989 -0.0930  0.1680
19372TIP3    H179531   2.210   5.686   0.396  1.3853 -0.1280 -0.7953
19372TIP3    H279532   2.281   5.554   0.417 -0.6462 -0.9356  1.4795
19373TIP3   OH279533   1.172   3.959   2.740 -0.4480  0.1327  0.3664
19373TIP3    H179534   1.170   3.899   2.665  0.4260  1.0676 -0.4454
19373TIP3    H279535   1.241   4.022   2.718  1.2519 -0.7125  2.8832
19374TIP3   OH279536   4.288   0.299   3.740 -0.0277 -0.2267 -0.3100
19374TIP3    H179537   4.279   0.226   3.802  0.8496  1.2211  1.6248
19374TIP3    H279538   4.203   0.343   3.742  0.4293  0.6446  1.0127
19375TIP3   OH279539   2.295   0.602  17.004 -0.0018  0.2805 -0.1347
19375TIP3    H179540   2.295   0.567  16.915 -0.9129  1.6444 -0.6904
19375TIP3    H279541   2.208   0.638  17.016  0.2074  0.3784  1.2141
19376TIP3   OH279542   0.666   2.696   3.199 -0.1020 -1.0278  0.0408
19376TIP3    H179543   0.610   2.731   3.269  0.1320 -1.8908  0.6637
19376TIP3    H279544   0.671   2.602   3.216  2.1162 -0.8938  0.4121
19377TIP3   OH279545   4.302   3.705   3.415  0.1783 -0.3410  0.4025
19377TIP3    H179546   4.350   3.634   3.457 -0.3725  0.2549  2.1408
19377TIP3    H279547   4.214   3.669   3.400  0.7093 -0.9727 -1.5043
19378TIP3   OH279548   1.814   0.078   1.538  0.5514  0.0033  0.5409
19378TIP3    H179549   1.907   0.059   1.533  0.5212  0.1125 -1.7146
19378TIP3    H279550   1.800   0.146   1.472 -1.1278 -0.0962  0.7534
19379TIP3   OH279551   6.310   6.100   1.228  0.1427 -0.3158 -0.3305
19379TIP3    H179552   6.361   6.026   1.196 -0.6880 -0.8705 -0.4195
19379TIP3    H279553   6.231   6.100   1.173 -1.0003 -0.8666  1.2371
19380TIP3   OH279554   1.274   2.336   3.008  0.1431  0.4272  0.4824
19380TIP3    H179555   1.186   2.373   3.014 -0.1983 -0.4485  1.2821
19380TIP3    H279556   1.322   2.396   2.952 -1.7429 -0.5736 -2.4070
19381TIP3   OH279557   0.025   5.016  12.268  0.2258 -0.0839  0.4413
19381TIP3    H179558   0.089   4.949  12.242  1.3126  0.6768  1.0524
19381TIP3    H279559   0.011   5.067  12.188  1.3537  0.4902  0.5803
19382TIP3   OH279560   3.251   5.790  16.447  0.4162  0.3483  0.3081
19382TIP3    H179561   3.189   5.833  16.506  0.5514  2.6031 -1.0952
19382TIP3    H279562   3.280   5.859  16.387  2.6327 -1.1447 -0.4731
19383TIP3   OH279563   3.276   1.159   0.533 -0.0802  0.0146  0.2741
19383TIP3    H179564   3.207   1.117   0.482 -0.5387  1.1672 -0.0811
19383TIP3    H279565   3.320   1.086   0.577  0.8460 -1.1269 -2.3403
19384TIP3   OH279566   4.198   2.942  13.075  0.4156  0.0609 -0.3738
19384TIP3    H179567   4.258   2.945  13.149  0.2515 -0.4027 -0.2136
19384TIP3    H279568   4.253   2.924  12.999  0.6647  1.1790 -0.4715
19385TIP3   OH279569   4.216   2.896  14.218  0.6050 -0.6105 -0.5275
19385TIP3    H179570   4.154   2.968  14.205 -1.0015 -1.6252  0.9958
19385TIP3    H279571   4.184   2.827  14.161 -0.9845 -1.8533  1.7331
19386TIP3   OH279572   1.543   1.055  14.345  0.0701  0.1276 -0.7461
19386TIP3    H179573   1.500   1.055  14.430 -1.9645 -1.9213 -1.6465
19386TIP3    H279574   1.546   1.147  14.319 -2.8340  0.5015 -0.0890
19387TIP3   OH279575   2.070   3.504   0.052  0.0161  0.1917  0.1179
19387TIP3    H179576   2.112   3.441   0.110 -0.2691  1.0611  1.3224
19387TIP3    H279577   2.035   3.452  -0.020  1.0132 -0.8341  0.3491
19388TIP3   OH279578   2.617   3.577  15.322  0.0463 -0.3731 -0.0863
19388TIP3    H179579   2.607   3.487  15.351 -1.3258  0.0260  0.7628
19388TIP3    H279580   2.708   3.599  15.345  0.1457 -1.2775  0.4467
19389TIP3   OH279581   3.533   2.989  11.062  0.4017  0.1301  0.4653
19389TIP3    H179582   3.531   3.046  10.985 -1.9681  0.3323  0.5965
19389TIP3    H279583   3.564   3.046  11.132  1.9748  0.1134 -0.1774
19390TIP3   OH279584   2.561   1.947  11.721 -0.5996 -0.5578 -0.4744
19390TIP3    H179585   2.544   1.856  11.696 -0.1459 -0.5093 -0.9671
19390TIP3    H279586   2.546   1.997  11.641 -1.3798 -0.1244 -0.0737
19391TIP3   OH279587   2.804   4.264  11.026 -0.0702 -0.5499  0.0850
19391TIP3    H179588   2.733   4.231  11.082 -0.5399 -0.7675 -0.6267
19391TIP3    H279589   2.876   4.282  11.087 -1.2187  1.0930  1.0238
19392TIP3   OH279590   2.591   6.036  12.646 -0.4064  0.1867  0.2247
19392TIP3    H179591   2.543   6.006  12.723 -0.2727 -0.0053  0.2349
19392TIP3    H279592   2.543   6.113  12.616  1.0593  1.9568  2.1046
19393TIP3   OH279593   6.051   1.635   2.364 -0.2197 -0.4530 -0.2216
19393TIP3    H179594   5.978   1.696   2.367  0.1763  0.0883 -1.0848
19393TIP3    H279595   6.086   1.634   2.453 -0.2351  0.5900 -0.1936
19394TIP3   OH279596   2.611   2.283  14.632  0.2848  0.0988 -0.4789
19394TIP3    H179597   2.662   2.349  14.584  0.4630  0.2090 -0.1407
19394TIP3    H279598   2.671   2.209  14.642 -0.1196 -0.3624 -1.4054
19395TIP3   OH279599   2.938   1.780  15.559  0.6723  0.6964 -0.1040
19395TIP3    H179600   3.000   1.707  15.557 -0.1592 -0.0605  0.6156
19395TIP3    H279601   2.854   1.741  15.534  0.6683  1.9467 -2.2633
19396TIP3   OH279602   2.099   6.008   4.825 -0.4160 -0.5021 -0.1191
19396TIP3    H179603   2.185   5.984   4.861  0.1166  0.8898 -0.4118
19396TIP3    H279604   2.037   5.955   4.875  0.3619  0.6027  2.1897
19397TIP3   OH279605   4.758   6.609  12.329  0.3775  0.2215 -0.2043
19397TIP3    H179606   4.772   6.636  12.420 -1.3040 -0.2417  0.2280
19397TIP3    H279607   4.845   6.587  12.297  1.1882  1.7243  0.8441
19398TIP3   OH279608   0.352   5.735   4.364 -0.4502  0.1807 -0.2786
19398TIP3    H179609   0.415   5.706   4.430 -0.4333  2.0725  0.6069
19398TIP3    H279610   0.324   5.655   4.320  1.2277 -0.8894  0.5066
19399TIP3   OH279611   5.340   4.121  13.976 -0.2670  0.5711  0.2992
19399TIP3    H179612   5.294   4.191  13.932  2.4921  1.3366 -1.6674
19399TIP3    H279613   5.398   4.165  14.038 -0.5548 -0.1919  1.1381
19400TIP3   OH279614   1.593   2.188  14.260  0.5517  0.0547 -0.2612
19400TIP3    H179615   1.687   2.205  14.254  0.7772 -0.9804  0.1375
19400TIP3    H279616   1.567   2.229  14.343  1.0401 -1.2209  0.5625
19401TIP3   OH279617   6.416   2.785  13.753  0.0607 -0.4222  0.3371
19401TIP3    H179618   6.363   2.813  13.678 -0.0411  1.5931  1.1027
19401TIP3    H279619   6.357   2.733  13.807 -0.3608 -0.4232 -0.1224
19402TIP3   OH279620   0.852   3.015  16.078 -0.4820  0.3362  0.6399
19402TIP3    H179621   0.852   2.933  16.027  0.3715  0.9294 -0.3433
19402TIP3    H279622   0.854   2.986  16.169 -0.6207 -0.7413  0.3173
19403TIP3   OH279623   5.148   3.224   1.268 -0.3168  0.5942  0.5360
19403TIP3    H179624   5.125   3.175   1.347  0.3651 -0.5694  0.0445
19403TIP3    H279625   5.173   3.311   1.300  0.7378 -0.1032  1.7076
19404TIP3   OH279626   6.607   2.705  15.603 -0.1840 -0.7450 -0.3490
19404TIP3    H179627   6.515   2.678  15.594 -0.2943 -0.5687  0.1821
19404TIP3    H279628   6.608   2.796  15.573 -0.5159 -0.2150  1.1161
19405TIP3   OH279629   4.887   0.787   2.309 -0.4753 -0.1215  0.2364
19405TIP3    H179630   4.843   0.865   2.277  1.6225  0.3846 -1.7041
19405TIP3    H279631   4.890   0.728   2.234  0.5880 -0.8117  0.7855
19406TIP3   OH279632   1.504   4.777  15.639 -0.1780  0.2808  0.0034
19406TIP3    H179633   1.590   4.738  15.621  0.3055  0.9631  0.7384
19406TIP3    H279634   1.521   4.838  15.710 -1.3684  0.0988  0.4621
19407TIP3   OH279635   4.344   6.121   2.247  0.0074 -0.2511 -0.5399
19407TIP3    H179636   4.427   6.126   2.201 -0.1898 -1.1167 -1.0041
19407TIP3    H279637   4.287   6.069   2.190 -1.0041  0.6988 -0.4498
19408TIP3   OH279638   4.849   0.057  15.964 -0.2096  0.3328 -0.2609
19408TIP3    H179639   4.868   0.151  15.962 -0.7800  0.5251  1.5287
19408TIP3    H279640   4.910   0.022  16.028 -1.3790 -0.1477  0.6306
19409TIP3   OH279641   4.339   2.392   0.014 -0.1086 -0.1632  0.6546
19409TIP3    H179642   4.430   2.367  -0.002 -0.7403 -2.0429 -0.2808
19409TIP3    H279643   4.313   2.339   0.089 -0.9639 -1.0664 -0.2532
19410TIP3   OH279644   4.783   4.807   3.763  0.0180 -0.2778 -0.2202
19410TIP3    H179645   4.822   4.818   3.676 -0.0855  0.7811 -0.1559
19410TIP3    H279646   4.729   4.886   3.775 -0.0296 -0.4430  0.7749
19411TIP3   OH279647   2.815   5.022  12.347  0.1589  0.4199  0.1883
19411TIP3    H179648   2.823   4.984  12.259 -0.7369 -0.9587  0.6795
19411TIP3    H279649   2.905   5.025  12.379  0.5682  1.5018 -0.9920
19412TIP3   OH279650   4.379   3.670  14.618 -0.2114 -0.6335  0.2642
19412TIP3    H179651   4.419   3.601  14.566  0.8601  0.5959 -0.5975
19412TIP3    H279652   4.297   3.632  14.650  0.3157 -2.2572 -0.2396
19413TIP3   OH279653   1.431   3.535  15.350 -0.6418 -0.2178  0.0478
19413TIP3    H179654   1.490   3.473  15.308 -0.9461 -0.5830  0.1529
19413TIP3    H279655   1.434   3.511  15.443  2.2613  2.3565  0.8071
19414TIP3   OH279656   6.246   5.184   4.037  0.1396  0.9930  0.0576
19414TIP3    H179657   6.152   5.172   4.027 -0.3317  2.4711  2.1165
19414TIP3    H279658   6.270   5.129   4.112  0.8043  1.0896 -0.0760
19415TIP3   OH279659   1.268   4.528   5.481  0.4411  0.0042  0.4958
19415TIP3    H179660   1.283   4.621   5.495  2.2795 -0.0570 -0.7176
19415TIP3    H279661   1.355   4.492   5.463 -0.4210 -1.6500 -0.6458
19416TIP3   OH279662   2.691   4.939   2.934  0.4208 -0.3493 -0.5005
19416TIP3    H179663   2.640   4.916   2.856 -3.7770 -1.0653  2.1032
19416TIP3    H279664   2.657   5.024   2.960  1.6295 -0.1840  0.6298
19417TIP3   OH279665   6.068   4.729   2.489  0.3194 -0.5788 -0.3141
19417TIP3    H179666   6.137   4.782   2.529 -0.5900  1.4728 -1.3705
19417TIP3    H279667   5.991   4.743   2.545  0.4587 -2.1745  0.3590
19418TIP3   OH279668   3.186   5.961  15.957 -0.0902  0.6099  0.1430
19418TIP3    H179669   3.233   5.898  16.012 -0.2339  0.1486 -0.2513
19418TIP3    H279670   3.250   6.028  15.936  0.2783  0.1987 -0.0562
19419TIP3   OH279671   1.820   3.362  13.270  0.6360  0.3931  0.6743
19419TIP3    H179672   1.767   3.408  13.205 -0.1498 -0.4552  0.6914
19419TIP3    H279673   1.903   3.344  13.226  0.1910  0.0223 -0.0209
19420TIP3   OH279674   5.222   1.355  13.537  0.5675 -0.3567 -0.5693
19420TIP3    H179675   5.206   1.360  13.443  0.7582 -0.7213 -0.6243
19420TIP3    H279676   5.165   1.283  13.567 -0.8407  0.8874 -0.0993
19421TIP3   OH279677   2.035   4.706   2.076 -0.4018 -0.3381  0.0171
19421TIP3    H179678   2.081   4.697   1.992 -0.7826 -1.2461 -0.1050
19421TIP3    H279679   1.943   4.700   2.053 -0.4895 -1.4801  0.5839
19422TIP3   OH279680   5.738   1.938   4.991 -0.1445 -0.1352 -0.1878
19422TIP3    H179681   5.797   1.870   4.957  1.9080  1.5954 -0.3397
19422TIP3    H279682   5.658   1.892   5.013  1.1011 -2.5734 -0.4227
19423TIP3   OH279683   3.209   1.531   5.920 -0.4559  0.0849 -0.1669
19423TIP3    H179684   3.192   1.571   5.835  0.7385 -1.1515 -1.0122
19423TIP3    H279685   3.303   1.516   5.922 -0.3530  0.7091  1.6716
19424TIP3   OH279686   3.385   3.630  15.361 -0.7575 -0.4239  0.2056
19424TIP3    H179687   3.317   3.577  15.319 -0.9074  0.8542 -1.2327
19424TIP3    H279688   3.378   3.607  15.454 -2.0063 -1.5801 -0.1316
19425TIP3   OH279689   1.827   4.684  10.825 -0.5205  0.2139  0.1368
19425TIP3    H179690   1.846   4.754  10.762 -2.2514  2.4167  1.8965
19425TIP3    H279691   1.901   4.684  10.885  0.0224 -0.2771 -0.5223
19426TIP3   OH279692   0.067   2.600   0.860  0.0515  1.0778 -0.6401
19426TIP3    H179693   0.050   2.568   0.949 -0.8770  2.9285 -0.1188
19426TIP3    H279694  -0.010   2.573   0.810 -0.2686  1.6155 -0.4408
19427TIP3   OH279695   1.506   4.446   0.337  0.1791  0.6554 -0.0099
19427TIP3    H179696   1.457   4.521   0.303  1.2188  1.5820  0.4465
19427TIP3    H279697   1.514   4.387   0.262 -0.2123  1.2400 -0.5279
19428TIP3   OH279698   5.333   0.348   4.852 -0.4787  0.3552 -0.1480
19428TIP3    H179699   5.361   0.260   4.878 -0.5350  0.5387  0.5760
19428TIP3    H279700   5.404   0.380   4.796 -0.8024 -0.4193 -1.0311
19429TIP3   OH279701   4.993   4.123  13.838 -0.6915  0.3806 -0.1160
19429TIP3    H179702   4.917   4.179  13.855 -0.9783 -0.2132  0.6057
19429TIP3    H279703   4.972   4.081  13.754 -1.5388 -0.3721  0.4517
19430TIP3   OH279704   0.834   3.795  12.744 -0.2415 -0.0789  0.0207
19430TIP3    H179705   0.922   3.759  12.756  0.6298  2.1664  0.7723
19430TIP3    H279706   0.790   3.781  12.828 -0.4970 -0.8657 -0.2350
19431TIP3   OH279707   5.215   0.319   3.549 -0.3467  0.1961  0.2666
19431TIP3    H179708   5.250   0.231   3.534  1.2641  0.8700 -0.1321
19431TIP3    H279709   5.216   0.361   3.463 -0.4076  0.8421  0.5682
19432TIP3   OH279710   1.997   5.053   1.822  0.4864 -0.2966 -0.2283
19432TIP3    H179711   2.053   4.982   1.792  0.7848 -0.8106  1.4410
19432TIP3    H279712   1.935   5.012   1.882 -1.0454  0.4431 -1.2243
19433TIP3   OH279713   6.751   3.951   4.529  0.0335 -0.1461 -0.2570
19433TIP3    H179714   6.733   3.858   4.538  0.3002 -0.2272 -0.5370
19433TIP3    H279715   6.808   3.972   4.603 -0.2117 -0.1526 -0.0636
19434TIP3   OH279716   0.075   0.106   5.066 -0.4742 -0.1366  0.2627
19434TIP3    H179717   0.055   0.083   5.156 -0.6824  0.3468  0.3414
19434TIP3    H279718   0.124   0.031   5.032 -1.3878 -0.8194  0.4229
19435TIP3   OH279719   0.628   4.347  17.091 -0.2661 -0.1448 -0.1332
19435TIP3    H179720   0.660   4.410  17.156  2.3083 -2.4227  1.0263
19435TIP3    H279721   0.594   4.275  17.143 -0.3694 -1.0014 -1.3570
19436TIP3   OH279722   5.219   6.738   4.543  0.3235  0.0091 -0.4488
19436TIP3    H179723   5.313   6.730   4.522  0.4554 -3.1624  0.8331
19436TIP3    H279724   5.192   6.650   4.567 -2.8959  0.9545 -0.1220
19437TIP3   OH279725   5.136   4.151  14.639 -0.1122 -0.1240  0.2383
19437TIP3    H179726   5.172   4.190  14.719  0.1105  1.6657 -0.6942
19437TIP3    H279727   5.043   4.173  14.642 -0.3882 -1.2574  0.6501
19438TIP3   OH279728   1.944   0.837   3.913  0.2269 -0.0418 -0.3775
19438TIP3    H179729   2.029   0.817   3.953  0.3643  0.4810 -0.4028
19438TIP3    H279730   1.882   0.780   3.959  0.3581  0.6619  0.7060
19439TIP3   OH279731   4.003   5.035   4.814 -0.2893  0.0535 -0.1099
19439TIP3    H179732   3.916   5.061   4.784 -0.3366 -0.6364 -0.5987
19439TIP3    H279733   4.047   5.003   4.735 -0.4841 -2.0034  0.5575
19440TIP3   OH279734   5.440   5.129   3.279 -0.0857  0.3914 -0.1079
19440TIP3    H179735   5.429   5.043   3.238 -0.6594  0.6946 -0.6146
19440TIP3    H279736   5.360   5.177   3.256  0.9355  1.6247 -1.2356
19441TIP3   OH279737   1.990   5.972   0.125  0.0455 -0.1462 -0.1271
19441TIP3    H179738   1.957   5.887   0.153 -0.8721  0.0262 -0.6633
19441TIP3    H279739   1.945   6.035   0.182 -0.3134  0.0702 -0.6514
19442TIP3   OH279740   4.193   5.476   1.752  0.0814  0.4583 -0.1063
19442TIP3    H179741   4.139   5.518   1.819  1.4937  0.1359  1.2801
19442TIP3    H279742   4.178   5.382   1.765  1.4250  0.3451  0.6861
19443TIP3   OH279743   1.658   0.250  14.790  0.3766  0.2203  0.1883
19443TIP3    H179744   1.669   0.259  14.884  0.9203  0.4757  0.1045
19443TIP3    H279745   1.635   0.338  14.760 -0.1588  0.0645  0.1266
19444TIP3   OH279746   3.384   3.518  15.009  0.3723  0.4714  0.2211
19444TIP3    H179747   3.378   3.441  15.066 -1.0544  0.0170 -0.5098
19444TIP3    H279748   3.295   3.531  14.977  0.9393  1.3726 -1.0505
19445TIP3   OH279749   5.737   0.553  13.589  0.1133 -0.6562  0.1589
19445TIP3    H179750   5.785   0.516  13.515  2.1878  1.7777  0.1977
19445TIP3    H279751   5.698   0.634  13.555  0.4853  0.1213  1.5268
19446TIP3   OH279752   4.403   4.287  13.352  0.8860 -0.2870  0.4238
19446TIP3    H179753   4.381   4.229  13.425  0.3782 -0.1011  0.4236
19446TIP3    H279754   4.456   4.356  13.392  1.4456 -0.7163  0.4328
19447TIP3   OH279755   1.148   4.482  13.846 -0.1962  0.4846  0.3105
19447TIP3    H179756   1.123   4.393  13.871  1.0979 -0.1950 -0.6740
19447TIP3    H279757   1.068   4.533  13.854 -0.7473 -0.5540  1.8226
19448TIP3   OH279758   5.658   4.110  16.173  0.1325  0.0140 -0.3518
19448TIP3    H179759   5.733   4.081  16.122  2.4231  0.2164  2.6548
19448TIP3    H279760   5.620   4.029  16.208 -0.1970 -0.0016 -0.7435
19449TIP3   OH279761   6.098   2.758  15.075 -1.2369 -0.3599 -0.2036
19449TIP3    H179762   6.108   2.789  14.985 -1.9197 -0.1906 -0.2273
19449TIP3    H279763   6.020   2.702  15.072 -2.5362  1.2812  0.6671
19450TIP3   OH279764   6.576   2.440  12.452 -0.3200 -0.0234 -0.7899
19450TIP3    H179765   6.483   2.464  12.449 -0.1376  0.6618 -1.2508
19450TIP3    H279766   6.578   2.348  12.423 -1.1234 -0.9656  1.8496
19451TIP3   OH279767   4.889   0.505  14.141  0.1561 -0.1120  0.4971
19451TIP3    H179768   4.906   0.563  14.066 -1.7569  0.1119  0.1801
19451TIP3    H279769   4.940   0.427  14.123 -0.4021 -0.1410 -1.1709
19452TIP3   OH279770   6.125   5.541   6.340 -0.5374 -0.2819  0.4179
19452TIP3    H179771   6.159   5.543   6.251 -0.4244 -1.6581  0.4153
19452TIP3    H279772   6.199   5.566   6.395 -0.9128  1.7489  0.0834
19453TIP3   OH279773   4.193   1.914  15.788 -0.3981  0.3490 -0.9496
19453TIP3    H179774   4.278   1.902  15.746  0.0660 -0.5276  0.1759
19453TIP3    H279775   4.192   1.849  15.859 -1.5769  1.0491 -0.2848
19454TIP3   OH279776   5.948   5.238   6.089  0.0855 -0.4364 -0.4353
19454TIP3    H179777   5.944   5.234   6.184 -0.0251 -2.9602 -0.4700
19454TIP3    H279778   6.042   5.240   6.069  0.1210 -0.4368 -0.2727
19455TIP3   OH279779   6.389   6.627  12.430  0.6968 -0.2677 -0.0676
19455TIP3    H179780   6.471   6.668  12.459  0.4677 -0.2141  0.5309
19455TIP3    H279781   6.382   6.650  12.338  0.5889  1.0285  0.2421
19456TIP3   OH279782   5.661   4.776   0.050  0.0210  0.1974 -0.2051
19456TIP3    H179783   5.593   4.828   0.092  2.8108  1.1785  3.7105
19456TIP3    H279784   5.683   4.824  -0.030 -1.3805  1.8433  0.3378
19457TIP3   OH279785   1.285   1.585   5.257  0.3047  0.6499 -0.3891
19457TIP3    H179786   1.204   1.560   5.212 -0.4595 -0.9483  1.6615
19457TIP3    H279787   1.277   1.680   5.268 -1.6202  0.4754  0.2474
19458TIP3   OH279788   2.331   4.677   0.993  0.3378  0.0371 -0.0418
19458TIP3    H179789   2.334   4.772   0.979 -1.1077  0.3265  1.2898
19458TIP3    H279790   2.410   4.658   1.042  0.6366  0.5483 -0.3115
19459TIP3   OH279791   2.143   3.458   1.700 -0.4977 -0.6326  0.1770
19459TIP3    H179792   2.081   3.387   1.717 -1.3185  0.3205  1.2916
19459TIP3    H279793   2.219   3.438   1.754 -1.0927 -0.2252  1.2005
19460TIP3   OH279794   1.239   0.328   0.417 -0.4739  0.2536 -0.0753
19460TIP3    H179795   1.333   0.345   0.411 -0.8429  2.0841 -1.5364
19460TIP3    H279796   1.232   0.233   0.406  1.2059  0.0277  0.3958
19461TIP3   OH279797   1.304   2.133   4.100  0.1386 -0.0861  0.4850
19461TIP3    H179798   1.252   2.059   4.068  0.1715 -0.5071  1.3727
19461TIP3    H279799   1.314   2.190   4.024  0.6661 -1.3100 -0.3925
19462TIP3   OH279800   6.474   6.148   5.956  0.2925  0.2413  0.6219
19462TIP3    H179801   6.480   6.066   5.906 -0.4460 -0.1526  1.1691
19462TIP3    H279802   6.556   6.194   5.936  1.5406 -1.4099  1.6794
19463TIP3   OH279803   1.905   5.500   5.408  0.0040 -0.4168  0.0085
19463TIP3    H179804   1.853   5.573   5.443  0.5792 -0.3594  0.7834
19463TIP3    H279805   1.970   5.542   5.352  1.2356 -0.1591  1.5497
19464TIP3   OH279806   6.287   5.747   1.681 -0.4026 -0.3193 -0.2874
19464TIP3    H179807   6.202   5.702   1.688 -1.3676  1.0598 -2.1193
19464TIP3    H279808   6.293   5.771   1.588  2.0947 -0.4903 -0.2305
19465TIP3   OH279809   3.851   0.089  14.710  0.0521  0.3773  0.5828
19465TIP3    H179810   3.764   0.122  14.731 -0.6238 -0.0287 -1.4546
19465TIP3    H279811   3.891   0.159  14.658  0.0457 -0.4175 -0.4986
19466TIP3   OH279812   2.223   0.257   0.943 -0.7400 -0.2950  0.0332
19466TIP3    H179813   2.152   0.193   0.949  0.2620 -1.6361 -1.7336
19466TIP3    H279814   2.303   0.205   0.952  0.0926  0.7461 -1.1176
19467TIP3   OH279815   5.844   6.292  16.103 -0.0859  0.2194  0.1757
19467TIP3    H179816   5.851   6.237  16.181  1.7030  0.3629  0.1639
19467TIP3    H279817   5.927   6.339  16.100 -1.3566  2.5637 -0.1166
19468TIP3   OH279818   5.621   1.344  13.927 -0.1857 -0.1956  0.1695
19468TIP3    H179819   5.530   1.364  13.945  0.2975  3.6768 -0.8487
19468TIP3    H279820   5.641   1.269  13.983 -3.0536  0.9228  2.9388
19469TIP3   OH279821   3.367   5.038   3.075 -0.3506 -0.3144  0.3069
19469TIP3    H179822   3.362   5.129   3.045  1.6923  0.5112  2.1259
19469TIP3    H279823   3.321   4.987   3.009 -0.0769  1.8570 -1.6623
19470TIP3   OH279824   0.199   5.893   2.915 -0.0510 -0.2108  0.0302
19470TIP3    H179825   0.198   5.804   2.882 -1.0865 -0.0744 -0.3240
19470TIP3    H279826   0.153   5.944   2.849  0.9009  0.6732  0.0178
19471TIP3   OH279827   3.557   2.227  16.804  0.2281 -0.0548  0.0655
19471TIP3    H179828   3.497   2.240  16.877  0.9162  1.0352  0.4699
19471TIP3    H279829   3.607   2.149  16.827 -1.7615 -1.6851 -0.8243
19472TIP3   OH279830   1.783   4.484   0.461  0.2831  0.1719 -0.0594
19472TIP3    H179831   1.713   4.523   0.409 -0.3257  0.8429  1.2155
19472TIP3    H279832   1.745   4.473   0.548  1.1462 -1.2845  0.1671
19473TIP3   OH279833   5.268   4.277  16.914  0.9052 -0.7105 -0.2892
19473TIP3    H179834   5.284   4.198  16.863  0.9151 -0.7106 -0.2858
19473TIP3    H279835   5.253   4.246  17.003  2.0921 -0.6247 -0.0470
19474TIP3   OH279836   2.024   4.110   2.805 -0.7701  0.0662 -0.1328
19474TIP3    H179837   2.030   4.020   2.775  0.7877  0.1262 -0.1286
19474TIP3    H279838   2.016   4.162   2.725 -1.0765 -0.0382 -0.1700
19475TIP3   OH279839   0.688   4.797   7.025 -0.0747  0.0817 -0.4406
19475TIP3    H179840   0.781   4.779   7.014 -0.4945 -2.9226  0.2264
19475TIP3    H279841   0.651   4.785   6.937  0.2918  2.7806 -1.0450
19476TIP3   OH279842   4.536   0.003  11.787  0.1517  0.1394  0.1101
19476TIP3    H179843   4.581   0.070  11.736 -1.0775  1.8509  1.1781
19476TIP3    H279844   4.585  -0.001  11.869  0.1535 -0.1764  0.0928
19477TIP3   OH279845   5.990   2.460  16.451 -0.1941  0.3067 -0.0412
19477TIP3    H179846   5.943   2.514  16.386  0.3660  1.1936  0.2800
19477TIP3    H279847   5.954   2.372  16.438 -0.9336  0.6936 -0.7606
19478TIP3   OH279848   5.597   4.486  15.994  0.8778  0.0525  0.6527
19478TIP3    H179849   5.686   4.457  16.015  1.1439 -0.3105 -0.8528
19478TIP3    H279850   5.604   4.522  15.906 -0.8938 -2.0435 -0.4478
19479TIP3   OH279851   3.787   2.384  11.451 -0.2360 -0.0989 -0.1952
19479TIP3    H179852   3.694   2.403  11.466  0.0039  0.7490  0.2620
19479TIP3    H279853   3.834   2.454  11.497  0.6061  0.5809 -1.9931
19480TIP3   OH279854   3.669   6.374  12.356  0.7974  0.6770  0.3067
19480TIP3    H179855   3.695   6.346  12.443 -0.4774  0.5566  0.6677
19480TIP3    H279856   3.638   6.464  12.368 -0.9846  0.1088  0.3374
19481TIP3   OH279857   4.087   4.967   6.511  0.1964  0.1903 -0.6185
19481TIP3    H179858   4.051   4.908   6.577  0.5511  1.0076  0.3148
19481TIP3    H279859   4.161   4.919   6.474  0.5679  0.1092  0.2220
19482TIP3   OH279860   1.286   2.886   3.649 -0.1591  0.0169 -0.0722
19482TIP3    H179861   1.198   2.895   3.686 -0.2661 -0.7902 -0.1108
19482TIP3    H279862   1.334   2.834   3.714  0.9036  2.1217  0.9219
19483TIP3   OH279863   4.956   3.787   1.480  0.2516  0.1617 -0.5237
19483TIP3    H179864   5.032   3.814   1.530  0.2461  0.7447 -0.8243
19483TIP3    H279865   4.992   3.749   1.400  0.2646 -0.8832 -0.0329
19484TIP3   OH279866   3.245   0.716   3.617  0.1034  1.0265  0.1855
19484TIP3    H179867   3.291   0.786   3.570  1.4026 -0.3603 -0.7016
19484TIP3    H279868   3.275   0.636   3.575 -0.8853 -0.1167  1.5725
19485TIP3   OH279869   0.876   3.088   1.104  0.7160 -0.1347  0.5552
19485TIP3    H179870   0.844   3.001   1.080  0.5800 -0.0800  0.5371
19485TIP3    H279871   0.828   3.109   1.184 -0.8706  0.8269 -0.5762
19486TIP3   OH279872   2.232   6.742   3.298  0.5659 -0.1080  0.1408
19486TIP3    H179873   2.196   6.689   3.369 -1.5293  1.5161  0.3673
19486TIP3    H279874   2.199   6.701   3.218  1.0089 -0.5606  0.1804
19487TIP3   OH279875   3.974   1.017  11.960  0.1745 -0.3062  0.6985
19487TIP3    H179876   3.996   1.064  11.879 -1.3598 -0.4440  0.1561
19487TIP3    H279877   4.047   0.956  11.973  0.5521 -0.1437 -0.4770
19488TIP3   OH279878   1.078   2.163   3.524 -0.0024  0.5508  0.6265
19488TIP3    H179879   1.011   2.229   3.505 -0.1068  0.0382 -0.9149
19488TIP3    H279880   1.074   2.102   3.450  2.2156  0.5414  0.4373
19489TIP3   OH279881   0.374   5.750  15.707  0.3570 -0.2838  0.7184
19489TIP3    H179882   0.464   5.722  15.721 -0.4140 -3.5675 -0.0621
19489TIP3    H279883   0.326   5.721  15.785 -0.4012 -0.5452  0.1697
19490TIP3   OH279884   3.455   0.095   0.055 -0.1182  0.4208  0.3133
19490TIP3    H179885   3.399   0.024   0.086  1.0365 -0.0484  1.3860
19490TIP3    H279886   3.397   0.171   0.049 -1.5821 -0.7565 -1.6598
19491TIP3   OH279887   1.484   1.925   2.619 -0.1765  0.3662  0.0443
19491TIP3    H179888   1.502   1.849   2.673 -1.7847 -0.6717 -0.7712
19491TIP3    H279889   1.556   1.928   2.556  1.6097  1.4787  2.0259
19492TIP3   OH279890   2.630   1.142  16.799  0.2450 -0.0719  0.2317
19492TIP3    H179891   2.646   1.062  16.749  1.2874 -0.4413  1.1230
19492TIP3    H279892   2.535   1.146  16.807  0.1221 -0.5859 -0.8449
19493TIP3   OH279893   4.747   0.530  16.773  0.2040  0.1997  0.1236
19493TIP3    H179894   4.749   0.488  16.687 -1.0930 -0.4736  0.3929
19493TIP3    H279895   4.731   0.458  16.835 -0.8610  0.9024  0.7142
19494TIP3   OH279896   3.186   2.537  12.168  0.2209 -0.0040 -0.0377
19494TIP3    H179897   3.252   2.481  12.128  1.8305  1.0840  0.9644
19494TIP3    H279898   3.152   2.486  12.241  0.7532 -0.1602  0.1041
19495TIP3   OH279899   4.085   6.468  15.665 -0.0285 -0.1257 -0.3338
19495TIP3    H179900   4.013   6.507  15.616  0.5014  1.6734  0.2013
19495TIP3    H279901   4.128   6.410  15.603 -0.5074  0.6349 -1.4143
19496TIP3   OH279902   3.646   2.652  12.508 -0.5248  0.6039 -0.1213
19496TIP3    H179903   3.671   2.721  12.446 -0.3679  0.9961  0.3767
19496TIP3    H279904   3.636   2.697  12.592 -0.8428  0.0920  0.1217
19497TIP3   OH279905   4.791   2.297   5.378  0.3409 -0.8579 -0.3463
19497TIP3    H179906   4.787   2.242   5.457  0.0393  0.1028  0.3335
19497TIP3    H279907   4.715   2.272   5.327 -1.5005  0.8681  1.3291
19498TIP3   OH279908   2.414   5.313  12.301 -0.0358  0.1790 -0.8469
19498TIP3    H179909   2.370   5.271  12.375 -0.9008 -1.6579 -2.3115
19498TIP3    H279910   2.354   5.384  12.275  0.6451  1.3451  0.6326
19499TIP3   OH279911   2.510   4.939  14.328  0.5259 -0.5787 -0.1867
19499TIP3    H179912   2.444   4.956  14.395  0.9627  2.0887 -0.3414
19499TIP3    H279913   2.460   4.940  14.246  0.6018  0.6599 -0.2372
19500TIP3   OH279914   3.195   6.235  14.529 -0.0552  0.2286 -0.1142
19500TIP3    H179915   3.184   6.156  14.476 -0.1038  1.7364 -2.5083
19500TIP3    H279916   3.108   6.274  14.532 -0.4926 -0.7427  2.7911
19501TIP3   OH279917   4.163   1.696   2.724  0.4052 -0.1433 -0.4852
19501TIP3    H179918   4.255   1.703   2.750  0.3789 -0.2295 -0.3732
19501TIP3    H279919   4.144   1.781   2.684 -0.2018  0.8788  1.8327
19502TIP3   OH279920   1.846   6.778  16.793 -0.1253 -0.4570  0.5510
19502TIP3    H179921   1.891   6.707  16.747  0.6476 -0.3234  1.0862
19502TIP3    H279922   1.761   6.740  16.817 -0.7087 -0.4153 -1.2742
19503TIP3   OH279923   1.143   1.694   1.842  0.3050  0.5385  0.0819
19503TIP3    H179924   1.117   1.755   1.910  0.1209 -0.5295  0.9981
19503TIP3    H279925   1.094   1.614   1.861 -0.0073  0.3206 -1.5116
19504TIP3   OH279926   5.123   4.167   2.693 -0.0148  0.2882 -0.5197
19504TIP3    H179927   5.217   4.179   2.684  0.0596 -0.3393 -0.6472
19504TIP3    H279928   5.086   4.200   2.611  0.2184 -0.6980 -1.0368
19505TIP3   OH279929   5.262   3.382   3.346 -0.1115  0.3083  0.0236
19505TIP3    H179930   5.202   3.389   3.421  0.9173  1.7042  0.7736
19505TIP3    H279931   5.349   3.378   3.386  0.4073  0.2009 -1.0932
19506TIP3   OH279932   0.632   1.455   3.592  0.1755 -0.1904  0.1140
19506TIP3    H179933   0.720   1.432   3.562  0.3680 -0.1889  0.6745
19506TIP3    H279934   0.589   1.490   3.514  0.8597  0.3668 -0.0197
19507TIP3   OH279935   1.395   0.297  14.233  0.0391  0.0136  0.1846
19507TIP3    H179936   1.457   0.250  14.289 -0.3451  0.3598  0.9288
19507TIP3    H279937   1.310   0.261  14.257  0.0706 -2.5095 -2.8185
19508TIP3   OH279938   4.209   2.460   0.293  0.2653  0.5434 -0.0996
19508TIP3    H179939   4.150   2.415   0.353  1.5086  0.1686  0.8834
19508TIP3    H279940   4.151   2.514   0.238 -0.9572  0.3736  0.9747
19509TIP3   OH279941   5.993   5.885  16.097  0.1148 -0.5064 -0.3197
19509TIP3    H179942   6.052   5.833  16.042  0.2797 -0.8442  0.1687
19509TIP3    H279943   5.944   5.820  16.147  2.0432 -0.2153  2.1210
19510TIP3   OH279944   0.485   3.599  15.043  0.1010 -0.5153  0.2418
19510TIP3    H179945   0.522   3.658  14.978 -0.7113 -1.3792 -1.0469
19510TIP3    H279946   0.455   3.656  15.113 -0.3310  0.5701 -0.8031
19511TIP3   OH279947   5.388   3.496  15.984 -0.1674  0.4196  0.1905
19511TIP3    H179948   5.361   3.432  16.049  0.0259  1.0871  0.9484
19511TIP3    H279949   5.306   3.531  15.949 -0.3262 -1.3643 -1.4382
19512TIP3   OH279950   4.411   4.008   2.803 -0.5460 -0.5421 -0.1302
19512TIP3    H179951   4.355   4.003   2.725  2.7982  0.3551 -2.8045
19512TIP3    H279952   4.464   3.928   2.801  0.0710 -0.1838  0.8635
19513TIP3   OH279953   1.479   2.602  12.448  0.4655  0.2155  0.2264
19513TIP3    H179954   1.538   2.531  12.474  0.8758  0.0050 -1.2238
19513TIP3    H279955   1.441   2.632  12.531  1.7931 -0.3547  1.0767
19514TIP3   OH279956   3.274   6.741  15.812  0.3821 -0.3880 -0.1442
19514TIP3    H179957   3.360   6.728  15.851 -0.1518 -4.1955  0.1145
19514TIP3    H279958   3.214   6.694  15.869 -1.6409  0.7411 -1.2310
19515TIP3   OH279959   4.036   0.271   1.786 -0.0118  0.1809  0.6246
19515TIP3    H179960   3.971   0.262   1.717 -0.0624 -0.4878  0.7539
19515TIP3    H279961   3.985   0.278   1.867  0.0434  1.1067  0.5853
19516TIP3   OH279962   0.973   4.380  14.782 -0.3151  0.2713  0.4830
19516TIP3    H179963   1.014   4.294  14.791  0.1296  0.3770 -0.3751
19516TIP3    H279964   0.954   4.387  14.688  0.1082  1.3045  0.4603
19517TIP3   OH279965   2.697   3.725  13.102  0.0368  0.4198  1.0201
19517TIP3    H179966   2.687   3.640  13.059  0.8924  0.4444  0.7508
19517TIP3    H279967   2.677   3.707  13.194 -1.7777  0.3610  0.6517
19518TIP3   OH279968   6.065   0.289   4.112  0.3738  0.4090  0.2761
19518TIP3    H179969   6.028   0.232   4.179  0.6751  0.1192  0.1974
19518TIP3    H279970   5.989   0.335   4.075  0.2219  0.6754  0.9061
19519TIP3   OH279971   6.062   6.644   1.101  0.2880 -0.5957  0.3373
19519TIP3    H179972   6.124   6.638   1.174  1.5700 -0.2784 -0.6920
19519TIP3    H279973   6.093   6.719   1.049  0.6150 -2.0003 -1.6056
19520TIP3   OH279974   1.092   4.211  16.169  0.2260 -0.0574  0.0542
19520TIP3    H179975   1.126   4.128  16.203 -0.9481 -0.8076 -0.5518
19520TIP3    H279976   1.053   4.253  16.246 -1.4969 -1.2800 -0.0963
19521TIP3   OH279977   1.994   3.508   3.896 -0.2166  0.2921  0.6143
19521TIP3    H179978   1.941   3.540   3.969 -0.3528  3.7927 -0.8255
19521TIP3    H279979   2.084   3.515   3.928 -0.2832  1.6417  0.5479
19522TIP3   OH279980   3.025   5.021  15.347  0.2816 -0.0950 -0.3698
19522TIP3    H179981   3.111   5.047  15.380  0.8314 -1.0784 -0.9829
19522TIP3    H279982   3.028   4.925  15.347 -1.3225 -0.1980  0.9275
19523TIP3   OH279983   5.509   1.314   1.740  0.4281 -0.4100 -0.9594
19523TIP3    H179984   5.566   1.376   1.694  0.5458  0.6286  0.5134
19523TIP3    H279985   5.458   1.369   1.800 -0.0805 -1.6629 -0.2092
19524TIP3   OH279986   6.577   0.894   4.400 -0.1005 -0.1775  0.2780
19524TIP3    H179987   6.661   0.936   4.422  0.1542  0.4245 -1.6404
19524TIP3    H279988   6.543   0.864   4.484  2.0664 -0.4988  1.1188
19525TIP3   OH279989   3.041   1.372   1.133  0.3033 -0.0011  0.2082
19525TIP3    H179990   2.949   1.396   1.141  1.2193  4.5738  0.1567
19525TIP3    H279991   3.078   1.388   1.220  1.0127 -2.4909  0.4347
19526TIP3   OH279992   4.384   1.622   2.155  0.0683 -0.0888  0.7387
19526TIP3    H179993   4.340   1.704   2.135 -2.5998 -1.7098 -0.6920
19526TIP3    H279994   4.477   1.644   2.158 -0.5305  2.9071  0.2797
19527TIP3   OH279995   3.897   1.210  11.310 -0.1330 -0.0641 -0.5238
19527TIP3    H179996   3.877   1.265  11.234  0.7872  1.2727  0.1701
19527TIP3    H279997   3.829   1.231  11.374 -1.1678 -1.5098 -1.0728
19528TIP3   OH279998   4.987   4.492   3.223  0.1172  0.6438 -0.2855
19528TIP3    H179999   4.936   4.441   3.160 -2.1017  1.1012  1.0246
19528TIP3    H280000   4.939   4.483   3.306  2.6120  0.5173  1.2401
19529TIP3   OH280001   2.344   3.100   1.449  0.2548  0.4023 -0.2159
19529TIP3    H180002   2.274   3.070   1.393  0.6557  3.0103 -2.3447
19529TIP3    H280003   2.420   3.107   1.391  1.8513 -0.6574  1.6173
19530TIP3   OH280004   1.134   1.589   2.380 -0.0993 -0.3714 -0.3207
19530TIP3    H180005   1.190   1.563   2.307  0.7181  2.1333 -0.6709
19530TIP3    H280006   1.115   1.681   2.364 -3.0334 -0.7000  0.6758
19531TIP3   OH280007   3.725   0.362  12.803 -0.4915 -0.2868  0.5478
19531TIP3    H180008   3.678   0.341  12.723  0.0689 -2.0018  0.6317
19531TIP3    H280009   3.725   0.281  12.853  2.8103 -0.5301  0.4053
19532TIP3   OH280010   1.219   5.880   5.644 -0.0066 -0.5112  0.0079
19532TIP3    H180011   1.203   5.886   5.550 -3.2870 -1.9712  0.3334
19532TIP3    H280012   1.223   5.786   5.662 -1.7343 -0.3626  1.5450
19533TIP3   OH280013   2.438   5.031   5.700 -0.2509  0.2196 -0.2643
19533TIP3    H180014   2.482   5.103   5.656  0.1298  1.1270  1.5040
19533TIP3    H280015   2.355   5.069   5.731 -1.1047 -0.7473 -1.2779
19534TIP3   OH280016   6.556   3.161   1.021 -0.0660  0.6418 -0.0050
19534TIP3    H180017   6.508   3.208   1.089 -0.9700 -1.4202  0.9005
19534TIP3    H280018   6.578   3.227   0.956 -1.2786  2.2647  1.1578
19535TIP3   OH280019   0.167   4.397  16.027 -0.2199 -0.1542 -0.0545
19535TIP3    H180020   0.245   4.372  16.076 -0.3339 -1.5384 -0.5345
19535TIP3    H280021   0.128   4.468  16.078  0.5884 -0.4096  0.9425
19536TIP3   OH280022   4.346   1.629  16.597  0.2369  0.8872  0.2051
19536TIP3    H180023   4.272   1.615  16.538  0.9002  1.9391 -0.9129
19536TIP3    H280024   4.305   1.653  16.681 -0.6921  0.7794 -0.2001
19537TIP3   OH280025   1.691   2.101  11.930  0.1110  0.2381  0.0393
19537TIP3    H180026   1.712   2.168  11.865  0.2258  1.2293  1.0748
19537TIP3    H280027   1.686   2.148  12.013 -0.1837 -0.9793  0.7394
19538TIP3   OH280028   2.764   1.111   0.153 -0.2943  0.2340 -0.3769
19538TIP3    H180029   2.734   1.027   0.118 -1.5697  0.5986 -0.2376
19538TIP3    H280030   2.844   1.131   0.104  0.7583 -1.6494  0.4911
19539TIP3   OH280031   5.020   3.925  14.821 -0.4259  0.1984 -0.3759
19539TIP3    H180032   5.090   3.860  14.831 -0.7394 -0.0148  0.5163
19539TIP3    H280033   5.065   4.005  14.795 -0.1527 -0.6984 -2.9978
19540TIP3   OH280034   1.666   5.335   5.886  0.0395  0.1502 -0.1683
19540TIP3    H180035   1.677   5.388   5.966  0.0654 -0.4751  0.2472
19540TIP3    H280036   1.629   5.252   5.917  2.0495 -0.9391 -0.5070
19541TIP3   OH280037   0.416   6.167  13.624 -0.1533 -0.0808  0.3676
19541TIP3    H180038   0.463   6.189  13.544  0.2277  0.9647  0.8658
19541TIP3    H280039   0.433   6.074  13.637 -1.3342 -0.6238 -1.4875
19542TIP3   OH280040   4.598   2.134   5.802 -0.3681  0.5725  0.3827
19542TIP3    H180041   4.690   2.107   5.813  0.0627  0.2106 -3.0806
19542TIP3    H280042   4.597   2.224   5.833  1.0083  0.3883  1.0820
19543TIP3   OH280043   3.355   2.191  11.056  0.5742 -0.6582 -0.3804
19543TIP3    H180044   3.402   2.136  11.119  1.8008  1.4194  0.6418
19543TIP3    H280045   3.423   2.247  11.018 -0.8876  1.9692  0.6097
19544TIP3   OH280046   4.304   6.180   6.389 -0.1163  0.1017 -0.3543
19544TIP3    H180047   4.339   6.236   6.319 -0.4323 -0.9356 -1.3774
19544TIP3    H280048   4.381   6.156   6.441  0.6099 -1.3822 -2.0212
19545TIP3   OH280049   4.630   0.091   2.610 -0.0038  0.0391 -0.3273
19545TIP3    H180050   4.695   0.160   2.596  0.9944 -0.1128  2.8790
19545TIP3    H280051   4.680   0.009   2.606  0.4244 -0.0290  3.3566
19546TIP3   OH280052   1.724   3.531   3.526 -0.0231 -0.1121 -0.1087
19546TIP3    H180053   1.710   3.481   3.607  0.1593  0.8245  0.5071
19546TIP3    H280054   1.798   3.487   3.484 -1.0993 -1.5698 -0.5561
19547TIP3   OH280055   4.174   2.653  13.213  0.0635  0.0804 -0.0552
19547TIP3    H180056   4.119   2.726  13.184  0.5488  0.0599 -1.1121
19547TIP3    H280057   4.167   2.590  13.141 -1.5111 -1.5846  1.4794
19548TIP3   OH280058   6.686   5.175   3.579  0.0065  0.4698  0.4828
19548TIP3    H180059   6.700   5.215   3.493  2.5644 -1.1134  0.0460
19548TIP3    H280060   6.709   5.244   3.641 -0.8259  1.2957 -0.0832
19549TIP3   OH280061   1.454   6.399   3.088 -0.0951  0.1691  0.2767
19549TIP3    H180062   1.404   6.459   3.034  0.1125  1.0260  1.0160
19549TIP3    H280063   1.546   6.423   3.072 -0.0103  0.0514  0.5766
19550TIP3   OH280064   5.215   2.614  14.753  0.1860  0.2793 -0.0155
19550TIP3    H180065   5.278   2.598  14.823  1.2451 -0.9592 -1.1894
19550TIP3    H280066   5.152   2.675  14.791  0.5874 -0.5205  2.0630
19551TIP3   OH280067   0.059   2.625  16.381  0.1988 -0.7751  0.2366
19551TIP3    H180068   0.087   2.714  16.357 -2.0016 -0.5763 -2.0453
19551TIP3    H280069   0.128   2.568  16.347  1.1002 -0.0210  0.7467
19552TIP3   OH280070   4.798   4.396   5.320 -0.0384 -0.3905  0.3173
19552TIP3    H180071   4.752   4.473   5.353 -0.6309 -0.7425  0.3129
19552TIP3    H280072   4.737   4.356   5.258  0.6985 -0.2486 -0.5256
19553TIP3   OH280073   4.229   3.799  11.563 -0.2317  0.2267 -0.5670
19553TIP3    H180074   4.293   3.821  11.630  0.7918  0.9641 -1.7301
19553TIP3    H280075   4.167   3.740  11.606  0.2951  0.8130  1.0378
19554TIP3   OH280076   2.013   1.721  13.373  0.2837 -0.2859  0.1894
19554TIP3    H180077   1.936   1.752  13.422  0.3029 -0.4917  0.3531
19554TIP3    H280078   1.992   1.738  13.282 -0.1536 -0.7655  0.1962
19555TIP3   OH280079   3.283   1.692  16.307 -0.3695  0.5320 -0.6089
19555TIP3    H180080   3.311   1.773  16.350  1.4888 -0.1065 -0.5334
19555TIP3    H280081   3.288   1.712  16.213  2.2625 -0.0859 -0.6792
19556TIP3   OH280082   2.614   2.182   4.811  0.1978  0.4213 -0.4264
19556TIP3    H180083   2.519   2.190   4.805  0.2929  0.5138 -2.4764
19556TIP3    H280084   2.644   2.179   4.721  2.2419  1.2212  0.1651
19557TIP3   OH280085   5.240   4.116  13.238  0.2928 -0.5980 -0.1000
19557TIP3    H180086   5.219   4.100  13.330  0.7426  1.6054  0.4439
19557TIP3    H280087   5.259   4.029  13.203 -3.0701 -1.9526  1.0061
19558TIP3   OH280088   3.132   6.137  15.330 -0.2821 -0.0278 -0.1482
19558TIP3    H180089   3.227   6.130  15.323 -0.2113  1.7630 -2.1081
19558TIP3    H280090   3.117   6.217  15.381 -0.8124 -1.1229  1.5243
19559TIP3   OH280091   0.289   1.087  13.633  0.0817 -0.4248 -0.0006
19559TIP3    H180092   0.360   1.151  13.619 -0.1097 -0.3887 -0.8621
19559TIP3    H280093   0.324   1.027  13.698  0.3222  0.4706  0.7205
19560TIP3   OH280094   6.673   4.047   5.511 -0.1357  0.5745  0.5203
19560TIP3    H180095   6.684   3.981   5.580  0.1604  0.7995  0.6936
19560TIP3    H280096   6.696   4.001   5.430  0.7033  0.6375  0.7153
19561TIP3   OH280097   0.891   2.680   2.675 -0.0077 -0.2329 -0.6408
19561TIP3    H180098   0.905   2.724   2.592 -0.7627  0.0500 -0.6259
19561TIP3    H280099   0.823   2.614   2.656 -2.0279  1.4774  0.2663
19562TIP3   OH280100   4.748   5.291   5.300  0.4520 -0.3634  0.2503
19562TIP3    H180101   4.719   5.292   5.391  1.5096  0.3211  0.5944
19562TIP3    H280102   4.703   5.366   5.260 -0.1068 -0.7368  0.1697
19563TIP3   OH280103   5.137   5.615   0.478 -0.0039  0.5364  0.0321
19563TIP3    H180104   5.135   5.657   0.392  0.5820  0.6354  0.0578
19563TIP3    H280105   5.129   5.687   0.540 -0.7533  0.4343  0.0630
19564TIP3   OH280106   1.863   2.242  14.289 -0.2186 -0.1465  0.6123
19564TIP3    H180107   1.881   2.269  14.379  1.5961  1.5300 -0.1855
19564TIP3    H280108   1.943   2.263  14.241 -0.7363 -1.9871 -1.2219
19565TIP3   OH280109   1.256   5.031  13.450 -0.4064  0.1090 -0.3114
19565TIP3    H180110   1.340   5.070  13.475 -0.6185  0.1119  0.4205
19565TIP3    H280111   1.212   5.014  13.533 -1.4390  0.7744 -0.7023
19566TIP3   OH280112   5.972   4.491  12.118 -0.2315 -0.5432  0.2554
19566TIP3    H180113   5.949   4.461  12.206  2.2153  1.3151  1.6470
19566TIP3    H280114   6.049   4.440  12.095  0.5783  0.6155  0.2774
19567TIP3   OH280115   0.729   4.852  14.042 -0.3776  0.2969 -0.7426
19567TIP3    H180116   0.662   4.920  14.038  0.5058  1.5407  2.6241
19567TIP3    H280117   0.811   4.898  14.059  0.4969 -1.4725  0.1819
19568TIP3   OH280118   5.180   0.851  16.759  0.2122 -0.5615 -0.2473
19568TIP3    H180119   5.186   0.780  16.695  0.9534 -0.6575 -0.0763
19568TIP3    H280120   5.213   0.813  16.840 -1.6656 -0.7631  0.4852
19569TIP3   OH280121   4.382   5.336  16.283  0.4958 -0.0596 -1.1170
19569TIP3    H180122   4.368   5.245  16.311  0.2104 -0.0386 -1.1926
19569TIP3    H280123   4.396   5.384  16.365  1.0643 -0.2423 -1.1017
19570TIP3   OH280124   0.864   1.830   5.124 -0.4187 -0.0360  0.4969
19570TIP3    H180125   0.786   1.840   5.178 -1.0485  1.0878 -0.5648
19570TIP3    H280126   0.921   1.903   5.149 -0.6889  0.4571 -0.2821
19571TIP3   OH280127   2.247   4.800  13.162 -0.2195  0.4671  0.2997
19571TIP3    H180128   2.233   4.891  13.189  3.4088  2.1321 -2.4760
19571TIP3    H280129   2.234   4.801  13.067  0.4856 -1.7627  0.1170
19572TIP3   OH280130   6.018   3.241  11.232 -0.0640  0.2578  0.1479
19572TIP3    H180131   6.074   3.165  11.247 -0.8036  0.0838  2.4464
19572TIP3    H280132   5.929   3.208  11.246 -0.4895  1.2867 -0.0390
19573TIP3   OH280133   1.252   3.447   4.608  0.1714  0.4341  0.4769
19573TIP3    H180134   1.254   3.372   4.549 -1.8659 -0.3701  1.3428
19573TIP3    H280135   1.311   3.511   4.567  2.6474 -1.8757  0.1385
19574TIP3   OH280136   3.718   5.040   0.609 -0.0183  0.8517 -0.0946
19574TIP3    H180137   3.711   5.133   0.631  0.9233  0.7923  0.5500
19574TIP3    H280138   3.629   5.007   0.616 -0.2386  1.5360  0.5082
19575TIP3   OH280139   5.496   0.607  13.759 -0.5164  0.4836  0.5466
19575TIP3    H180140   5.408   0.638  13.738 -0.1682  0.7815 -0.5138
19575TIP3    H280141   5.554   0.661  13.706  0.2563 -0.3174  0.5568
19576TIP3   OH280142   1.102   2.143   5.602 -0.0704  0.2751 -0.4752
19576TIP3    H180143   1.035   2.077   5.582 -1.5627  1.3779  0.6355
19576TIP3    H280144   1.084   2.214   5.540  0.7472  0.1623 -0.8527
19577TIP3   OH280145   0.563   2.696  15.989  0.1681 -0.5227 -0.5310
19577TIP3    H180146   0.528   2.707  15.900  1.4656 -2.2619 -1.3096
19577TIP3    H280147   0.511   2.756  16.043 -0.1081  1.1898 -2.5807
19578TIP3   OH280148   0.382   2.143  10.788 -0.0026 -0.1859 -0.4676
19578TIP3    H180149   0.335   2.190  10.858 -0.7929 -1.0434 -0.3914
19578TIP3    H280150   0.412   2.211  10.728 -2.2812  0.3551 -1.0781
19579TIP3   OH280151   1.510   6.158  11.047  0.3271 -0.7824 -0.4894
19579TIP3    H180152   1.520   6.078  10.994  3.6148 -0.3278 -0.7664
19579TIP3    H280153   1.520   6.230  10.984  0.4034 -0.1758  0.2038
19580TIP3   OH280154   2.272   2.245   1.377  0.3914 -0.3995 -0.2722
19580TIP3    H180155   2.273   2.325   1.430 -0.6228  0.3096 -1.2745
19580TIP3    H280156   2.360   2.240   1.341  1.1096 -0.8953  1.4244
19581TIP3   OH280157   1.836   1.776   3.391  0.3988 -0.1124 -0.2306
19581TIP3    H180158   1.816   1.717   3.463 -0.0652  0.3295  0.0090
19581TIP3    H280159   1.896   1.727   3.336 -1.7584 -1.7201 -1.2856
19582TIP3   OH280160   2.971   0.812   2.014  0.5553 -0.3839  0.3163
19582TIP3    H180161   2.957   0.903   1.988 -0.4853 -0.4243  0.6768
19582TIP3    H280162   3.045   0.783   1.961  0.7350  0.5946  0.0101
19583TIP3   OH280163   4.607   6.408   0.888  0.7302  0.4934 -0.4680
19583TIP3    H180164   4.640   6.463   0.959 -0.1647  0.6657 -0.1648
19583TIP3    H280165   4.673   6.339   0.878  1.1878  0.8423  0.0793
19584TIP3   OH280166   3.425   0.354  16.902  0.5817  0.6679  0.8345
19584TIP3    H180167   3.461   0.434  16.941 -1.8471  1.4728  1.6173
19584TIP3    H280168   3.486   0.285  16.928  2.9061  2.2392 -0.1094
19585TIP3   OH280169   2.759   4.442   1.829  0.3931  0.3293 -0.2136
19585TIP3    H180170   2.698   4.372   1.806 -1.4925  1.2018  1.6749
19585TIP3    H280171   2.784   4.482   1.746 -2.2111  0.3404 -1.0784
19586TIP3   OH280172   1.396   2.508   4.678 -0.0308  0.5295 -0.1992
19586TIP3    H180173   1.491   2.502   4.691 -0.2641 -1.2509  0.9616
19586TIP3    H280174   1.385   2.503   4.583  1.0436  0.9418 -0.3610
19587TIP3   OH280175   2.493   0.399   4.699  0.6826 -0.4636  0.4029
19587TIP3    H180176   2.499   0.375   4.606 -1.0392 -0.6812  0.3237
19587TIP3    H280177   2.456   0.321   4.741 -0.7455  0.4411  0.8761
19588TIP3   OH280178   1.955   2.231  12.451  0.7857 -0.0723 -0.7929
19588TIP3    H180179   1.981   2.237  12.543  1.4530  0.1866 -0.9948
19588TIP3    H280180   1.949   2.322  12.422 -1.8037 -0.0241 -0.3766
19589TIP3   OH280181   1.682   2.430  12.501  0.3094 -0.0984 -0.3481
19589TIP3    H180182   1.676   2.343  12.540 -1.5432  0.8498  1.6674
19589TIP3    H280183   1.764   2.428  12.451  2.7194 -1.5998  3.2445
19590TIP3   OH280184   5.549   5.039   5.248  0.1544 -0.0306  0.0325
19590TIP3    H180185   5.594   5.123   5.249  0.0482  0.0582 -1.0439
19590TIP3    H280186   5.493   5.041   5.325  0.2557  0.8250  0.0980
19591TIP3   OH280187   4.712   1.733  10.835  0.0764  0.3188 -0.6294
19591TIP3    H180188   4.626   1.745  10.794 -0.5039  0.3014  0.5406
19591TIP3    H280189   4.772   1.787  10.783 -1.2554  3.0987  0.5343
19592TIP3   OH280190   3.022   1.458   4.881  0.4253 -0.9218  0.2947
19592TIP3    H180191   3.019   1.484   4.789 -1.5127 -1.4128  0.1632
19592TIP3    H280192   3.112   1.431   4.896  1.1397  0.5893 -1.0332
19593TIP3   OH280193   3.382   3.185   0.736 -0.2484  0.2307  0.4714
19593TIP3    H180194   3.330   3.265   0.724 -1.1680 -0.3128  0.7314
19593TIP3    H280195   3.467   3.216   0.768 -0.6863  1.0820  0.8436
19594TIP3   OH280196   4.519   1.233   5.578 -0.5160 -0.1503  0.2340
19594TIP3    H180197   4.459   1.198   5.512 -1.6868  0.2113  1.0953
19594TIP3    H280198   4.476   1.216   5.662  0.6752 -0.0584  0.8841
19595TIP3   OH280199   1.984   5.621   3.637  0.1591  0.4412  0.0010
19595TIP3    H180200   2.017   5.534   3.660 -0.1979 -0.2272 -1.8275
19595TIP3    H280201   2.046   5.654   3.572  0.1824  1.4690  0.5391
19596TIP3   OH280202   5.982   5.025   3.485 -0.6274  0.1264  0.2663
19596TIP3    H180203   5.965   4.937   3.451 -0.7324 -0.1984  1.1212
19596TIP3    H280204   5.902   5.074   3.465 -0.5144  0.0608 -0.3370
19597TIP3   OH280205   0.151   3.580   0.544 -0.0968 -0.2173  0.3346
19597TIP3    H180206   0.142   3.503   0.487 -0.1282  0.2021 -0.2421
19597TIP3    H280207   0.097   3.647   0.501  1.0171  0.5394  0.0838
19598TIP3   OH280208   3.155   6.134   5.551 -0.4258  0.1611 -0.0024
19598TIP3    H180209   3.195   6.145   5.637 -0.4492 -0.6270  0.1251
19598TIP3    H280210   3.062   6.149   5.566 -0.4409 -0.0533  0.1346
19599TIP3   OH280211   5.654   3.550   1.921 -0.1188 -0.0578 -0.2716
19599TIP3    H180212   5.609   3.515   1.844 -1.4320 -0.3024  0.5809
19599TIP3    H280213   5.654   3.477   1.983  1.7464 -0.1648 -0.3487
19600TIP3   OH280214   4.608   4.410  15.805 -0.1642  0.3454  0.4319
19600TIP3    H180215   4.665   4.486  15.820  1.1238 -0.5367  0.1083
19600TIP3    H280216   4.661   4.349  15.755 -1.7764 -0.0662 -0.8814
19601TIP3   OH280217   1.784   0.439   1.989  0.0432 -0.4750 -0.4223
19601TIP3    H180218   1.706   0.473   2.033  1.0972  0.9706  0.4123
19601TIP3    H280219   1.847   0.423   2.060  0.4151 -1.9520 -1.0443
19602TIP3   OH280220   3.256   4.037  15.917 -0.5045 -0.0874 -0.4394
19602TIP3    H180221   3.349   4.051  15.933 -0.2355 -1.6881 -0.4550
19602TIP3    H280222   3.252   4.004  15.827 -1.0890 -0.0522 -0.4302
19603TIP3   OH280223   5.500   0.649  14.058 -0.0458  0.2665  0.6315
19603TIP3    H180224   5.424   0.688  14.102 -0.3771 -0.3009  0.5798
19603TIP3    H280225   5.481   0.659  13.965  1.3644  2.8474  0.5386
19604TIP3   OH280226   4.610   6.384  13.127 -0.0756 -0.0682  0.1359
19604TIP3    H180227   4.542   6.419  13.070  1.2951  0.1436 -1.4293
19604TIP3    H280228   4.617   6.292  13.102  0.6632  0.0698 -0.1742
19605TIP3   OH280229   0.165   5.330  16.387 -0.0097 -0.3239  0.0641
19605TIP3    H180230   0.127   5.264  16.329  1.6587  0.2519 -1.8364
19605TIP3    H280231   0.259   5.314  16.382  0.3632  1.5662  0.3125
19606TIP3   OH280232   2.681   5.723   5.695  0.0923 -0.6134 -0.4332
19606TIP3    H180233   2.646   5.772   5.769 -1.3083 -1.7979 -0.2663
19606TIP3    H280234   2.723   5.789   5.640  1.4233  0.2643  1.5169
19607TIP3   OH280235   2.121   6.706  15.483  0.0864  0.2480 -0.1033
19607TIP3    H180236   2.198   6.725  15.538  2.0233  0.4254 -2.6677
19607TIP3    H280237   2.131   6.613  15.460  0.3107  0.5967 -1.5038
19608TIP3   OH280238   4.286   6.348   3.338 -0.1529 -0.1095 -0.3303
19608TIP3    H180239   4.343   6.271   3.343  1.1607  0.8503 -0.1021
19608TIP3    H280240   4.335   6.411   3.285 -1.5635  0.2914 -1.2075
19609TIP3   OH280241   1.303   2.848  12.969  0.5278  0.7080  0.3123
19609TIP3    H180242   1.220   2.810  13.000 -0.4008  1.5736 -1.0233
19609TIP3    H280243   1.368   2.778  12.983 -0.2697  0.2586  2.0228
19610TIP3   OH280244   2.069   2.109  13.594 -1.0140  0.1608 -0.3527
19610TIP3    H180245   2.148   2.145  13.554 -1.0280 -1.7280 -2.2477
19610TIP3    H280246   1.997   2.149  13.546 -1.2619  1.5257  1.0667
19611TIP3   OH280247   3.053   1.506   0.395 -0.1678  0.0818  0.5463
19611TIP3    H180248   3.110   1.579   0.417 -0.1152 -0.0272  0.7784
19611TIP3    H280249   2.981   1.511   0.458  0.4762 -0.7949  1.3856
19612TIP3   OH280250   3.745   4.381  15.151  0.4410 -0.3923  0.0372
19612TIP3    H180251   3.774   4.470  15.132  0.5048 -0.1420  1.2053
19612TIP3    H280252   3.654   4.378  15.120 -0.1635  0.6673  1.5848
19613TIP3   OH280253   1.517   3.150  10.538 -0.5170  0.9217 -0.3075
19613TIP3    H180254   1.504   3.060  10.566  0.1593  0.8862 -0.0989
19613TIP3    H280255   1.512   3.146  10.442  1.5134  0.3006 -0.4413
19614TIP3   OH280256   6.295   2.285   0.263 -0.3323 -0.1830  0.3690
19614TIP3    H180257   6.259   2.219   0.323 -2.1123 -0.6702 -1.1223
19614TIP3    H280258   6.218   2.330   0.228  0.7018  0.7660 -0.7754
19615TIP3   OH280259   1.821   3.012  16.065  0.1043 -0.0983 -0.1069
19615TIP3    H180260   1.800   3.036  15.975  1.5150 -3.1187 -1.3793
19615TIP3    H280261   1.772   2.931  16.081  1.9494 -1.1069  0.8081
19616TIP3   OH280262   0.000   0.602   2.069  0.3229  0.3398 -0.0863
19616TIP3    H180263   0.069   0.538   2.050  0.4717  0.1684  0.9862
19616TIP3    H280264  -0.081   0.556   2.048  0.4729  0.1571 -0.2813
19617TIP3   OH280265   6.022   5.368  15.134 -0.2202 -0.1432  0.2012
19617TIP3    H180266   5.964   5.444  15.132 -1.5039 -1.1215 -0.3916
19617TIP3    H280267   6.078   5.379  15.057 -0.0165  0.4810  0.4317
19618TIP3   OH280268   5.633   0.952  16.007  0.3662 -0.0637  0.0530
19618TIP3    H180269   5.651   0.891  16.078  0.2463  1.3476  1.3223
19618TIP3    H280270   5.712   1.005  16.000  0.3141 -0.0772 -0.7753
19619TIP3   OH280271   6.542   3.373  10.777  0.0070  0.1754  0.1232
19619TIP3    H180272   6.452   3.390  10.747  0.4411  1.9197 -0.3201
19619TIP3    H280273   6.531   3.318  10.855 -1.4885  0.8635  0.4329
19620TIP3   OH280274   2.623   2.633  15.722 -0.1473  0.4263 -0.5006
19620TIP3    H180275   2.662   2.664  15.804 -0.0511 -1.5663  0.2722
19620TIP3    H280276   2.533   2.665  15.726 -0.2944 -0.0624  0.6652
19621TIP3   OH280277   6.650   2.578  11.131 -0.0641  0.0063 -0.1346
19621TIP3    H180278   6.681   2.522  11.060 -0.9647 -0.1329 -0.4325
19621TIP3    H280279   6.577   2.627  11.092 -1.0034 -0.5600  0.8865
19622TIP3   OH280280   4.474   4.916   5.272  0.6887 -0.2236  0.7163
19622TIP3    H180281   4.421   4.989   5.303 -1.9759 -2.0438  0.7137
19622TIP3    H280282   4.496   4.867   5.351 -1.8597 -2.1106  0.3627
19623TIP3   OH280283   1.499   5.326   3.717 -0.1508 -0.1055  0.3141
19623TIP3    H180284   1.473   5.244   3.676  3.5583 -1.3700  0.1607
19623TIP3    H280285   1.565   5.363   3.658 -0.3145  1.9911  1.3660
19624TIP3   OH280286   3.209   6.152  16.718 -0.0066  0.0582  0.1604
19624TIP3    H180287   3.153   6.227  16.738 -0.3363 -0.3722  0.8776
19624TIP3    H280288   3.280   6.157  16.782  1.3471  1.1536 -1.3373
19625TIP3   OH280289   1.950   4.270  12.545  0.6161  0.4144 -0.1275
19625TIP3    H180290   1.947   4.302  12.636  0.2133  0.6803 -0.2327
19625TIP3    H280291   1.995   4.186  12.551 -0.1027  0.0623  0.4311
19626TIP3   OH280292   1.301   1.154   5.186 -0.0480  0.0333  0.1349
19626TIP3    H180293   1.258   1.161   5.101 -1.5408  1.4093  0.9526
19626TIP3    H280294   1.389   1.189   5.171  0.1350 -0.8823 -1.0954
19627TIP3   OH280295   1.487   3.862   0.689 -0.2289  0.4705 -0.2279
19627TIP3    H180296   1.471   3.955   0.700  0.1753  0.4161  1.0727
19627TIP3    H280297   1.400   3.822   0.691 -0.3054  0.6265  1.6421
19628TIP3   OH280298   4.458   0.645  11.242 -0.3586  0.6737  0.6154
19628TIP3    H180299   4.378   0.630  11.292 -2.8681 -0.8767 -3.3550
19628TIP3    H280300   4.441   0.725  11.193  0.8101  0.6734  0.1702
19629TIP3   OH280301   5.660   2.890  11.756  0.3849 -0.3935 -0.2907
19629TIP3    H180302   5.614   2.869  11.837 -0.0340  1.2543 -0.0561
19629TIP3    H280303   5.591   2.907  11.692  0.7035 -0.7217 -0.7269
19630TIP3   OH280304   2.325   4.379  11.235 -0.0676  0.0616 -0.3604
19630TIP3    H180305   2.416   4.402  11.216  0.6173 -0.8077  1.5677
19630TIP3    H280306   2.306   4.306  11.177  0.2724  0.5868 -1.1514
19631TIP3   OH280307   0.960   1.307  13.263 -0.2180 -0.0966  0.7727
19631TIP3    H180308   0.988   1.224  13.301 -0.6181 -0.1124  1.0407
19631TIP3    H280309   0.909   1.350  13.332  0.2024  0.4905  0.7261
19632TIP3   OH280310   4.245   5.491  12.641  0.0017  0.4915  0.2185
19632TIP3    H180311   4.232   5.585  12.640 -2.7384  0.1774 -0.4798
19632TIP3    H280312   4.247   5.465  12.549 -2.2150 -0.4151  0.3788
19633TIP3   OH280313   4.436   0.874  13.458  0.3203  0.9145 -0.2998
19633TIP3    H180314   4.514   0.840  13.413 -0.6972 -0.5358 -1.0433
19633TIP3    H280315   4.464   0.959  13.493  1.8666  0.9994 -1.6097
19634TIP3   OH280316   5.156   6.212   1.055  0.2402  0.3568  0.0071
19634TIP3    H180317   5.238   6.260   1.061  0.4466 -0.0957  0.8883
19634TIP3    H280318   5.091   6.279   1.033  0.9636  0.5740 -1.6036
19635TIP3   OH280319   1.679   4.912   4.504 -0.4509  0.0552  0.2236
19635TIP3    H180320   1.664   4.987   4.446 -0.9027 -1.2956 -1.4853
19635TIP3    H280321   1.600   4.908   4.558 -0.7565  0.3877 -0.1860
19636TIP3   OH280322   1.174   3.441   0.531  0.0366 -0.0423  0.2864
19636TIP3    H180323   1.254   3.444   0.478 -0.2493 -3.3635 -0.5937
19636TIP3    H280324   1.117   3.508   0.493  1.6386  0.9706 -0.4018
19637TIP3   OH280325   3.068   4.651   6.650 -1.0284  0.5018 -0.5850
19637TIP3    H180326   3.079   4.631   6.743 -2.3908 -0.0222 -0.5157
19637TIP3    H280327   3.149   4.694   6.625 -0.5277  0.3912  0.7803
19638TIP3   OH280328   4.279   4.788  13.889 -0.3849 -0.2577  0.4461
19638TIP3    H180329   4.262   4.754  13.977 -0.0375 -1.8333 -0.0594
19638TIP3    H280330   4.241   4.723  13.831  0.7184 -0.0087 -0.5868
19639TIP3   OH280331   2.220   1.955  12.520  0.1174  0.5892  0.6542
19639TIP3    H180332   2.215   1.903  12.600  0.3272 -0.7715 -0.1762
19639TIP3    H280333   2.164   1.908  12.458  0.3194  1.3630 -0.1346
19640TIP3   OH280334   1.752   5.417  15.363 -0.1933  0.0137  0.1207
19640TIP3    H180335   1.814   5.490  15.364  0.0240 -0.1763  0.7731
19640TIP3    H280336   1.806   5.339  15.375 -0.5996 -0.1225  1.1284
19641TIP3   OH280337   3.904   4.481  12.417 -0.2722 -0.1933  0.6088
19641TIP3    H180338   3.899   4.461  12.324  0.1632 -0.7073  0.6955
19641TIP3    H280339   3.868   4.569  12.424 -1.6634 -0.6933  0.1392
19642TIP3   OH280340   1.058   1.221   4.100  0.4316  0.1517 -0.5448
19642TIP3    H180341   1.074   1.297   4.156  0.0512 -0.5187  0.5292
19642TIP3    H280342   1.034   1.257   4.015  2.4737  1.2017 -0.7387
19643TIP3   OH280343   3.594   4.490   2.636 -0.0134  0.2236 -0.3289
19643TIP3    H180344   3.668   4.440   2.601 -0.0563  1.1270 -1.7669
19643TIP3    H280345   3.561   4.539   2.562 -2.0618 -0.1254  0.2930
19644TIP3   OH280346   4.606   4.671  16.177  0.1770 -0.1236 -0.1333
19644TIP3    H180347   4.554   4.683  16.097 -0.5879 -0.7253  0.2632
19644TIP3    H280348   4.546   4.630  16.239  0.7635  0.3429  0.7631
19645TIP3   OH280349   2.184   1.601   1.700  0.0947 -0.0074  0.1552
19645TIP3    H180350   2.203   1.671   1.638  1.7198  0.0266  0.6452
19645TIP3    H280351   2.263   1.546   1.699  1.6632  1.7302  4.4283
19646TIP3   OH280352   3.511   2.056   2.440  0.4508  0.1705 -0.3212
19646TIP3    H180353   3.528   1.984   2.500 -0.7298 -0.3609 -0.5971
19646TIP3    H280354   3.546   2.026   2.356  0.0344 -0.0447 -0.4174
19647TIP3   OH280355   5.339   4.461   6.068  0.5468  0.5857 -0.6314
19647TIP3    H180356   5.431   4.458   6.044  0.5079  0.4055 -0.7622
19647TIP3    H280357   5.301   4.382   6.028  0.5778  0.0303  0.3734
19648TIP3   OH280358   5.590   0.310   2.698 -0.3613  0.1608  0.1928
19648TIP3    H180359   5.516   0.299   2.758 -0.0635 -0.1194  0.5142
19648TIP3    H280360   5.554   0.291   2.611 -0.7031  0.1821  0.3280
19649TIP3   OH280361   2.527   1.206  15.584 -0.5876 -0.2087  0.3118
19649TIP3    H180362   2.536   1.301  15.594  1.6224 -0.1765 -1.2712
19649TIP3    H280363   2.462   1.181  15.650 -1.6044  2.4493  0.4292
19650TIP3   OH280364   6.268   2.120   2.874 -0.5237  0.1161 -0.4466
19650TIP3    H180365   6.241   2.040   2.919 -2.7441  0.2625 -1.3947
19650TIP3    H280366   6.362   2.127   2.892 -0.5684 -1.8909  0.8799
19651TIP3   OH280367   4.672   6.026  14.303  0.0301 -0.1956  0.7793
19651TIP3    H180368   4.640   6.012  14.214 -1.2296 -1.5704  1.4077
19651TIP3    H280369   4.723   6.107  14.298 -0.6267  0.1417 -1.0284
19652TIP3   OH280370   4.796   2.678   2.177 -0.3201  0.0169 -0.1919
19652TIP3    H180371   4.876   2.729   2.162  0.5516 -1.1850  0.2503
19652TIP3    H280372   4.797   2.660   2.271 -0.7832 -0.5438 -0.2888
19653TIP3   OH280373   3.593   2.947  11.553 -0.0116 -0.2188  0.1379
19653TIP3    H180374   3.577   3.041  11.546  1.3204  0.0096 -0.1298
19653TIP3    H280375   3.523   2.907  11.503 -2.2233  0.4570  2.4652
19654TIP3   OH280376   1.767   6.011  16.248 -0.1091 -0.0850  0.1123
19654TIP3    H180377   1.838   5.958  16.284  0.2778  0.7971  0.6775
19654TIP3    H280378   1.812   6.078  16.195 -0.5463  0.1544  0.0380
19655TIP3   OH280379   4.677   1.829   5.453 -0.2883  0.2892 -0.0648
19655TIP3    H180380   4.718   1.782   5.380  1.0469  1.6602 -0.2382
19655TIP3    H280381   4.620   1.764   5.494 -0.6258 -0.6747 -1.9695
19656TIP3   OH280382   6.495   0.283  15.653 -0.3314  0.0565  0.0554
19656TIP3    H180383   6.515   0.241  15.569 -0.5584  0.7186 -0.3441
19656TIP3    H280384   6.576   0.327  15.678 -0.2554 -0.1641  0.1986
19657TIP3   OH280385   2.730   5.640  11.818  0.1580 -0.0243 -0.2847
19657TIP3    H180386   2.775   5.721  11.796  3.5822 -1.7975 -0.5517
19657TIP3    H280387   2.707   5.601  11.734 -0.9397  0.3448 -0.1723
19658TIP3   OH280388   4.173   4.556  12.369 -0.1411  0.1674 -0.4509
19658TIP3    H180389   4.089   4.553  12.415 -0.3334 -0.2905 -0.8162
19658TIP3    H280390   4.209   4.468  12.379  0.4048  0.4227 -0.1088
19659TIP3   OH280391   3.882   1.840  12.119 -0.4339  0.0449  0.7949
19659TIP3    H180392   3.948   1.775  12.097 -2.2671 -1.8306  0.5856
19659TIP3    H280393   3.859   1.881  12.035 -0.7074 -0.4533  0.6272
19660TIP3   OH280394   3.148   4.518  17.062  0.1912 -0.0151  0.1902
19660TIP3    H180395   3.220   4.456  17.050  0.1200  0.2509 -1.9205
19660TIP3    H280396   3.176   4.597  17.016 -0.3337  1.0613  1.6337
19661TIP3   OH280397   2.495   4.068  16.007  0.3387  0.0554  0.1498
19661TIP3    H180398   2.548   4.139  15.970 -0.3121  0.9425  0.8623
19661TIP3    H280399   2.415   4.112  16.038 -1.9405 -1.5273 -2.9916
19662TIP3   OH280400   6.226   0.333   1.285  0.1178 -0.3541 -0.0565
19662TIP3    H180401   6.213   0.428   1.289 -0.0486 -0.4064  1.0668
19662TIP3    H280402   6.287   0.321   1.213 -0.6662  0.5060 -0.9003
19663TIP3   OH280403   2.535   3.752  12.349  0.2116  0.2151  0.0836
19663TIP3    H180404   2.562   3.785  12.264 -4.1633  1.3968 -1.1080
19663TIP3    H280405   2.497   3.828  12.393 -0.5258 -1.0622  1.7609
19664TIP3   OH280406   3.628   3.435   3.020  0.9029  0.1220 -0.0139
19664TIP3    H180407   3.660   3.518   2.984  0.5200  0.7298  0.9773
19664TIP3    H280408   3.646   3.442   3.114 -1.9027  0.4575  0.5913
19665TIP3   OH280409   5.962   1.262   2.857  0.1832 -0.0523 -0.0292
19665TIP3    H180410   5.964   1.345   2.809 -1.0676 -0.3329 -0.6159
19665TIP3    H280411   6.020   1.204   2.807 -1.6182 -0.5427 -1.6656
19666TIP3   OH280412   0.918   4.256   6.489  0.1496 -0.1426 -0.4516
19666TIP3    H180413   0.958   4.220   6.409 -0.0013  1.8716 -1.4955
19666TIP3    H280414   0.974   4.331   6.511 -1.1716  0.7500 -0.0521
19667TIP3   OH280415   6.202   5.646   3.544 -0.3379 -0.3240  0.2270
19667TIP3    H180416   6.263   5.716   3.518  0.2428 -0.2128  1.7589
19667TIP3    H280417   6.204   5.584   3.472  1.1899 -0.0453  0.0040
19668TIP3   OH280418   2.371   4.395   1.330 -0.5658  0.4436 -0.1503
19668TIP3    H180419   2.446   4.378   1.274  0.5196  0.6233  1.2026
19668TIP3    H280420   2.355   4.489   1.321 -0.9405  0.3233 -0.7974
19669TIP3   OH280421   3.021   2.463  12.373 -0.0045 -0.1494 -0.0263
19669TIP3    H180422   2.978   2.396  12.425  1.5493 -0.4388  0.9323
19669TIP3    H280423   3.037   2.535  12.434  1.5322 -0.3577 -0.1447
19670TIP3   OH280424   5.275   3.200  17.117  0.3668 -0.5767  0.0187
19670TIP3    H180425   5.364   3.167  17.102  0.6532 -0.9720  2.2803
19670TIP3    H280426   5.279   3.292  17.090  1.2657 -0.7751 -0.5709
19671TIP3   OH280427   3.192   0.020   0.827 -0.2948  0.4552  0.2373
19671TIP3    H180428   3.163   0.109   0.846 -1.4397  0.4044 -1.0934
19671TIP3    H280429   3.229   0.025   0.738 -1.4841 -0.5939 -0.3553
19672TIP3   OH280430   5.460   4.085   3.318  0.2928 -0.3944  0.3442
19672TIP3    H180431   5.384   4.027   3.321  0.2171 -0.2959  0.3577
19672TIP3    H280432   5.535   4.028   3.334  0.2837 -0.5961 -0.3180
19673TIP3   OH280433   6.199   2.652  11.170  0.4096  0.1152  0.1628
19673TIP3    H180434   6.194   2.736  11.217  0.9657 -1.1835  2.7570
19673TIP3    H280435   6.292   2.641  11.151  0.1601  0.7470 -1.6055
19674TIP3   OH280436   5.133   6.694  17.016 -0.3117 -0.5760 -0.1963
19674TIP3    H180437   5.093   6.776  17.044  0.2739 -0.7563  1.2803
19674TIP3    H280438   5.162   6.652  17.097  2.3642 -0.7197 -1.0987
19675TIP3   OH280439   4.789   4.109  15.814 -0.1576 -0.1541 -0.6256
19675TIP3    H180440   4.808   4.192  15.859  2.5969 -1.0380  0.0256
19675TIP3    H280441   4.766   4.049  15.885  0.0158 -0.4825 -0.8443
19676TIP3   OH280442   5.003   3.160  11.119  0.0019 -0.0112  0.5567
19676TIP3    H180443   4.983   3.068  11.102  1.1460 -0.0700 -0.5823
19676TIP3    H280444   4.971   3.206  11.041 -0.0103  0.4916  0.8509
19677TIP3   OH280445   6.030   4.037   0.688 -0.3767  0.2141  0.2976
19677TIP3    H180446   5.948   4.045   0.737 -0.8414 -2.0797 -0.0252
19677TIP3    H280447   6.027   3.950   0.649  1.0726  1.0519 -1.8724
19678TIP3   OH280448   2.913   3.481  10.574  0.3021 -0.1649 -0.0771
19678TIP3    H180449   2.966   3.404  10.593 -0.7985 -0.3692  2.5634
19678TIP3    H280450   2.825   3.447  10.560  0.1095  0.4961 -0.5781
19679TIP3   OH280451   3.157   2.351  14.844  0.1506  0.1573  0.2090
19679TIP3    H180452   3.164   2.409  14.768 -0.2983  0.0861  0.1084
19679TIP3    H280453   3.135   2.410  14.916  1.8327  0.4061  0.5623
19680TIP3   OH280454   6.665   6.252   3.888 -0.0702 -0.0330  0.5558
19680TIP3    H180455   6.588   6.202   3.914 -0.2815  0.6683  1.3242
19680TIP3    H280456   6.712   6.195   3.828 -0.8873 -0.6984  0.5413
19681TIP3   OH280457   1.291   5.459   4.871 -0.2598  0.1960  0.3566
19681TIP3    H180458   1.233   5.385   4.853 -0.2653 -0.2230  1.9404
19681TIP3    H280459   1.252   5.532   4.824 -0.3316 -0.7552 -1.1251
19682TIP3   OH280460   4.788   5.483  15.852  0.1817 -0.6092  0.0226
19682TIP3    H180461   4.780   5.565  15.900 -0.0117 -1.5115  1.6016
19682TIP3    H280462   4.787   5.509  15.760  1.1919  1.2387  0.4767
19683TIP3   OH280463   5.502   1.526   4.546 -0.2350  0.5115 -0.1946
19683TIP3    H180464   5.501   1.600   4.485 -0.1308  0.4545 -0.2666
19683TIP3    H280465   5.591   1.490   4.539 -0.0212  0.9056  0.4801
19684TIP3   OH280466   6.612   6.788  10.645  0.1019  0.0938 -0.4498
19684TIP3    H180467   6.681   6.798  10.711  0.6409  1.5081 -1.1986
19684TIP3    H280468   6.544   6.849  10.674  0.2758  0.6048 -1.1127
19685TIP3   OH280469   1.442   6.776   2.528 -0.0420 -0.4831 -0.0278
19685TIP3    H180470   1.438   6.832   2.606 -0.5856 -0.1516 -0.2842
19685TIP3    H280471   1.442   6.837   2.454 -0.3107 -0.8109 -0.3041
19686TIP3   OH280472   2.128   5.307  13.677  0.1380 -0.0716 -0.1591
19686TIP3    H180473   2.158   5.324  13.588  0.1998  0.3286 -0.0600
19686TIP3    H280474   2.185   5.359  13.732 -0.0373 -0.1560  0.1029
19687TIP3   OH280475   6.780   3.596   2.979 -0.5044 -0.0137  0.5679
19687TIP3    H180476   6.714   3.532   2.951  0.3019 -0.5837 -0.0742
19687TIP3    H280477   6.790   3.655   2.904  0.8349 -0.8698  0.0320
19688TIP3   OH280478   0.119   3.856  16.514 -0.3347  0.0684  0.0332
19688TIP3    H180479   0.205   3.838  16.553  1.1024  0.2182 -2.8255
19688TIP3    H280480   0.135   3.929  16.454 -1.9333 -1.1915 -2.0763
19689TIP3   OH280481   1.033   3.212  15.159  0.0961 -0.5588 -0.1448
19689TIP3    H180482   0.993   3.258  15.086  0.6563 -0.3460 -0.3188
19689TIP3    H280483   1.094   3.275  15.197 -0.5492 -0.4870  0.8210
19690TIP3   OH280484   3.903   3.798   0.477  0.2183  0.4377  0.1621
19690TIP3    H180485   3.814   3.813   0.445  0.9425  1.2602 -1.5403
19690TIP3    H280486   3.953   3.874   0.448  2.0524 -1.1565 -1.1205
19691TIP3   OH280487   3.267   4.536   2.779  0.2592 -0.4471  0.4312
19691TIP3    H180488   3.294   4.449   2.808  0.6504  0.2879  2.4365
19691TIP3    H280489   3.329   4.596   2.821  1.0620  0.7514 -2.2704
19692TIP3   OH280490   5.332   4.029  11.762 -0.3449 -0.0073  0.2701
19692TIP3    H180491   5.245   4.058  11.734 -0.4690  0.2230  0.8609
19692TIP3    H280492   5.367   4.104  11.811  1.3136  0.9727 -2.2021
19693TIP3   OH280493   5.556   3.047   4.150 -0.2225 -0.1284 -0.2466
19693TIP3    H180494   5.579   3.015   4.238  0.4142  0.3318 -0.2320
19693TIP3    H280495   5.533   2.969   4.101  0.7457 -0.5529 -0.0485
19694TIP3   OH280496   4.604   5.868  11.389  0.2531  0.0321 -0.6364
19694TIP3    H180497   4.665   5.795  11.385 -0.4329 -0.9435  2.8844
19694TIP3    H280498   4.580   5.885  11.298  2.3852 -2.4183 -1.7807
19695TIP3   OH280499   2.837   6.560  13.210 -0.3729  0.4735  0.3282
19695TIP3    H180500   2.919   6.512  13.201 -0.0896  0.8718  0.7303
19695TIP3    H280501   2.860   6.650  13.187 -0.4703  0.7778  1.3628
19696TIP3   OH280502   4.751   6.393   2.001 -0.6078  0.0099  0.6674
19696TIP3    H180503   4.714   6.481   1.997 -0.2273  0.2503  2.0123
19696TIP3    H280504   4.843   6.406   2.021 -0.6541 -0.7030  1.3872
19697TIP3   OH280505   1.426   2.287   5.897 -0.5663  0.1339  0.6454
19697TIP3    H180506   1.394   2.260   5.983 -0.1068 -0.4084  0.6538
19697TIP3    H280507   1.462   2.375   5.911  0.8471 -0.5220  1.3485
19698TIP3   OH280508   4.045   5.952   4.878  0.2134  0.7860  0.0374
19698TIP3    H180509   4.002   5.934   4.962 -0.0308 -0.1019 -0.2778
19698TIP3    H280510   3.974   5.955   4.814  0.6321 -1.3656 -0.5995
19699TIP3   OH280511   0.949   1.622  10.733  0.0753 -0.0451 -0.4198
19699TIP3    H180512   0.946   1.535  10.773  0.6142  0.1235 -0.0124
19699TIP3    H280513   1.022   1.617  10.670 -0.6850 -0.2717 -1.3036
19700TIP3   OH280514   0.378   3.989   1.345  0.4806 -0.1116 -0.6969
19700TIP3    H180515   0.462   4.014   1.306 -0.0644  1.8710 -0.7424
19700TIP3    H280516   0.401   3.945   1.427  1.6156  1.9241  0.1555
19701TIP3   OH280517   1.436   4.675   0.221 -0.0719 -0.0107  0.0094
19701TIP3    H180518   1.504   4.707   0.162 -0.2097  0.9669  0.3555
19701TIP3    H280519   1.371   4.746   0.223 -0.1468 -0.0901  1.2027
19702TIP3   OH280520   3.515   0.281   1.666  0.4224 -0.1203  0.1040
19702TIP3    H180521   3.514   0.377   1.669  0.1576 -0.1437  1.8770
19702TIP3    H280522   3.529   0.255   1.757  0.9562 -1.7704 -0.4282
19703TIP3   OH280523   1.867   2.780   6.522  0.8708  0.1203 -0.2387
19703TIP3    H180524   1.955   2.816   6.521  1.2619 -0.7444  0.7822
19703TIP3    H280525   1.849   2.756   6.431  1.3890  0.9808 -0.5730
19704TIP3   OH280526   2.931   4.595  15.765  0.1422 -0.3592  0.4076
19704TIP3    H180527   2.979   4.661  15.816 -1.2651  0.1468  1.1087
19704TIP3    H280528   2.905   4.529  15.830  1.0396 -1.3372 -0.1942
19705TIP3   OH280529   0.343   0.379  13.247  0.4163 -0.1827 -0.2289
19705TIP3    H180530   0.347   0.433  13.168  1.0559 -0.3425 -0.3117
19705TIP3    H280531   0.258   0.400  13.286  1.2397  1.9741  0.5325
19706TIP3   OH280532   0.677   3.464   4.919 -0.0388  0.0534  0.4344
19706TIP3    H180533   0.716   3.547   4.893  2.1412  0.2603  3.7236
19706TIP3    H280534   0.704   3.401   4.853 -0.8439  1.6834 -1.5395
19707TIP3   OH280535   1.189   2.188   1.700 -0.4137  0.3470 -0.4426
19707TIP3    H180536   1.267   2.212   1.651  1.1401 -1.5192  0.9560
19707TIP3    H280537   1.168   2.265   1.753 -0.0526  1.1604 -1.4651
19708TIP3   OH280538   0.935   1.910  12.753 -0.1688  0.6141  0.0140
19708TIP3    H180539   0.873   1.858  12.804 -1.1307  0.1928 -1.5161
19708TIP3    H280540   0.986   1.845  12.705  0.7021  1.0019  0.3895
19709TIP3   OH280541   5.202   6.617   0.123  0.2830  0.4069  0.2821
19709TIP3    H180542   5.221   6.696   0.175 -0.4540  0.3679  0.6181
19709TIP3    H280543   5.270   6.555   0.150  2.5817  1.7723 -1.9792
19710TIP3   OH280544   3.930   2.978  14.969 -0.8228  0.4658 -0.3173
19710TIP3    H180545   3.902   2.908  14.911 -3.1432  0.7331  0.3950
19710TIP3    H280546   3.924   2.942  15.057 -0.6990  1.1290 -0.0253
19711TIP3   OH280547   0.766   4.895  13.739 -0.6555  0.1334  0.3392
19711TIP3    H180548   0.736   4.813  13.699 -1.4851  0.1526  0.9036
19711TIP3    H280549   0.824   4.933  13.673  1.2594 -1.7904  0.7745
19712TIP3   OH280550   6.333   4.974  16.285 -0.0456 -0.6045 -0.0129
19712TIP3    H180551   6.260   4.961  16.346  1.0645 -3.7809  0.8502
19712TIP3    H280552   6.308   4.924  16.208  0.6275 -0.5872 -0.2432
19713TIP3   OH280553   5.964   2.799   5.777 -0.6167  0.0443 -0.3530
19713TIP3    H180554   5.964   2.884   5.733 -0.2425 -0.2205 -0.8630
19713TIP3    H280555   5.914   2.815   5.858 -1.6334  0.4395 -1.0348
19714TIP3   OH280556   0.231   3.314  13.958  0.1230  0.3867 -0.5797
19714TIP3    H180557   0.317   3.356  13.965  1.2626 -1.8079 -0.4597
19714TIP3    H280558   0.240   3.232  14.008 -2.1477  0.2296 -0.3015
19715TIP3   OH280559   4.494   5.782   0.721 -0.0043  0.1317  0.6101
19715TIP3    H180560   4.408   5.740   0.729 -0.3667  0.9446  1.0964
19715TIP3    H280561   4.532   5.743   0.642 -0.5374 -0.7289  0.7660
19716TIP3   OH280562   4.780   3.328   3.846 -0.9111 -0.4352  0.1706
19716TIP3    H180563   4.787   3.318   3.751 -1.3805 -2.3046  0.2913
19716TIP3    H280564   4.709   3.269   3.871 -1.6796  1.0188  1.5438
19717TIP3   OH280565   6.071   3.859  10.567  0.1582  0.2892 -0.4434
19717TIP3    H180566   6.033   3.901  10.644  1.4162  0.4562  0.1138
19717TIP3    H280567   6.124   3.928  10.526  0.1775 -0.0394 -0.9757
19718TIP3   OH280568   1.122   1.669   4.172 -0.1626  0.7319  0.8321
19718TIP3    H180569   1.091   1.712   4.252 -0.3972  0.1644  1.0523
19718TIP3    H280570   1.144   1.741   4.113 -0.4712  1.1529  1.2237
19719TIP3   OH280571   3.716   4.370  15.663  0.0506  0.2854 -0.5159
19719TIP3    H180572   3.787   4.305  15.661 -1.0293 -0.9461 -1.7457
19719TIP3    H280573   3.687   4.372  15.754  1.6853  0.8660  0.0205
19720TIP3   OH280574   1.385   1.764  13.424  0.6484 -0.2703  0.0712
19720TIP3    H180575   1.295   1.789  13.403  0.5111 -2.1180 -1.8697
19720TIP3    H280576   1.382   1.670  13.438  2.3744 -0.4987 -0.7540
19721TIP3   OH280577   5.975   5.432  13.138  0.4092 -0.4507 -0.6286
19721TIP3    H180578   5.911   5.501  13.156  1.3884  0.3273 -0.0103
19721TIP3    H280579   5.943   5.356  13.186  0.2093  0.0806  0.0922
19722TIP3   OH280580   4.334   0.502  15.906  0.2171  0.4987  0.0835
19722TIP3    H180581   4.371   0.428  15.858  0.8937  0.4236  0.6915
19722TIP3    H280582   4.248   0.516  15.867 -0.4250 -1.3638  0.7114
19723TIP3   OH280583   6.292   4.261  15.749 -0.5846 -0.0458  0.1930
19723TIP3    H180584   6.255   4.292  15.667 -2.4858 -2.5628 -0.0361
19723TIP3    H280585   6.326   4.174  15.727  1.3380  0.3213  1.5086
19724TIP3   OH280586   4.084   6.163   5.575  0.1547  0.1170  0.2802
19724TIP3    H180587   4.018   6.192   5.512  0.7159  1.3601  0.2266
19724TIP3    H280588   4.069   6.218   5.653 -0.0341 -0.8602  0.9495
19725TIP3   OH280589   5.001   0.462   0.142 -0.2446  0.2552  0.6567
19725TIP3    H180590   5.069   0.506   0.091  0.0630 -0.4326  0.4640
19725TIP3    H280591   4.920   0.506   0.116 -0.1089 -0.1542 -0.5237
19726TIP3   OH280592   3.714   6.514  11.341  0.5583  0.7691 -0.0203
19726TIP3    H180593   3.798   6.486  11.377  0.3024 -1.3544 -0.8966
19726TIP3    H280594   3.714   6.482  11.251 -2.6105 -2.9090  0.9880
19727TIP3   OH280595   4.776   0.957   3.710  0.1494 -0.6291 -0.4014
19727TIP3    H180596   4.822   0.962   3.794  0.6265 -2.5941 -0.5028
19727TIP3    H280597   4.821   0.888   3.662 -1.1729 -0.6863 -1.6197
19728TIP3   OH280598   3.522   6.416  11.549  0.0370  0.1229  0.3793
19728TIP3    H180599   3.545   6.508  11.535  0.6531  0.1355  1.3543
19728TIP3    H280600   3.485   6.387  11.465  0.5495  1.0433 -0.1813
19729TIP3   OH280601   0.804   0.621  16.773  0.1302  0.0136 -0.1516
19729TIP3    H180602   0.819   0.526  16.767  2.1290  0.3614 -2.1319
19729TIP3    H280603   0.711   0.629  16.793  0.2454 -2.3555  1.8696
19730TIP3   OH280604   2.666   1.773   4.498 -0.1132 -0.6820  1.0382
19730TIP3    H180605   2.618   1.690   4.499  0.1127 -0.8131  1.1678
19730TIP3    H280606   2.702   1.781   4.586  0.2231 -0.6579  0.9000
19731TIP3   OH280607   1.549   2.784   5.547 -0.1023  0.3503 -0.3761
19731TIP3    H180608   1.488   2.778   5.620  0.1059  2.4473  0.0142
19731TIP3    H280609   1.540   2.873   5.515  1.2988  0.0853 -1.6147
19732TIP3   OH280610   2.211   4.362  12.046  0.2063  0.1697  0.7795
19732TIP3    H180611   2.306   4.364  12.058  0.1130  1.9341  1.6215
19732TIP3    H280612   2.199   4.364  11.951  1.0291  1.4691  0.6766
19733TIP3   OH280613   2.733   5.366  14.879 -0.0264  0.1953 -0.3345
19733TIP3    H180614   2.706   5.300  14.943 -0.6502  0.2284 -0.5603
19733TIP3    H280615   2.740   5.317  14.797 -0.5806  0.4226 -0.5213
19734TIP3   OH280616   6.476   6.369  17.096 -0.0362 -0.0973  0.1351
19734TIP3    H180617   6.403   6.360  17.157 -1.3038 -0.2005 -1.3356
19734TIP3    H280618   6.500   6.461  17.100 -0.0828 -0.1104  0.8025
19735TIP3   OH280619   5.623   4.240  15.520 -0.7562 -0.5474  0.0042
19735TIP3    H180620   5.596   4.156  15.484  1.0541 -1.3960  0.4942
19735TIP3    H280621   5.692   4.271  15.461  0.7508 -0.9299  1.4757
19736TIP3   OH280622   1.460   4.100   2.001 -0.1799 -0.1285  0.8041
19736TIP3    H180623   1.414   4.017   1.986 -0.0283 -0.2003  0.7263
19736TIP3    H280624   1.405   4.166   1.958  0.1398 -0.3063  0.0980
19737TIP3   OH280625   3.081   4.593  12.146  0.1900  0.4963 -0.7830
19737TIP3    H180626   3.130   4.535  12.088  0.5658  0.4290 -0.3993
19737TIP3    H280627   3.088   4.680  12.105  0.6807  0.4992 -0.6978
19738TIP3   OH280628   1.230   1.892  12.855  0.0953 -0.1009  0.3238
19738TIP3    H180629   1.141   1.873  12.882  0.5715 -0.8732  1.4158
19738TIP3    H280630   1.225   1.979  12.816 -0.7269  0.9389  2.5770
19739TIP3   OH280631   1.522   6.627   5.229  0.4469  0.3844 -0.3230
19739TIP3    H180632   1.491   6.577   5.305  1.1022 -0.1844 -0.4180
19739TIP3    H280633   1.452   6.690   5.211  0.1053  0.2520  0.4998
19740TIP3   OH280634   4.404   4.873  14.489  0.1239  0.0855 -0.3553
19740TIP3    H180635   4.310   4.871  14.476  0.1712  0.4031 -0.7678
19740TIP3    H280636   4.438   4.916  14.411  0.4311  1.9901  0.7709
19741TIP3   OH280637   4.659   2.546  16.263  0.1450  0.3861 -0.0186
19741TIP3    H180638   4.740   2.496  16.273  0.2652  0.3140 -1.2249
19741TIP3    H280639   4.610   2.529  16.344  0.3778 -1.3209 -0.2033
19742TIP3   OH280640   1.131   3.485  12.117 -0.5889  0.1798  0.1654
19742TIP3    H180641   1.110   3.391  12.121  0.6697 -0.2833 -2.1525
19742TIP3    H280642   1.106   3.510  12.028 -1.8120  2.3333  1.0526
19743TIP3   OH280643   0.131   0.889  13.288 -0.1293  0.5635  0.3156
19743TIP3    H180644   0.114   0.932  13.372 -0.1558 -1.3747  1.3549
19743TIP3    H280645   0.063   0.822  13.281  0.5664 -0.0629 -0.6904
19744TIP3   OH280646   2.276   4.143   0.675  0.2789  0.6505  0.5152
19744TIP3    H180647   2.303   4.054   0.653  0.1155  1.0925 -1.6722
19744TIP3    H280648   2.353   4.180   0.719  0.0420 -0.7903  2.2652
19745TIP3   OH280649   1.913   5.533  14.657 -0.8208 -0.1159 -0.0442
19745TIP3    H180650   1.911   5.494  14.569  0.4758  0.1698 -0.2091
19745TIP3    H280651   1.847   5.602  14.654  0.8515  1.5174 -1.5914
19746TIP3   OH280652   3.564   2.449  16.333 -0.2095  0.2647  0.3557
19746TIP3    H180653   3.477   2.422  16.304 -1.2072  2.0504  1.5043
19746TIP3    H280654   3.597   2.375  16.384 -0.0729 -1.3259 -1.8829
19747TIP3   OH280655   4.011   5.189  13.965  0.0400  0.2145 -0.3307
19747TIP3    H180656   3.997   5.181  13.871 -0.5416 -0.1944 -0.2185
19747TIP3    H280657   4.020   5.099  13.996 -0.9294  0.2771  0.1652
19748TIP3   OH280658   6.501   6.558  14.138  0.7818 -0.1071  0.0986
19748TIP3    H180659   6.541   6.472  14.152  1.2965  0.3654  1.8359
19748TIP3    H280660   6.566   6.608  14.089  0.7577 -0.4997 -0.3378
19749TIP3   OH280661   4.505   5.422   3.912  0.0812  0.3312 -0.1131
19749TIP3    H180662   4.509   5.330   3.939 -2.1930  0.6510  1.5528
19749TIP3    H280663   4.579   5.463   3.956  0.1248 -0.3766  0.4913
19750TIP3   OH280664   4.203   4.466  14.652  0.3873 -1.1898 -0.5943
19750TIP3    H180665   4.130   4.412  14.622 -2.1651  1.5429  0.3547
19750TIP3    H280666   4.269   4.402  14.680 -2.7827 -3.8890  1.3992
19751TIP3   OH280667   1.403   2.629  15.513  0.4326 -0.6278  0.1189
19751TIP3    H180668   1.315   2.649  15.481  1.3257 -0.4155 -2.4708
19751TIP3    H280669   1.402   2.536  15.531 -0.1263 -0.7920 -0.6896
19752TIP3   OH280670   4.882   3.839  14.087 -0.3713 -0.1423 -0.1424
19752TIP3    H180671   4.961   3.893  14.085 -1.0319  1.0094  1.8402
19752TIP3    H280672   4.872   3.816  14.179 -0.9476 -2.4716 -0.7401
19753TIP3   OH280673   1.486   2.865  15.335  0.3560  0.3558 -0.2307
19753TIP3    H180674   1.514   2.955  15.320 -1.4689  0.9141 -0.5909
19753TIP3    H280675   1.404   2.874  15.385  0.9621 -1.1650  1.1273
19754TIP3   OH280676   4.850   6.786   1.419  0.4500 -0.2224 -0.0998
19754TIP3    H180677   4.776   6.762   1.364  1.3134 -1.6159 -0.6954
19754TIP3    H280678   4.880   6.703   1.457  1.7144  0.3027  0.1033
19755TIP3   OH280679   3.770   4.826  12.089 -0.0460 -0.2787  0.6474
19755TIP3    H180680   3.854   4.857  12.056  0.5220 -0.9668  1.3981
19755TIP3    H280681   3.735   4.900  12.139  0.9036 -0.5417  1.7323
19756TIP3   OH280682   3.762   6.650  14.421  0.2485 -0.1595 -0.3358
19756TIP3    H180683   3.713   6.596  14.359 -0.4496 -0.7338  0.6751
19756TIP3    H280684   3.829   6.591  14.456 -0.5638 -0.4286  0.8304
19757TIP3   OH280685   2.339   0.716   1.730 -0.5638  0.0734 -0.4957
19757TIP3    H180686   2.275   0.770   1.777  0.3194  1.4442 -0.8311
19757TIP3    H280687   2.338   0.750   1.641  1.1468  0.5987 -0.3346
19758TIP3   OH280688   0.160   1.685  12.575  0.5719 -0.4981 -1.1005
19758TIP3    H180689   0.227   1.679  12.643 -0.9497 -2.0288  0.3643
19758TIP3    H280690   0.117   1.600  12.575 -1.4428  0.4369 -1.9125
19759TIP3   OH280691   2.515   2.030   1.073 -0.7840  0.3712 -0.3332
19759TIP3    H180692   2.473   1.977   1.141 -0.3060 -0.3899 -0.6212
19759TIP3    H280693   2.468   2.008   0.993  0.4785 -0.9148 -0.7650
19760TIP3   OH280694   3.706   1.665   3.702  0.0671  0.1736  0.1805
19760TIP3    H180695   3.636   1.603   3.719 -0.0029  0.1448 -0.2049
19760TIP3    H280696   3.782   1.628   3.748 -0.7913  1.6335  3.0706
19761TIP3   OH280697   1.680   4.108   6.057 -0.4955 -0.2569  0.3084
19761TIP3    H180698   1.724   4.058   5.989 -1.9304  1.0985 -1.7273
19761TIP3    H280699   1.602   4.058   6.077 -1.1101  0.3244 -0.5631
19762TIP3   OH280700   5.540   1.216  15.967 -0.0884 -0.1864 -1.0072
19762TIP3    H180701   5.479   1.152  15.930  0.4185 -0.0688 -2.0910
19762TIP3    H280702   5.580   1.170  16.042  0.5328 -1.3097 -1.9795
19763TIP3   OH280703   5.319   5.275   4.509  0.2832  0.2701 -0.3239
19763TIP3    H180704   5.328   5.191   4.554  0.4915  0.6241  0.3071
19763TIP3    H280705   5.371   5.336   4.562  2.0895  0.3327 -2.0633
19764TIP3   OH280706   2.322   3.978  10.818 -0.6323  0.7069  0.0194
19764TIP3    H180707   2.236   4.020  10.822 -0.3932  1.3053 -0.8212
19764TIP3    H280708   2.350   3.973  10.909 -1.4147  0.7968  0.2755
19765TIP3   OH280709   1.339   2.120  13.747 -0.0907 -0.3057  0.1880
19765TIP3    H180710   1.419   2.069  13.733  0.8632  0.9420  0.8780
19765TIP3    H280711   1.337   2.135  13.841 -0.7386  0.3129  0.0808
19766TIP3   OH280712   3.000   5.264   3.035  0.0230  0.0533 -0.0286
19766TIP3    H180713   3.015   5.215   2.955 -0.3935  0.2838 -0.2500
19766TIP3    H280714   2.916   5.232   3.068  0.2070 -0.0675  0.3367
19767TIP3   OH280715   3.196   4.812  16.990  0.1776  0.1187  0.3018
19767TIP3    H180716   3.105   4.819  17.019  0.3408  1.3376  0.6050
19767TIP3    H280717   3.232   4.900  17.004  0.6454  0.4578 -2.3593
19768TIP3   OH280718   2.727   2.751   3.774  0.0429  0.4262  1.1767
19768TIP3    H180719   2.698   2.743   3.683  1.6212  0.0648  0.6902
19768TIP3    H280720   2.807   2.803   3.770  1.6261 -1.7847  2.0115
19769TIP3   OH280721   4.037   0.677  11.216  0.1321 -0.3696  0.4473
19769TIP3    H180722   4.077   0.591  11.223 -0.1897 -0.6432 -0.8700
19769TIP3    H280723   4.105   0.738  11.246 -0.0521 -1.1327  2.5821
19770TIP3   OH280724   4.631   5.633   5.322  0.7529  0.1789  0.2263
19770TIP3    H180725   4.709   5.601   5.368 -0.3537 -1.2725  1.1822
19770TIP3    H280726   4.626   5.580   5.242  1.6614  1.4573 -0.7236
19771TIP3   OH280727   4.702   2.886   5.516 -0.5413  0.1853 -0.3799
19771TIP3    H180728   4.770   2.922   5.573 -0.4480  1.1782 -1.0870
19771TIP3    H280729   4.620   2.921   5.551 -0.4794  0.8396 -0.8676
19772TIP3   OH280730   4.835   2.874   4.625 -0.0460  0.1806  0.2770
19772TIP3    H180731   4.860   2.801   4.569  0.2860 -0.4524  1.2100
19772TIP3    H280732   4.750   2.848   4.662 -2.2344  2.2890 -2.8263
19773TIP3   OH280733   3.881   2.842   0.854 -0.8098  0.2634 -0.0594
19773TIP3    H180734   3.809   2.899   0.830  0.0321  2.0228  1.3337
19773TIP3    H280735   3.941   2.899   0.903 -0.3903 -2.0246  2.2918
19774TIP3   OH280736   4.233   1.572  15.411  0.1750 -0.2166  0.9227
19774TIP3    H180737   4.312   1.582  15.359  0.5491 -2.3452  1.0007
19774TIP3    H280738   4.178   1.512  15.360 -0.0759 -1.1577  2.2499
19775TIP3   OH280739   1.275   4.651  13.320  0.3285 -0.2505 -0.5633
19775TIP3    H180740   1.358   4.700  13.322 -1.1201  2.3904 -0.5108
19775TIP3    H280741   1.274   4.602  13.403  1.6441 -0.0073 -0.3835
19776TIP3   OH280742   0.890   2.146   3.159  0.0977 -0.0334  0.1271
19776TIP3    H180743   0.878   2.102   3.075 -0.8326 -1.6037  1.0376
19776TIP3    H280744   0.875   2.239   3.139  1.5410 -0.1193 -1.7303
19777TIP3   OH280745   5.237   1.708  12.026 -0.2945 -0.1163  0.4645
19777TIP3    H180746   5.188   1.776  12.072  0.1802 -0.5114  1.6011
19777TIP3    H280747   5.328   1.739  12.027 -0.0812 -0.7384  0.9523
19778TIP3   OH280748   4.474   3.031   0.903 -0.5002 -0.0423 -0.6739
19778TIP3    H180749   4.437   3.001   0.821  1.0718  0.5077 -1.6478
19778TIP3    H280750   4.566   3.005   0.899  0.6708  3.5469 -1.0285
19779TIP3   OH280751   6.039   2.477  11.302 -0.4257  0.3293  0.1680
19779TIP3    H180752   6.074   2.533  11.233  0.6736  1.1102  1.3187
19779TIP3    H280753   6.111   2.418  11.324 -0.8075  0.0023  0.5579
19780TIP3   OH280754   5.070   0.255   0.318  0.2102  0.2267  0.1661
19780TIP3    H180755   4.993   0.234   0.371 -0.4002  1.7156 -0.0870
19780TIP3    H280756   5.036   0.306   0.245  1.3952  0.5218 -0.2018
19781TIP3   OH280757   5.115   4.697   1.838 -0.0568  0.0446 -0.0362
19781TIP3    H180758   5.077   4.619   1.880  0.0325 -1.0626 -1.8640
19781TIP3    H280759   5.040   4.756   1.826 -0.6058 -0.7456 -0.6760
19782TIP3   OH280760   3.473   2.663  14.777  0.3712  0.2440  0.5674
19782TIP3    H180761   3.565   2.681  14.791  0.6988 -0.0722 -0.9778
19782TIP3    H280762   3.459   2.680  14.684 -0.6996 -1.4626  0.3599
19783TIP3   OH280763   0.541   5.083  13.747  0.3735  0.1523 -0.9715
19783TIP3    H180764   0.586   4.999  13.750 -1.4580 -0.8719  0.4716
19783TIP3    H280765   0.575   5.131  13.823 -1.2626 -0.8517  0.4664
19784TIP3   OH280766   2.420   5.177  16.386  0.3070 -1.0329 -0.0138
19784TIP3    H180767   2.417   5.235  16.462 -1.8709  4.1713 -3.5105
19784TIP3    H280768   2.513   5.158  16.374  0.9773  0.4019  2.2550
19785TIP3   OH280769   4.136   0.240   1.370 -0.4275 -0.0155  0.5872
19785TIP3    H180770   4.186   0.292   1.307  1.5845 -1.5836  0.7775
19785TIP3    H280771   4.052   0.223   1.327 -1.4235  3.7430  0.7461
19786TIP3   OH280772   0.745   6.320   1.311  0.1005  0.6019 -0.2361
19786TIP3    H180773   0.676   6.325   1.377 -1.5223 -0.2746 -1.7664
19786TIP3    H280774   0.810   6.384   1.339 -1.0028  0.9790  1.6388
19787TIP3   OH280775   3.732   0.595   3.412  0.4117  0.0546  0.0601
19787TIP3    H180776   3.701   0.511   3.444 -3.4368  1.9320  1.8273
19787TIP3    H280777   3.726   0.588   3.317  0.0113 -1.5757  0.1725
19788TIP3   OH280778   0.319   2.970  17.001 -0.2597  0.1142 -0.1817
19788TIP3    H180779   0.315   3.006  16.913  0.1527  2.2879  0.6190
19788TIP3    H280780   0.323   3.047  17.058  0.8345 -1.2188  1.6608
19789TIP3   OH280781   4.659   0.513  14.535 -0.0791 -0.6633  0.3424
19789TIP3    H180782   4.629   0.426  14.510  2.8116 -2.7881  3.3760
19789TIP3    H280783   4.731   0.532  14.475 -0.5393 -0.4074 -0.1464
19790TIP3   OH280784   5.072   1.667   0.701 -0.1706 -0.0742  0.0418
19790TIP3    H180785   5.022   1.663   0.783  0.7994 -0.3872  0.6282
19790TIP3    H280786   5.146   1.724   0.720 -0.8113  1.1968 -1.1207
19791TIP3   OH280787   4.069   4.019  16.267 -0.3617  0.1660 -0.1803
19791TIP3    H180788   4.101   3.996  16.354  1.0117 -0.8927 -0.9216
19791TIP3    H280789   3.985   3.974  16.258  0.2241 -0.9850  0.0366
19792TIP3   OH280790   5.693   4.361   6.671 -0.4782  0.3955 -0.3036
19792TIP3    H180791   5.735   4.335   6.589  0.9857  1.2983  0.1218
19792TIP3    H280792   5.764   4.398   6.723 -1.3837 -0.1445  1.3720
19793TIP3   OH280793   6.527   0.638  14.104 -0.3766  0.1009  0.1032
19793TIP3    H180794   6.516   0.716  14.049  0.1928  0.7904  0.9373
19793TIP3    H280795   6.561   0.571  14.044  0.7070  0.9778 -0.2915
19794TIP3   OH280796   3.582   1.783  12.109  0.7476 -0.0446 -0.0625
19794TIP3    H180797   3.552   1.847  12.174  1.9044  1.3805 -0.8837
19794TIP3    H280798   3.675   1.771  12.128  0.8879 -0.3005 -0.8717
19795TIP3   OH280799   3.731   6.650   0.608 -0.2746 -0.0481 -0.1223
19795TIP3    H180800   3.670   6.700   0.554  0.3713 -0.7641 -1.5726
19795TIP3    H280801   3.683   6.570   0.631 -0.1420 -0.2859 -0.6607
19796TIP3   OH280802   5.129   5.329  10.524 -0.2952  0.9165  0.0237
19796TIP3    H180803   5.118   5.368  10.436 -1.4731  0.6081  0.0150
19796TIP3    H280804   5.112   5.402  10.584  1.0471  1.2638  0.0212
19797TIP3   OH280805   2.651   6.443   0.730 -1.0615  0.2725  0.5275
19797TIP3    H180806   2.691   6.438   0.817  0.8416  0.7316 -0.2684
19797TIP3    H280807   2.597   6.522   0.733 -2.0661 -0.4295  1.6794
19798TIP3   OH280808   4.258   0.561   5.590  0.2321  0.3189  0.1026
19798TIP3    H180809   4.289   0.525   5.507  1.3249  0.2942  0.5047
19798TIP3    H280810   4.177   0.606   5.567 -0.3366 -1.0482 -0.6803
19799TIP3   OH280811   0.374   0.971   3.955 -0.3041 -0.4534 -0.1913
19799TIP3    H180812   0.395   0.959   4.048 -0.1845 -1.2397 -0.3092
19799TIP3    H280813   0.459   0.968   3.911 -0.3986 -0.5019 -0.3708
19800TIP3   OH280814   2.169   1.566   3.613 -0.1776  0.2804 -0.4111
19800TIP3    H180815   2.218   1.574   3.695  0.6313  1.3344 -0.9825
19800TIP3    H280816   2.210   1.491   3.568 -0.7112 -0.3851  0.1871
19801TIP3   OH280817   2.149   6.166  12.011  0.2846  0.2443 -0.4151
19801TIP3    H180818   2.117   6.094  12.066 -1.5812  0.4556 -1.1835
19801TIP3    H280819   2.176   6.124  11.930 -0.1257  0.3198 -0.5922
19802TIP3   OH280820   4.609   1.604  11.069 -0.8251 -0.5446  0.0513
19802TIP3    H180821   4.517   1.629  11.073 -0.8332 -0.2975 -1.4243
19802TIP3    H280822   4.649   1.668  11.010  1.0697  1.6314  3.2869
19803TIP3   OH280823   3.685   2.371  12.566 -0.0560 -0.5657  0.0777
19803TIP3    H180824   3.659   2.460  12.544  2.7462  0.3471  0.0386
19803TIP3    H280825   3.721   2.378  12.654 -0.1785 -1.7701  0.2398
19804TIP3   OH280826   3.281   1.603   0.576 -0.6662 -0.3301  0.3173
19804TIP3    H180827   3.245   1.536   0.633  1.0644 -1.4373  0.1729
19804TIP3    H280828   3.327   1.555   0.507  1.6982  0.9520  0.9003
19805TIP3   OH280829   5.187   1.052   3.360 -0.1487 -0.2776  0.2614
19805TIP3    H180830   5.120   1.000   3.404  1.0292 -1.2701  0.9800
19805TIP3    H280831   5.262   1.049   3.419  1.1083 -0.6737 -1.2770
19806TIP3   OH280832   5.709   6.633   0.015 -0.1321 -0.0632 -0.3350
19806TIP3    H180833   5.755   6.713   0.041 -0.8740  1.4640 -3.2449
19806TIP3    H280834   5.652   6.661  -0.057  0.0908 -3.3262 -1.9626
19807TIP3   OH280835   3.094   3.999  15.267  0.5547  0.1583 -0.0417
19807TIP3    H180836   3.047   4.034  15.343 -1.7785  0.3378 -1.4745
19807TIP3    H280837   3.027   3.954  15.216  2.1231 -0.2630 -1.8330
19808TIP3   OH280838   5.517   1.837  16.468 -0.1486  0.4363 -0.0236
19808TIP3    H180839   5.426   1.868  16.468 -0.2244  0.2467 -0.8085
19808TIP3    H280840   5.512   1.751  16.425  0.4236  0.4825 -0.1861
19809TIP3   OH280841   5.842   6.198   4.254  0.4505  0.0982  0.8699
19809TIP3    H180842   5.781   6.228   4.321  1.2412  0.4776  1.4437
19809TIP3    H280843   5.925   6.185   4.301  0.2786 -2.5923  0.5466
19810TIP3   OH280844   4.382   4.560   0.090  0.5356 -0.2633 -0.1486
19810TIP3    H180845   4.411   4.549  -0.001 -0.2062 -0.0659 -0.4117
19810TIP3    H280846   4.405   4.477   0.133  0.3941 -0.5648 -0.6473
19811TIP3   OH280847   5.424   6.261   4.489  0.2621  0.4545  0.6145
19811TIP3    H180848   5.356   6.265   4.557  1.5805 -0.6059  2.0482
19811TIP3    H280849   5.423   6.170   4.460  0.0811  0.7809 -0.4466
19812TIP3   OH280850   3.613   4.942  13.133 -0.2828  0.3470  0.0850
19812TIP3    H180851   3.641   5.014  13.189  1.3719 -1.1804  1.3345
19812TIP3    H280852   3.548   4.981  13.074 -0.1894  2.5958  1.3650
19813TIP3   OH280853   1.539   2.523   0.174 -0.9324  0.0797  0.0574
19813TIP3    H180854   1.542   2.436   0.211 -0.0979  0.6574  1.4265
19813TIP3    H280855   1.461   2.564   0.211 -0.3534  0.4970  0.8561
19814TIP3   OH280856   6.140   3.098  14.407 -0.0927  0.2578 -0.2393
19814TIP3    H180857   6.225   3.059  14.427 -0.1274  0.0738 -0.4524
19814TIP3    H280858   6.137   3.177  14.462 -0.0036 -0.0075  0.1550
19815TIP3   OH280859   0.220   6.698   2.933  0.4113  0.5436  0.4660
19815TIP3    H180860   0.155   6.694   2.862  0.3046  0.1137  0.5880
19815TIP3    H280861   0.245   6.790   2.937 -1.1786  0.9653  1.3138
19816TIP3   OH280862   1.666   6.248   0.606 -0.4335  1.1648  0.0079
19816TIP3    H180863   1.585   6.291   0.580 -1.0913 -1.0007 -1.9081
19816TIP3    H280864   1.731   6.280   0.543 -1.1365 -1.1070 -2.0570
19817TIP3   OH280865   1.781   4.537  16.509 -0.2620 -0.1963 -0.1467
19817TIP3    H180866   1.806   4.618  16.465 -0.0219  1.2265  2.4211
19817TIP3    H280867   1.687   4.528  16.491 -0.9915  2.3152  1.8417
19818TIP3   OH280868   3.760   5.946   5.517 -0.0076  0.2549  0.0421
19818TIP3    H180869   3.781   6.038   5.530 -0.5783  1.0701 -3.6552
19818TIP3    H280870   3.687   5.929   5.577 -0.4721  2.4750  0.1839
19819TIP3   OH280871   4.350   2.350   3.183 -0.2307  0.3855 -0.6585
19819TIP3    H180872   4.299   2.418   3.139  0.2848  0.7097 -0.7526
19819TIP3    H280873   4.438   2.360   3.149 -0.7111 -2.3428 -3.1073
19820TIP3   OH280874   5.356   1.738  15.664  0.0821  0.0696  0.4826
19820TIP3    H180875   5.367   1.818  15.715  1.2864  0.0199  0.3267
19820TIP3    H280876   5.414   1.674  15.705 -1.6498 -1.0874  1.2720
19821TIP3   OH280877   2.919   5.415   1.226  0.6853 -0.6698  0.1893
19821TIP3    H180878   2.938   5.322   1.239 -0.8046 -1.3519 -1.9079
19821TIP3    H280879   2.871   5.418   1.143  0.1583  1.9193  0.5035
19822TIP3   OH280880   4.617   6.770   0.534 -0.0319 -0.3247  0.2681
19822TIP3    H180881   4.667   6.849   0.515  0.0202 -0.2612  0.6519
19822TIP3    H280882   4.573   6.749   0.452  0.7042 -0.4421 -0.1139
19823TIP3   OH280883   2.338   1.563  15.061 -0.3465 -0.2559 -0.4635
19823TIP3    H180884   2.301   1.649  15.042  1.8858  0.7076 -0.8359
19823TIP3    H280885   2.425   1.582  15.096  1.0121 -2.3778 -2.4139
19824TIP3   OH280886   0.110   4.637   5.885  0.3121  0.6758 -0.5323
19824TIP3    H180887   0.055   4.646   5.962  0.1368  1.0382 -0.6980
19824TIP3    H280888   0.090   4.549   5.851  0.4551  0.4839 -0.1183
19825TIP3   OH280889   0.804   2.784   3.818  0.3907 -0.0593 -0.1994
19825TIP3    H180890   0.745   2.852   3.785  0.1623 -0.1295  0.0596
19825TIP3    H280891   0.762   2.754   3.899  1.8140  1.3261  1.1044
19826TIP3   OH280892   3.800   5.525   0.516 -0.0411 -0.4970 -0.0843
19826TIP3    H180893   3.797   5.565   0.603  1.1889 -1.4496  0.4215
19826TIP3    H280894   3.795   5.599   0.456 -4.4120  0.0699  0.6230
19827TIP3   OH280895   0.956   2.932   1.979 -0.1161 -0.2412  0.2633
19827TIP3    H180896   1.011   2.874   2.032  0.7715  1.5649  1.4446
19827TIP3    H280897   1.018   2.979   1.923 -0.7182  0.1531 -0.0811
19828TIP3   OH280898   1.526   2.187  12.630  0.4204  0.6293 -0.2947
19828TIP3    H180899   1.567   2.121  12.575  1.2236  0.3069  0.6560
19828TIP3    H280900   1.463   2.231  12.573  0.3551 -0.5081 -1.1172
19829TIP3   OH280901   4.987   0.375  12.118  0.0102 -0.1050  0.3400
19829TIP3    H180902   5.009   0.417  12.201  1.2704 -1.6883  0.8549
19829TIP3    H280903   5.072   0.355  12.078 -0.5659  0.4921 -1.2973
19830TIP3   OH280904   1.913   0.687   5.567 -0.2391  0.8794  0.0799
19830TIP3    H180905   1.857   0.747   5.518 -1.1668  0.2832  0.3943
19830TIP3    H280906   2.002   0.716   5.547 -0.6256  1.2348 -1.1814
19831TIP3   OH280907   2.530   3.670   4.240 -0.1909 -0.3719  0.0071
19831TIP3    H180908   2.534   3.760   4.207  0.0599 -0.0745  0.8190
19831TIP3    H280909   2.436   3.651   4.245 -0.2390 -0.8713 -2.0071
19832TIP3   OH280910   4.747   0.198  15.663  0.8428  0.1663 -0.4477
19832TIP3    H180911   4.800   0.134  15.712  0.2894  0.8579  1.1354
19832TIP3    H280912   4.793   0.281  15.676 -0.7070  0.8376  1.2232
19833TIP3   OH280913   1.301   2.061   4.684 -0.0186  0.0619 -0.7619
19833TIP3    H180914   1.367   2.074   4.616 -0.4911  0.4322 -1.1613
19833TIP3    H280915   1.266   2.148   4.701  0.6443  0.0981  0.5465
19834TIP3   OH280916   2.510   5.876   6.228 -0.1959  0.2490  0.7304
19834TIP3    H180917   2.449   5.903   6.296 -1.1695  1.2507 -0.4897
19834TIP3    H280918   2.569   5.951   6.216 -0.8770  0.6214 -0.4354
19835TIP3   OH280919   2.853   0.492  16.963  0.2383 -0.4934  0.3606
19835TIP3    H180920   2.853   0.407  17.008 -0.7756 -1.0269 -0.6199
19835TIP3    H280921   2.761   0.516  16.957  0.4722  0.3413 -0.0146
19836TIP3   OH280922   1.294   2.317  11.266  0.2050 -0.1043  0.1076
19836TIP3    H180923   1.375   2.348  11.226  0.1785  0.4994  0.5058
19836TIP3    H280924   1.264   2.246  11.209  0.7961 -0.0576 -0.2664
19837TIP3   OH280925   4.683   2.280  12.592  0.3602 -0.0313 -0.1148
19837TIP3    H180926   4.592   2.253  12.605  0.1495  0.4927 -0.4368
19837TIP3    H280927   4.676   2.358  12.536  1.0023  0.0561 -0.0742
19838TIP3   OH280928   2.472   4.687  14.864  0.0660 -0.4007 -0.8852
19838TIP3    H180929   2.439   4.759  14.811 -0.5226 -1.2497 -1.6864
19838TIP3    H280930   2.438   4.608  14.823 -0.9420 -1.0780  1.1002
19839TIP3   OH280931   2.565   3.676   1.535 -0.1639  0.1239  0.2291
19839TIP3    H180932   2.612   3.755   1.508 -0.5633  1.2670  2.5447
19839TIP3    H280933   2.483   3.679   1.486  0.2153  0.6451 -0.3924
19840TIP3   OH280934   5.014   3.617  13.717  0.5245 -0.1958  0.1035
19840TIP3    H180935   5.061   3.536  13.736 -0.2858 -0.6859  0.0413
19840TIP3    H280936   4.936   3.614  13.772  0.6563  0.7143  0.3665
19841TIP3   OH280937   4.707   0.929   2.551  0.4122  0.3724 -0.0795
19841TIP3    H180938   4.662   0.848   2.576  1.4698 -0.3657 -0.5360
19841TIP3    H280939   4.800   0.910   2.564  0.7579  1.1074 -1.3335
19842TIP3   OH280940   6.018   1.444  13.410 -0.0297 -0.1666  0.3371
19842TIP3    H180941   5.936   1.435  13.362  0.1077 -2.1076  0.3685
19842TIP3    H280942   6.078   1.383  13.367  1.2604  0.8760  0.6065
19843TIP3   OH280943   5.652   6.472   3.575 -0.3712  0.2077 -0.5443
19843TIP3    H180944   5.612   6.419   3.505 -1.6783  1.1367 -0.5349
19843TIP3    H280945   5.730   6.510   3.534 -0.4073 -0.2880 -1.0934
19844TIP3   OH280946   2.402   1.267  11.351 -0.1778  0.1678  0.2830
19844TIP3    H180947   2.358   1.207  11.411  1.5167 -0.7102  0.7252
19844TIP3    H280948   2.413   1.218  11.270  2.3524 -0.7022  1.0449
19845TIP3   OH280949   1.390   3.677  11.816 -0.5581  0.6807  0.4771
19845TIP3    H180950   1.435   3.609  11.766 -0.0890  0.1332  1.5910
19845TIP3    H280951   1.392   3.645  11.906 -2.2802  1.1469  0.7151
19846TIP3   OH280952   2.550   0.687  11.409  0.2653 -0.2703  0.4108
19846TIP3    H180953   2.644   0.672  11.418  0.2595  0.3563  1.6825
19846TIP3    H280954   2.543   0.775  11.373  0.1818 -1.2218 -2.1086
19847TIP3   OH280955   3.892   6.744   2.910  0.4498 -1.1869 -0.2462
19847TIP3    H180956   3.815   6.689   2.898  0.1724 -0.8716  0.0742
19847TIP3    H280957   3.908   6.782   2.823  0.7958 -1.9589 -0.5278
19848TIP3   OH280958   3.274   4.364  11.721  0.0512  0.6580 -0.3000
19848TIP3    H180959   3.284   4.420  11.798 -0.5203  1.7346 -0.9910
19848TIP3    H280960   3.240   4.422  11.653 -0.5041 -0.5138 -1.0558
19849TIP3   OH280961   4.167   5.354   2.014 -0.5227  0.2809  0.1737
19849TIP3    H180962   4.229   5.427   2.004  0.2062 -0.1616  1.3114
19849TIP3    H280963   4.216   5.287   2.061 -0.9897 -1.2217 -1.3808
19850TIP3   OH280964   5.497   0.940   3.385  0.2069  0.3617 -0.5007
19850TIP3    H180965   5.499   0.947   3.480 -0.4339  1.0918 -0.5278
19850TIP3    H280966   5.512   0.847   3.367 -0.1466  0.1350  0.3329
19851TIP3   OH280967   6.416   5.130  13.502  0.1032 -0.6286  0.0558
19851TIP3    H180968   6.439   5.222  13.519 -2.0175 -0.1272  0.4763
19851TIP3    H280969   6.333   5.135  13.455  0.5446 -2.3346 -0.9597
19852TIP3   OH280970   1.265   1.294  13.226  0.7536  0.0176 -0.1641
19852TIP3    H180971   1.285   1.263  13.137 -0.3813 -0.5803 -0.2380
19852TIP3    H280972   1.187   1.245  13.250  0.8298  0.4655  1.0259
19853TIP3   OH280973   3.476   1.266   4.219  0.1566 -0.1313 -0.3571
19853TIP3    H180974   3.531   1.329   4.173  0.7896 -0.2248  0.2464
19853TIP3    H280975   3.478   1.187   4.165 -0.4616  0.2909 -1.0044
19854TIP3   OH280976   4.134   2.062   1.772  0.3876 -0.3503  0.0218
19854TIP3    H180977   4.172   2.150   1.762 -1.2789  0.6999  2.1402
19854TIP3    H280978   4.203   2.010   1.813  0.8374  0.4243  0.2649
19855TIP3   OH280979   0.393   0.568   1.799 -0.2191  0.0426  0.1509
19855TIP3    H180980   0.335   0.559   1.724  0.5082  1.0954 -0.5598
19855TIP3    H280981   0.411   0.662   1.805  3.0671 -0.3627 -0.9771
19856TIP3   OH280982   0.171   5.256  11.584  0.0844 -0.0685  0.6569
19856TIP3    H180983   0.234   5.274  11.514 -0.4636 -2.0065 -0.4083
19856TIP3    H280984   0.132   5.342  11.603  0.4281  0.5623 -1.2555
19857TIP3   OH280985   3.973   4.152  12.291  0.6115 -0.3858  0.2068
19857TIP3    H180986   4.049   4.172  12.345  1.1219  2.3186 -1.3338
19857TIP3    H280987   3.950   4.235  12.249 -2.7569 -1.2573  0.0099
19858TIP3   OH280988   2.338   6.717   4.863  0.2541 -0.2848  0.2029
19858TIP3    H180989   2.334   6.632   4.820  1.0806 -0.8066  1.1173
19858TIP3    H280990   2.416   6.758   4.826  0.0350 -0.0596 -0.0066
19859TIP3   OH280991   0.616   0.229   1.617 -0.8538  0.0387  0.5448
19859TIP3    H180992   0.537   0.262   1.574  0.1617 -0.2304 -1.6524
19859TIP3    H280993   0.655   0.306   1.658 -0.4392  0.8857 -1.3701
19860TIP3   OH280994   1.569   5.736  15.299  0.1113  0.2468 -0.0098
19860TIP3    H180995   1.569   5.829  15.319  1.1001 -0.1245  1.9482
19860TIP3    H280996   1.594   5.731  15.207  0.6437  1.8927  0.0145
19861TIP3   OH280997   5.143   3.393   2.862  0.2973  0.0579  0.8234
19861TIP3    H180998   5.141   3.488   2.862 -0.1014  0.0701 -0.4724
19861TIP3    H280999   5.064   3.367   2.814  1.2129 -0.8711 -0.2521
19862TIP3   OH281000   4.501   1.355   0.829 -0.2135 -0.4753  0.3747
19862TIP3    H181001   4.582   1.377   0.875  0.3094  0.7201 -1.0162
19862TIP3    H281002   4.520   1.271   0.786  0.4488 -0.0143 -0.2583
19863TIP3   OH281003   2.433   0.971  11.630  0.1218  0.1140 -0.4016
19863TIP3    H181004   2.525   0.946  11.643  0.1908  1.2313  1.5532
19863TIP3    H281005   2.387   0.934  11.705 -0.6087  1.5505 -0.1215
19864TIP3   OH281006   5.411   2.661  11.633  0.6174 -0.0072 -0.3945
19864TIP3    H181007   5.395   2.584  11.579 -1.0629  1.3910 -2.0377
19864TIP3    H281008   5.483   2.707  11.590 -2.0525  2.2011 -2.9543
19865TIP3   OH281009   5.785   3.207   2.966 -0.6211 -0.5874 -0.6329
19865TIP3    H181010   5.803   3.294   2.930 -1.8174 -0.1975 -0.3623
19865TIP3    H281011   5.853   3.194   3.032 -1.3046  0.8313  0.4100
19866TIP3   OH281012   0.276   0.744  11.950  0.6080  0.0777 -0.1515
19866TIP3    H181013   0.367   0.727  11.929  0.3512 -2.6118  0.5926
19866TIP3    H281014   0.280   0.803  12.026  1.8692 -2.0188  1.5324
19867TIP3   OH281015   5.539   0.650   6.211  0.3568 -0.2327 -0.3371
19867TIP3    H181016   5.569   0.733   6.174  1.1024 -0.3875 -0.0957
19867TIP3    H281017   5.447   0.666   6.234  0.6996  0.7513  0.3816
19868TIP3   OH281018   0.747   1.614  13.450  0.4540 -0.3613 -0.0023
19868TIP3    H181019   0.665   1.600  13.497  0.4363  1.0130  0.4080
19868TIP3    H281020   0.720   1.624  13.359  0.3963 -1.9983 -0.2108
19869TIP3   OH281021   1.934   0.617  12.535 -0.2916 -0.6913  0.1848
19869TIP3    H181022   1.966   0.626  12.445  1.3149 -0.0675  0.7897
19869TIP3    H281023   1.871   0.688  12.545  2.0665  1.5115  0.5758
19870TIP3   OH281024   5.344   6.216   2.842  0.1261 -0.4468 -0.0601
19870TIP3    H181025   5.257   6.222   2.881 -0.3365 -0.2809 -1.0700
19870TIP3    H281026   5.402   6.257   2.906 -0.7839  1.0224 -0.1214
19871TIP3   OH281027   0.319   1.573  11.528  0.4817  0.0897 -0.5558
19871TIP3    H181028   0.360   1.580  11.615  1.3031 -0.4470 -0.8916
19871TIP3    H281029   0.243   1.630  11.534 -0.2266 -0.9368  0.9522
19872TIP3   OH281030   4.806   3.955   2.543 -0.1659  0.3303  0.1855
19872TIP3    H181031   4.780   3.916   2.460 -0.9304  1.0399  0.0889
19872TIP3    H281032   4.860   3.887   2.585  0.5063  0.0975 -1.0188
19873TIP3   OH281033   0.200   3.529  10.789 -0.0431  0.7285  0.3765
19873TIP3    H181034   0.256   3.533  10.711 -0.5350 -1.7554 -0.1919
19873TIP3    H281035   0.262   3.527  10.862  0.6017 -0.6831 -0.1802
19874TIP3   OH281036   2.845   2.021  11.042 -0.1778 -0.0258 -0.2166
19874TIP3    H181037   2.833   2.105  11.086  0.4853 -0.1532  0.2303
19874TIP3    H281038   2.939   2.017  11.024 -0.4032 -0.0805 -1.4445
19875TIP3   OH281039   5.378   2.484   5.288 -0.2878  0.0868  0.0791
19875TIP3    H181040   5.424   2.404   5.263 -1.3796 -0.5041 -0.1276
19875TIP3    H281041   5.330   2.510   5.210  0.7487  1.4719 -0.1272
19876TIP3   OH281042   5.176   0.481  15.965 -0.1057  0.1312  0.3909
19876TIP3    H181043   5.128   0.563  15.954 -0.3220  0.1028  1.0849
19876TIP3    H281044   5.257   0.494  15.914  0.1023  0.9822  0.9180
19877TIP3   OH281045   5.974   1.181   4.095 -0.5465  0.4620  0.0985
19877TIP3    H181046   6.070   1.176   4.090 -0.3285  2.0820  1.6767
19877TIP3    H281047   5.951   1.119   4.164 -0.3804  1.7858  1.3713
19878TIP3   OH281048   0.873   5.766  11.971  0.0927 -0.0887  0.1186
19878TIP3    H181049   0.917   5.710  12.035 -1.5798 -1.2178  0.3455
19878TIP3    H281050   0.827   5.705  11.914 -1.4854  1.0161  0.1433
19879TIP3   OH281051   3.865   5.766   3.077 -0.1216 -0.4766 -0.2841
19879TIP3    H181052   3.811   5.703   3.030  0.5204 -0.2268 -1.3940
19879TIP3    H281053   3.946   5.770   3.027  0.0448  0.8567  0.0531
19880TIP3   OH281054   1.733   4.387  13.968  0.3297  0.3765  0.2581
19880TIP3    H181055   1.817   4.427  13.992  1.1674 -2.0059  1.7082
19880TIP3    H281056   1.723   4.407  13.875  2.7984  0.3129 -0.1078
19881TIP3   OH281057   5.022   2.102  13.954  0.5402 -0.1757  0.3940
19881TIP3    H181058   4.981   2.088  13.869 -0.2138 -1.2861  0.9018
19881TIP3    H281059   5.000   2.192  13.977 -1.9955 -0.7887  0.7786
19882TIP3   OH281060   0.616   3.692   1.121 -0.0321 -0.6430 -0.0015
19882TIP3    H181061   0.570   3.653   1.196  0.5566  0.7925  1.1662
19882TIP3    H281062   0.547   3.730   1.068 -0.3619 -0.3052  0.6504
19883TIP3   OH281063   3.343   0.373   5.480  0.2053  0.4125  0.0222
19883TIP3    H181064   3.423   0.321   5.493 -1.0541 -1.0804  2.7866
19883TIP3    H281065   3.322   0.405   5.568 -1.9511  1.1975 -0.7284
19884TIP3   OH281066   2.726   6.364   0.108  0.0878 -0.2654 -0.0039
19884TIP3    H181067   2.666   6.307   0.059 -0.4843 -1.3682  1.8929
19884TIP3    H281068   2.813   6.335   0.081 -0.1997 -0.1369 -1.1417
19885TIP3   OH281069   3.130   2.475  11.822  0.5465 -0.2897  0.2402
19885TIP3    H181070   3.125   2.500  11.914  1.0764  1.5515 -0.1910
19885TIP3    H281071   3.197   2.532  11.785  0.2072 -0.8624 -1.3352
19886TIP3   OH281072   0.650   6.170  12.055 -0.3145 -0.4721 -0.3430
19886TIP3    H181073   0.654   6.087  12.007 -2.3371 -0.6637 -0.2328
19886TIP3    H281074   0.602   6.229  11.997  0.8820  0.5813 -0.3078
19887TIP3   OH281075   2.428   0.068   0.370  0.2097 -0.3461 -0.6230
19887TIP3    H181076   2.520   0.082   0.349 -0.1720  0.9074 -1.5524
19887TIP3    H281077   2.421   0.088   0.463  0.9277 -0.8080 -0.4601
19888TIP3   OH281078   3.587   4.133   2.918  0.0616 -0.1081 -0.0703
19888TIP3    H181079   3.637   4.150   2.998 -1.1316 -0.1586  0.7114
19888TIP3    H281080   3.654   4.115   2.852  1.1089  0.7335  0.7130
19889TIP3   OH281081   0.182   2.658  16.835  0.0544  0.0447 -0.2391
19889TIP3    H181082   0.231   2.595  16.887  0.6578 -0.0928 -0.9690
19889TIP3    H281083   0.099   2.613  16.816 -0.1932  0.1167  0.6340
19890TIP3   OH281084   2.871   1.728   3.403  0.3367 -0.1731 -0.5059
19890TIP3    H181085   2.898   1.684   3.483 -0.0143  1.2741  0.4441
19890TIP3    H281086   2.912   1.815   3.408 -2.6008  1.2986 -0.0780
19891TIP3   OH281087   4.040   3.909   1.102  0.0096  0.3873 -0.5639
19891TIP3    H181088   4.133   3.922   1.121 -0.0896 -0.2869  0.4012
19891TIP3    H281089   4.036   3.824   1.059 -0.2634  0.0518  0.1341
19892TIP3   OH281090   4.860   3.363  13.560  0.1389  0.4312 -0.0085
19892TIP3    H181091   4.932   3.357  13.622 -0.2518  0.9682  0.4989
19892TIP3    H281092   4.795   3.417  13.603 -0.1459  0.8007 -0.8767
19893TIP3   OH281093   5.707   5.527  14.260  0.3300 -0.7165  0.2477
19893TIP3    H181094   5.748   5.452  14.217  0.3718 -0.5466 -0.0087
19893TIP3    H281095   5.632   5.489  14.306 -0.4351 -0.7269 -0.9667
19894TIP3   OH281096   1.421   6.094  12.948 -0.3393 -0.1310  0.3115
19894TIP3    H181097   1.481   6.029  12.911 -2.6152 -3.0468  1.4019
19894TIP3    H281098   1.354   6.107  12.881 -1.9102 -1.8589  1.4540
19895TIP3   OH281099   0.029   0.574  11.084 -0.4011  0.1867  0.1598
19895TIP3    H181100   0.071   0.631  11.019 -1.1280  1.5482  0.8264
19895TIP3    H281101   0.094   0.564  11.153 -0.9102  1.8267  0.9278
19896TIP3   OH281102   4.619   2.925   1.728 -0.0736 -0.7094  0.3570
19896TIP3    H181103   4.669   3.006   1.724 -0.3765 -0.5500 -0.4231
19896TIP3    H281104   4.681   2.860   1.760  0.6675 -0.5397 -0.7053
19897TIP3   OH281105   1.574   5.307   4.930 -0.0213 -0.1061 -0.2612
19897TIP3    H181106   1.488   5.346   4.921 -0.3865 -1.0501 -0.9824
19897TIP3    H281107   1.589   5.302   5.024 -0.5910  0.3958 -0.1431
19898TIP3   OH281108   3.833   0.365  12.414 -0.1196  0.3672 -0.9559
19898TIP3    H181109   3.811   0.453  12.386 -1.9009 -0.2581 -1.6757
19898TIP3    H281110   3.904   0.338  12.355 -0.5184  0.8211 -1.6582
19899TIP3   OH281111   5.305   3.596   1.063  0.3280 -0.1601 -0.5047
19899TIP3    H181112   5.322   3.627   0.974  0.2588 -0.3037 -0.5678
19899TIP3    H281113   5.278   3.505   1.052 -0.9143  0.1918 -0.4351
19900TIP3   OH281114   4.037   3.612   3.380  0.3367 -0.4802  0.4185
19900TIP3    H181115   3.982   3.624   3.303 -0.6931 -1.2192  0.9984
19900TIP3    H281116   4.003   3.674   3.444  0.2439 -0.8501  0.7369
19901TIP3   OH281117   0.601   4.104  14.058  0.1191 -0.4650  0.1502
19901TIP3    H181118   0.546   4.062  14.123 -2.3154  1.8170 -0.2712
19901TIP3    H281119   0.664   4.155  14.108  0.9587 -1.9469  0.6472
19902TIP3   OH281120   3.255   2.744   2.420 -0.0556 -0.0512  0.3923
19902TIP3    H181121   3.223   2.764   2.332  0.4080  1.4269  0.5332
19902TIP3    H281122   3.271   2.830   2.460  1.1030 -0.7132  1.4160
19903TIP3   OH281123   5.342   0.696  11.090  0.1791 -0.0609 -0.1964
19903TIP3    H181124   5.349   0.614  11.042  0.5363  0.8191 -1.7282
19903TIP3    H281125   5.398   0.757  11.042  0.2296  0.9934  1.1172
19904TIP3   OH281126   0.699   6.667  12.128  0.6948  0.6860  0.2573
19904TIP3    H181127   0.774   6.709  12.084  0.3003 -0.2011 -1.3157
19904TIP3    H281128   0.625   6.725  12.109  0.8456  1.2890  1.3831
19905TIP3   OH281129   2.858   2.437  13.937 -0.7656 -0.0480  0.3857
19905TIP3    H181130   2.906   2.509  13.977  0.8759 -1.0753  0.3762
19905TIP3    H281131   2.896   2.429  13.849 -1.4674 -0.4288  0.1128
19906TIP3   OH281132   3.865   5.808  14.775  0.1886 -0.6642 -0.2269
19906TIP3    H181133   3.920   5.882  14.750 -1.0102  0.4177  0.2234
19906TIP3    H281134   3.786   5.848  14.811  0.5957 -2.1309  2.5494
19907TIP3   OH281135   4.289   5.338  12.859  0.3400  0.2850  0.2453
19907TIP3    H181136   4.258   5.248  12.849  1.0806  0.0557 -0.0700
19907TIP3    H281137   4.257   5.383  12.781  1.9243 -0.2899 -0.7861
19908TIP3   OH281138   4.800   4.648  13.866 -0.1858 -0.5400 -0.6256
19908TIP3    H181139   4.798   4.702  13.944 -2.5727 -0.6219 -0.5326
19908TIP3    H281140   4.847   4.700  13.801 -1.0864  1.0088 -0.0897
19909TIP3   OH281141   3.185   4.388   2.398  0.0138  0.0903  0.4329
19909TIP3    H181142   3.222   4.319   2.343 -0.9027  0.4818 -0.7182
19909TIP3    H281143   3.183   4.349   2.486  1.3741 -0.5974  0.1908
19910TIP3   OH281144   0.197   3.896   4.293  0.1026  0.1787  0.5141
19910TIP3    H181145   0.233   3.824   4.241  0.2002  0.3552  0.3366
19910TIP3    H281146   0.207   3.867   4.384  0.4273  0.0990  0.4549
19911TIP3   OH281147   5.447   3.858   4.459 -0.2283  0.1523  0.8169
19911TIP3    H181148   5.455   3.766   4.487  0.4848 -0.0764 -0.1099
19911TIP3    H281149   5.504   3.906   4.519  0.0020 -0.1136  0.8157
19912TIP3   OH281150   6.269   1.504  12.212 -0.2904  1.0959 -0.1121
19912TIP3    H181151   6.212   1.527  12.285 -1.1875  2.1356 -1.1178
19912TIP3    H281152   6.341   1.455  12.253 -1.1048  1.0832  1.3691
19913TIP3   OH281153   2.610   4.745   1.095 -0.0158 -0.2135  0.7250
19913TIP3    H181154   2.665   4.791   1.158  2.6987 -3.0151  0.6400
19913TIP3    H281155   2.599   4.807   1.023  3.8487  0.3249  0.4054
19914TIP3   OH281156   1.562   0.504   0.801  0.3464 -0.6591  0.1387
19914TIP3    H181157   1.509   0.455   0.738  0.7476 -2.1213  0.8971
19914TIP3    H281158   1.652   0.493   0.770  0.4963 -0.9398  0.6682
19915TIP3   OH281159   5.951   4.865   2.148 -0.0308 -0.2789 -0.0967
19915TIP3    H181160   5.954   4.823   2.062  0.0974 -0.7833  0.1476
19915TIP3    H281161   5.921   4.954   2.131  1.2689  0.0440 -0.8338
19916TIP3   OH281162   4.850   2.899  13.746  0.3307  0.2485  0.0736
19916TIP3    H181163   4.873   2.957  13.673  2.1922  1.2735  1.3927
19916TIP3    H281164   4.909   2.824  13.736 -0.7801 -0.5752 -0.5537
19917TIP3   OH281165   3.737   4.104  13.633 -0.0667  0.6001 -0.0533
19917TIP3    H181166   3.724   4.047  13.557 -0.6627  0.1746  0.3519
19917TIP3    H281167   3.693   4.186  13.609 -3.4235 -0.6788  1.1298
19918TIP3   OH281168   3.171   6.262   2.611  0.5037 -0.3347  0.5451
19918TIP3    H181169   3.162   6.183   2.665  1.4115 -0.9991 -0.2165
19918TIP3    H281170   3.087   6.271   2.567  0.0441 -0.2721  1.4257
19919TIP3   OH281171   4.256   0.166  15.193 -0.2887  0.0821  0.0632
19919TIP3    H181172   4.318   0.212  15.249 -1.7640 -0.0304  1.8750
19919TIP3    H281173   4.170   0.198  15.220 -1.1902 -1.6143 -0.5893
19920TIP3   OH281174   6.293   4.838   3.195  0.0495  0.2071  0.1851
19920TIP3    H181175   6.310   4.746   3.214  0.1931  0.1438 -0.2493
19920TIP3    H281176   6.199   4.843   3.177 -0.3674  0.4946  2.2208
19921TIP3   OH281177   2.300   2.711   4.260  0.0775 -0.1292 -0.2387
19921TIP3    H181178   2.305   2.797   4.219 -1.5811  0.5401  0.8540
19921TIP3    H281179   2.363   2.715   4.332 -0.6212  0.5200  0.3571
19922TIP3   OH281180   6.224   6.325  12.220 -0.3829  0.4163 -0.0522
19922TIP3    H181181   6.168   6.266  12.170 -0.3628  1.7033 -1.6729
19922TIP3    H281182   6.165   6.392  12.253 -0.0072  1.1364 -0.7936
19923TIP3   OH281183   2.774   1.086   3.319 -0.5926 -0.5490 -0.3841
19923TIP3    H181184   2.709   1.135   3.269 -0.9747 -2.1830 -1.5622
19923TIP3    H281185   2.725   1.053   3.395 -0.4513  0.4533  0.1557
19924TIP3   OH281186   4.309   3.548   0.427  0.0199 -0.0638 -0.1378
19924TIP3    H181187   4.320   3.466   0.380  1.6270 -0.2869  0.5557
19924TIP3    H281188   4.290   3.613   0.359  1.6956 -0.4826 -1.0606
19925TIP3   OH281189   4.947   2.084   0.539  0.0901 -0.1913  0.4824
19925TIP3    H181190   5.020   2.025   0.519  0.2246 -1.0219  3.0646
19925TIP3    H281191   4.869   2.028   0.534 -0.0090 -0.0945  0.8968
19926TIP3   OH281192   5.255   5.634  12.811 -0.2902 -0.2117 -0.7074
19926TIP3    H181193   5.234   5.545  12.783  1.9972 -1.6703  1.6902
19926TIP3    H281194   5.183   5.658  12.870 -0.1004 -1.2069 -0.0445
19927TIP3   OH281195   1.424   5.905   0.419 -0.2945 -0.5045 -0.2887
19927TIP3    H181196   1.364   5.838   0.388 -1.7815  0.1316  1.1181
19927TIP3    H281197   1.405   5.914   0.512  1.6141  0.1169  0.0939
19928TIP3   OH281198   0.570   2.971   4.193  0.3737  0.5903  0.1197
19928TIP3    H181199   0.642   3.022   4.156  0.6249 -0.4141 -0.8132
19928TIP3    H281200   0.533   3.028   4.260  1.1731  1.6642 -0.3202
19929TIP3   OH281201   5.092   6.229  11.037  0.0737  0.3966 -0.2432
19929TIP3    H181202   5.084   6.315  11.076  1.4555  0.8144 -0.8231
19929TIP3    H281203   5.141   6.243  10.956 -1.9463 -0.5530 -1.7283
19930TIP3   OH281204   2.959   4.211   2.445 -0.6556  0.1348  0.1856
19930TIP3    H181205   2.946   4.200   2.539 -1.9633  0.8895  0.1247
19930TIP3    H281206   3.017   4.140   2.420  0.9725  0.7854  1.8154
19931TIP3   OH281207   6.049   0.308   5.333  0.4902 -0.7279 -0.0125
19931TIP3    H181208   6.048   0.235   5.270 -0.7214 -2.7216  2.1806
19931TIP3    H281209   5.958   0.319   5.359  0.9936 -0.1219  1.5827
19932TIP3   OH281210   5.942   4.204  10.550 -0.8655 -0.0093 -0.3359
19932TIP3    H181211   5.892   4.142  10.603 -0.7407  0.1299 -0.0516
19932TIP3    H281212   5.914   4.187  10.460 -1.1978 -0.1412 -0.2107
19933TIP3   OH281213   5.128   1.343  10.923  0.5176 -0.3363 -0.0555
19933TIP3    H181214   5.112   1.277  10.990  0.0592  0.8607  1.0621
19933TIP3    H281215   5.102   1.425  10.964 -1.9227  0.2276 -2.4481
19934TIP3   OH281216   5.357   3.003   0.825 -0.3702 -0.0409  0.8635
19934TIP3    H181217   5.269   3.036   0.847  0.7110  2.9529  1.0976
19934TIP3    H281218   5.416   3.051   0.883  1.4602 -2.3374  1.0565
19935TIP3   OH281219   2.185   5.769   0.238 -0.3818 -0.0436  0.1259
19935TIP3    H181220   2.238   5.767   0.158 -0.0162  2.3874  0.2419
19935TIP3    H281221   2.095   5.770   0.206 -0.2441  0.6480 -0.2611
19936TIP3   OH281222   4.134   1.649   4.295 -0.7167 -0.2411 -1.0566
19936TIP3    H181223   4.185   1.729   4.306 -1.9839  0.6328 -1.3695
19936TIP3    H281224   4.108   1.649   4.203  0.3175 -1.6773 -1.3847
19937TIP3   OH281225   2.868   4.698   0.307 -0.0795  0.3706 -0.1406
19937TIP3    H181226   2.900   4.660   0.225 -1.2526  0.5806 -0.7050
19937TIP3    H281227   2.795   4.643   0.333  1.0069 -0.4211  1.4308
19938TIP3   OH281228   2.762   5.663  13.543  0.2783 -0.1794  0.5147
19938TIP3    H181229   2.728   5.683  13.455  1.1150  2.0552  0.6597
19938TIP3    H281230   2.687   5.675  13.601  0.2850  0.6008  0.3625
19939TIP3   OH281231   1.617   3.725   5.341  0.3323 -0.3265  0.0683
19939TIP3    H181232   1.695   3.702   5.391 -0.6637  0.4517  2.0919
19939TIP3    H281233   1.549   3.739   5.407 -0.9812  1.1058 -1.4969
19940TIP3   OH281234   1.128   2.795   3.038 -0.1879  0.4718  0.0385
19940TIP3    H181235   1.194   2.754   3.093 -1.2721 -1.9921 -0.3469
19940TIP3    H281236   1.044   2.769   3.077 -1.0781 -2.4499 -3.2219
19941TIP3   OH281237   4.937   1.660   1.376 -0.2069 -0.3160 -0.0556
19941TIP3    H181238   4.885   1.687   1.451 -0.3275 -1.6941  0.3816
19941TIP3    H281239   5.016   1.715   1.380  0.1918 -0.9708  1.5864
19942TIP3   OH281240   4.376   5.444   1.342  1.1027 -0.3101  0.7468
19942TIP3    H181241   4.449   5.492   1.305  0.5186  1.4558  1.7192
19942TIP3    H281242   4.400   5.431   1.434  0.6915 -0.7543  0.7969
19943TIP3   OH281243   0.600   2.115  14.868  0.4247  0.2721 -0.4612
19943TIP3    H181244   0.564   2.058  14.936  1.9292 -1.9747 -1.4518
19943TIP3    H281245   0.640   2.188  14.917  0.2160 -0.5433  0.9761
19944TIP3   OH281246   3.310   5.422   0.426  0.3099 -0.1897 -0.1275
19944TIP3    H181247   3.339   5.456   0.341  2.2061 -2.1639 -0.3727
19944TIP3    H281248   3.362   5.471   0.490 -1.1778  1.3554 -0.0499
19945TIP3   OH281249   0.861   2.361   2.777  0.0552  0.1859 -0.4964
19945TIP3    H181250   0.824   2.390   2.693  2.4166 -0.6718 -1.9323
19945TIP3    H281251   0.927   2.427   2.798  1.6188 -1.1407 -0.9696
19946TIP3   OH281252   2.770   4.604   4.928 -0.6644  0.5295  0.6224
19946TIP3    H181253   2.686   4.558   4.923 -0.0282 -0.6104 -0.4664
19946TIP3    H281254   2.759   4.681   4.872  0.2171 -1.8183 -3.1578
19947TIP3   OH281255   1.126   5.348  14.302  0.2735 -0.0631 -0.3437
19947TIP3    H181256   1.188   5.369  14.231  1.5429  1.4728  1.1371
19947TIP3    H281257   1.115   5.253  14.297  1.7283 -0.2092 -1.4912
19948TIP3   OH281258   6.340   0.157  14.108 -0.4825  0.1517  0.1416
19948TIP3    H181259   6.353   0.246  14.140 -2.4429  0.5410 -0.0147
19948TIP3    H281260   6.368   0.160  14.017  2.0176 -0.1325  0.8252
19949TIP3   OH281261   2.748   5.069  13.684  0.5241 -0.2896 -0.7347
19949TIP3    H181262   2.710   4.999  13.737 -1.5171  1.5057  0.3423
19949TIP3    H281263   2.840   5.074  13.713  0.1015 -1.0054  0.8479
19950TIP3   OH281264   4.714   5.959   3.177 -0.3906  0.1166 -0.2018
19950TIP3    H181265   4.657   6.027   3.142 -0.2534  0.4926  0.2905
19950TIP3    H281266   4.656   5.885   3.192 -0.4092 -0.1296 -1.4256
19951TIP3   OH281267   0.722   2.324   0.093 -0.3953  0.4238 -1.0040
19951TIP3    H181268   0.672   2.392   0.049  1.2760  1.5791 -1.2311
19951TIP3    H281269   0.812   2.338   0.064  0.2364 -0.9071  0.1786
19952LIG     O181270   1.572   5.094  16.536  0.1577 -0.2868  0.4909
19952LIG     O281271   1.816   5.063  16.641 -0.3286 -0.7850 -0.0800
19952LIG     O381272   1.559   4.807  16.406 -0.0330  0.0077  0.1809
19952LIG     O481273   1.878   5.100  16.865 -0.1117 -0.0970 -0.2478
19952LIG     O581274   1.776   4.783  16.695  0.3812  0.2081 -0.4736
19952LIG     O681275   1.935   4.695  16.931 -0.2427 -0.2297 -0.6230
19952LIG     O781276   1.924   4.883  17.156  0.4305 -0.1898 -0.3469
19952LIG     O881277   2.051   5.241  17.056  0.4571  0.4947 -0.0366
19952LIG     O981278   1.931   5.163  17.227 -0.0397 -0.1883  0.2321
19952LIG      N81279   1.608   5.448  16.194 -0.2595  0.9567 -0.1462
19952LIG     C181280   1.632   5.275  16.417  0.0734 -0.2270 -1.5129
19952LIG     C281281   1.746   5.374  16.385  0.3097 -0.0884 -0.0055
19952LIG     C381282   1.634   5.221  16.560 -0.0124  0.3035 -0.0763
19952LIG     C481283   1.737   5.393  16.235  0.2361 -0.6311 -0.4914
19952LIG     C581284   1.494   5.326  16.379 -0.2813  0.3907  0.2889
19952LIG     C681285   1.653   5.160  16.326 -0.4164  0.0476 -0.2592
19952LIG     C781286   1.786   5.272  16.141  0.3237 -0.3649  0.2376
19952LIG     C881287   1.488   5.360  16.227 -0.8674 -0.3043 -0.7760
19952LIG     C981288   1.777   5.199  16.625 -0.2864 -0.3908 -0.1399
19952LIG    C1081289   1.717   5.152  16.204  0.0789  0.1005  0.1860
19952LIG    C1181290   1.882   5.334  16.435  0.1471 -0.1883 -0.3289
19952LIG    C1281291   1.612   5.050  16.406 -0.4876 -0.4146  0.2541
19952LIG    C1381292   1.893   5.252  16.539 -0.0164  0.3581  0.1396
19952LIG    C1481293   1.585   5.588  16.224 -0.5178 -0.3068 -0.2500
19952LIG    C1581294   1.733   5.020  16.155 -0.9209  0.1245 -0.8174
19952LIG    C1681295   1.630   4.924  16.355  0.4202 -0.1388 -0.3532
19952LIG    C1781296   1.688   4.907  16.229  0.7559 -0.2030 -0.3067
19952LIG    C1881297   1.804   5.021  16.774 -0.2154  0.9921 -0.1995
19952LIG    C1981298   1.855   4.876  16.778  0.3389  0.2764 -0.1516
19952LIG    C2081299   1.870   4.817  16.925 -0.1925 -0.4906 -0.7079
19952LIG    C2181300   1.926   4.924  17.019 -0.3770  0.2962  0.5244
19952LIG    C2281301   1.865   5.064  17.004  0.3029 -0.0407 -0.4307
19952LIG    C2381302   1.945   5.157  17.104  0.1216 -0.1829 -0.3111
19952LIG     H181303   1.713   5.473  16.424  0.4319  0.4451 -1.1990
19952LIG     H281304   1.571   5.280  16.630  0.4208 -1.2062  1.6570
19952LIG     H381305   1.818   5.464  16.206  1.3388 -1.2868  0.8565
19952LIG     H481306   1.475   5.410  16.448  0.7080 -1.2382  2.7012
19952LIG     H581307   1.413   5.253  16.401 -0.2101  0.3572  0.4435
19952LIG     H681308   1.896   5.254  16.140  0.9606  2.9680 -0.1821
19952LIG     H781309   1.761   5.282  16.033  1.9684  2.7354  0.0127
19952LIG     H881310   1.481   5.264  16.171  0.6507 -1.2220  0.5352
19952LIG     H981311   1.397   5.418  16.200 -1.3656 -0.6485  0.1327
19952LIG    H1081312   1.765   5.254  16.721 -1.1661  0.8545 -0.9318
19952LIG    H1181313   1.964   5.399  16.400 -0.7846  1.5857  0.6130
19952LIG    H1281314   1.992   5.251  16.586  1.2819  2.9266 -2.2823
19952LIG    H1381315   1.486   5.619  16.183 -0.5833 -0.6904 -0.3829
19952LIG    H1481316   1.659   5.656  16.175  0.7113 -0.8871  0.7510
19952LIG    H1581317   1.578   5.593  16.334  0.2901 -1.0360 -0.1566
19952LIG    H1681318   1.786   5.001  16.063 -0.0632  1.4368 -0.6117
19952LIG    H1781319   1.681   4.814  16.175 -1.3674 -0.8373  0.9750
19952LIG    H1881320   1.700   5.020  16.814  0.7790 -0.3267  2.5751
19952LIG    H1981321   1.955   4.866  16.729 -0.7355 -3.1656 -2.0104
19952LIG    H2081322   1.763   4.802  16.952 -0.3271  0.4261 -0.6961
19952LIG    H2181323   1.478   4.842  16.444  0.7011  2.2941 -0.2105
19952LIG    H2281324   2.034   4.940  16.994 -0.3144 -1.6554 -0.6557
19952LIG    H2381325   1.757   5.059  17.029  0.8099 -2.1495  1.7178
19952LIG    H2481326   1.792   4.818  16.607  0.1534  0.5352 -0.3862
19952LIG    H2581327   1.867   4.629  16.913 -0.9747  0.7529 -1.6214
19952LIG    H2681328   1.996   4.819  17.158  0.4710 -0.1874 -1.2788
19952LIG    H2781329   2.086   5.294  17.128  0.2239 -2.3032  2.3031
   6.79653   6.79653  17.17526
